  ==> Input File <==

--------------------------------------------------------------------------
set {
	reference rhf
	basis 6-31G*
}

set_num_threads( 1 )
memory 2 gb

molecule MOL {
0 1

O	 3.369247	 -3.183887	 0.879854
C	 2.777449	 -2.162209	 0.741981
C	 1.310924	 -1.948747	 1.029259
O	 3.347903	 -1.046386	 0.304773
C	 0.612333	 -3.203820	 1.547794
H	 1.240835	 -1.124623	 1.731468
H	 0.849778	 -1.595758	 0.110325
C	 -0.897816	 -3.032878	 1.744573
H	 1.072673	 -3.510318	 2.482280
H	 0.789936	 -4.012697	 0.847366
C	 -1.297589	 -2.048591	 2.847511
H	 -1.319321	 -4.007531	 1.979323
H	 -1.353530	 -2.726068	 0.804253
C	 -2.809130	 -1.996007	 3.078766
H	 -0.801584	 -2.330125	 3.775161
H	 -0.944803	 -1.049077	 2.603616
C	 -3.220684	 -1.011820	 4.175183
H	 -3.168430	 -2.990803	 3.336678
H	 -3.306487	 -1.724996	 2.148772
C	 -4.731352	 -0.968157	 4.402505
H	 -2.723791	 -1.280581	 5.104972
H	 -2.866198	 -0.016085	 3.917052
H	 -4.991569	 -0.261974	 5.184937
H	 -5.111865	 -1.942330	 4.696429
H	 -5.255305	 -0.668684	 3.499143
C	 4.728119	 -1.109107	 -0.004993
H	 4.882018	 -1.033965	 -1.071845
H	 5.068212	 -2.067527	 0.355250
H	 5.265056	 -0.311663	 0.488280

	symmetry c1
}
set optking {
	frozen_dihedral = ("
		21 17 14 11,
		17 14 11 15,
		15 11 8 5,
		6 3 5 9,
		11 8 5 9,
		1 2 4 26,
		6 3 2 1
	")
}

ee = energy('scf')
oeprop('DIPOLE', 'QUADRUPOLE', 'MULLIKEN_CHARGES')
f=open( 'psi4out.xyz', 'w' )
f.write( "29  " )
f.write( str(ee) + "\n" )
f.write( MOL.save_string_xyz() )
f.close()
--------------------------------------------------------------------------

    Molecular point group: c1

    Geometry (in Angstrom), charge = 0, multiplicity = 1:

       Center              X                  Y                   Z               Mass
    ------------   -----------------  -----------------  -----------------  -----------------
           O          3.038294547214    -1.221274699154    -0.992148423793    15.994914619560
           C          2.446496547214    -0.199596699154    -1.130021423793    12.000000000000
           C          0.979971547214     0.013865300846    -0.842743423793    12.000000000000
           O          3.016950547214     0.916226300846    -1.567229423793    15.994914619560
           C          0.281380547214    -1.241207699154    -0.324208423793    12.000000000000
           H          0.909882547214     0.837989300846    -0.140534423793     1.007825032070
           H          0.518825547214     0.366854300846    -1.761677423793     1.007825032070
           C         -1.228768452786    -1.070265699154    -0.127429423793    12.000000000000
           H          0.741720547214    -1.547705699154     0.610277576207     1.007825032070
           H          0.458983547214    -2.050084699154    -1.024636423793     1.007825032070
           C         -1.628541452786    -0.085978699154     0.975508576207    12.000000000000
           H         -1.650273452786    -2.044918699154     0.107320576207     1.007825032070
           H         -1.684482452786    -0.763455699154    -1.067749423793     1.007825032070
           C         -3.140082452786    -0.033394699154     1.206763576207    12.000000000000
           H         -1.132536452786    -0.367512699154     1.903158576207     1.007825032070
           H         -1.275755452786     0.913535300846     0.731613576207     1.007825032070
           C         -3.551636452786     0.950792300846     2.303180576207    12.000000000000
           H         -3.499382452786    -1.028190699154     1.464675576207     1.007825032070
           H         -3.637439452786     0.237616300846     0.276769576207     1.007825032070
           C         -5.062304452786     0.994455300846     2.530502576207    12.000000000000
           H         -3.054743452786     0.682031300846     3.232969576207     1.007825032070
           H         -3.197150452786     1.946527300846     2.045049576207     1.007825032070
           H         -5.322521452786     1.700638300846     3.312934576207     1.007825032070
           H         -5.442817452786     0.020282300846     2.824426576207     1.007825032070
           H         -5.586257452786     1.293928300846     1.627140576207     1.007825032070
           C          4.397166547214     0.853505300846    -1.876995423793    12.000000000000
           H          4.551065547214     0.928647300846    -2.943847423793     1.007825032070
           H          4.737259547214    -0.104914699154    -1.516752423793     1.007825032070
           H          4.934103547214     1.650949300846    -1.383722423793     1.007825032070

  Charge       = 0
  Multiplicity = 1
  Basis Set: 6-31G*
  Basis Set:

    Orbital Energies (a.u.)
    -----------------------

    Doubly Occupied:

       1A    -20.602808     2A    -20.545452     3A    -11.374293
       4A    -11.274767     5A    -11.235687     6A    -11.219604
       7A    -11.218014     8A    -11.216253     9A    -11.216014
      10A    -11.214651    11A    -11.209179    12A     -1.470092
      13A     -1.363350    14A     -1.098525    15A     -1.067253
      16A     -1.019636    17A     -0.976123    18A     -0.928017
      19A     -0.861685    20A     -0.799346    21A     -0.790588
      22A     -0.763306    23A     -0.705648    24A     -0.680277
      25A     -0.674001    26A     -0.651274    27A     -0.628952
      28A     -0.606612    29A     -0.595279    30A     -0.580569
      31A     -0.568201    32A     -0.550636    33A     -0.534203
      34A     -0.523856    35A     -0.514584    36A     -0.510250
      37A     -0.496930    38A     -0.478207    39A     -0.470472
      40A     -0.462611    41A     -0.459133    42A     -0.453389
      43A     -0.442245    44A     -0.436300

  @DF-RHF Final Energy:  -501.03997293480893

   => Energetics <=

    Nuclear Repulsion Energy =            610.4582522357663947
    One-Electron Energy =               -1892.0201033986663788
    Two-Electron Energy =                 780.5218782280924188
    DFT Exchange-Correlation Energy =       0.0000000000000000
    Empirical Dispersion Energy =           0.0000000000000000
    PCM Polarization Energy =               0.0000000000000000
    EFP Energy =                            0.0000000000000000
    Total Energy =                       -501.0399729348075653

  Mulliken Charges: (a.u.)
   Center  Symbol    Alpha    Beta     Spin     Total
       1     O     4.28718  4.28718  0.00000 -0.57436
       2     C     2.60392  2.60392  0.00000  0.79215
       3     C     3.21011  3.21011  0.00000 -0.42022
       4     O     4.30772  4.30772  0.00000 -0.61543
       5     C     3.15399  3.15399  0.00000 -0.30798
       6     H     0.39833  0.39833  0.00000  0.20334
       7     H     0.40070  0.40070  0.00000  0.19861
       8     C     3.15666  3.15666  0.00000 -0.31331
       9     H     0.41300  0.41300  0.00000  0.17400
      10     H     0.40863  0.40863  0.00000  0.18275
      11     C     3.15511  3.15511  0.00000 -0.31023
      12     H     0.41814  0.41814  0.00000  0.16372
      13     H     0.42379  0.42379  0.00000  0.15243
      14     C     3.15031  3.15031  0.00000 -0.30062
      15     H     0.42258  0.42258  0.00000  0.15484
      16     H     0.42358  0.42358  0.00000  0.15285
      17     C     3.15148  3.15148  0.00000 -0.30295
      18     H     0.42330  0.42330  0.00000  0.15340
      19     H     0.42394  0.42394  0.00000  0.15213
      20     C     3.23936  3.23936  0.00000 -0.47872
      21     H     0.42279  0.42279  0.00000  0.15442
      22     H     0.42339  0.42339  0.00000  0.15321
      23     H     0.41920  0.41920  0.00000  0.16160
      24     H     0.42154  0.42154  0.00000  0.15692
      25     H     0.42181  0.42181  0.00000  0.15638
      26     C     3.10398  3.10398  0.00000 -0.20797
      27     H     0.41361  0.41361  0.00000  0.17278
      28     H     0.38958  0.38958  0.00000  0.22083
      29     H     0.41228  0.41228  0.00000  0.17544

   Total alpha = 44.00000, Total beta = 44.00000, Total charge = -0.00000
