  ==> Input File <==

--------------------------------------------------------------------------
set {
	reference rhf
	basis 6-31G*
}

set_num_threads( 1 )
memory 2 gb

molecule MOL {
0 1

H	 -1.936758	 0.342549	 2.792259
C	 -2.462269	 -0.172095	 1.978256
C	 -2.575420	 0.612796	 0.696166
O	 -2.893455	 -1.266816	 2.143829
C	 -1.220012	 1.144545	 0.209990
H	 -3.047495	 -0.016303	 -0.049548
H	 -3.239974	 1.453152	 0.893207
C	 -0.252658	 0.041456	 -0.226725
H	 -1.394227	 1.821420	 -0.621138
H	 -0.763391	 1.742932	 0.996874
C	 1.180775	 0.282413	 0.250794
H	 -0.266029	 -0.034465	 -1.312038
H	 -0.597733	 -0.921000	 0.146291
C	 2.148627	 -0.814315	 -0.201312
H	 1.516199	 1.249228	 -0.115937
H	 1.192670	 0.346017	 1.338083
C	 3.580890	 -0.659131	 0.322722
H	 2.166869	 -0.852443	 -1.289387
H	 1.762857	 -1.776509	 0.128956
C	 4.324889	 0.564933	 -0.213704
H	 4.142010	 -1.551473	 0.056605
H	 3.564836	 -0.624694	 1.410140
H	 4.342616	 0.565491	 -1.300421
H	 3.866655	 1.493402	 0.110242
H	 5.353900	 0.572371	 0.132816

	symmetry c1
}
set optking {
	frozen_dihedral = ("
		6 3 5 8,
		6 3 2 4,
		12 8 11 14,
		8 11 14 18,
		20 17 14 18
	")
}

ee = energy('scf')
oeprop('DIPOLE', 'QUADRUPOLE', 'MULLIKEN_CHARGES')
f=open( 'psi4out.xyz', 'w' )
f.write( "25  " )
f.write( str(ee) + "\n" )
f.write( MOL.save_string_xyz() )
f.close()
--------------------------------------------------------------------------

    Molecular point group: c1

    Geometry (in Angstrom), charge = 0, multiplicity = 1:

       Center              X                  Y                   Z               Mass
    ------------   -----------------  -----------------  -----------------  -----------------
           H         -2.149142228970     0.377015905724     2.234754306825     1.007825032070
           C         -2.674653228970    -0.137628094276     1.420751306825    12.000000000000
           C         -2.787804228970     0.647262905724     0.138661306825    12.000000000000
           O         -3.105839228970    -1.232349094276     1.586324306825    15.994914619560
           C         -1.432396228970     1.179011905724    -0.347514693175    12.000000000000
           H         -3.259879228970     0.018163905724    -0.607052693175     1.007825032070
           H         -3.452358228970     1.487618905724     0.335702306825     1.007825032070
           C         -0.465042228970     0.075922905724    -0.784229693175    12.000000000000
           H         -1.606611228970     1.855886905724    -1.178642693175     1.007825032070
           H         -0.975775228970     1.777398905724     0.439369306825     1.007825032070
           C          0.968390771030     0.316879905724    -0.306710693175    12.000000000000
           H         -0.478413228970     0.000001905724    -1.869542693175     1.007825032070
           H         -0.810117228970    -0.886533094276    -0.411213693175     1.007825032070
           C          1.936242771030    -0.779848094276    -0.758816693175    12.000000000000
           H          1.303814771030     1.283694905724    -0.673441693175     1.007825032070
           H          0.980285771030     0.380483905724     0.780578306825     1.007825032070
           C          3.368505771030    -0.624664094276    -0.234782693175    12.000000000000
           H          1.954484771030    -0.817976094276    -1.846891693175     1.007825032070
           H          1.550472771030    -1.742042094276    -0.428548693175     1.007825032070
           C          4.112504771030     0.599399905724    -0.771208693175    12.000000000000
           H          3.929625771030    -1.517006094276    -0.500899693175     1.007825032070
           H          3.352451771030    -0.590227094276     0.852635306825     1.007825032070
           H          4.130231771030     0.599957905724    -1.857925693175     1.007825032070
           H          3.654270771030     1.527868905724    -0.447262693175     1.007825032070
           H          5.141515771030     0.606837905724    -0.424688693175     1.007825032070

  Charge       = 0
  Multiplicity = 1
  Basis Set: 6-31G*
  Basis Set:

    Orbital Energies (a.u.)
    -----------------------

    Doubly Occupied:

       1A    -20.563170     2A    -11.326734     3A    -11.234957
       4A    -11.233645     5A    -11.222023     6A    -11.219869
       7A    -11.217386     8A    -11.216137     9A    -11.210340
      10A     -1.403024    11A     -1.103958    12A     -1.069160
      13A     -1.012658    14A     -0.942399    15A     -0.875903
      16A     -0.818903    17A     -0.789605    18A     -0.780494
      19A     -0.664582    20A     -0.659194    21A     -0.637849
      22A     -0.622206    23A     -0.610158    24A     -0.585332
      25A     -0.573260    26A     -0.557565    27A     -0.532422
      28A     -0.523679    29A     -0.509348    30A     -0.498937
      31A     -0.487023    32A     -0.476671    33A     -0.463612
      34A     -0.458164    35A     -0.440621    36A     -0.410165

  @DF-RHF Final Energy:  -387.11761919250534

   => Energetics <=

    Nuclear Repulsion Energy =            443.2948890888920914
    One-Electron Energy =               -1402.9227596185921811
    Two-Electron Energy =                 572.5102513371959958
    DFT Exchange-Correlation Energy =       0.0000000000000000
    Empirical Dispersion Energy =           0.0000000000000000
    PCM Polarization Energy =               0.0000000000000000
    EFP Energy =                            0.0000000000000000
    Total Energy =                       -387.1176191925040939

  Mulliken Charges: (a.u.)
   Center  Symbol    Alpha    Beta     Spin     Total
       1     H     0.43238  0.43238  0.00000  0.13524
       2     C     2.83003  2.83003  0.00000  0.33993
       3     C     3.20890  3.20890  0.00000 -0.41780
       4     O     4.23813  4.23813  0.00000 -0.47625
       5     C     3.16780  3.16780  0.00000 -0.33560
       6     H     0.39963  0.39963  0.00000  0.20075
       7     H     0.40780  0.40780  0.00000  0.18439
       8     C     3.16020  3.16020  0.00000 -0.32039
       9     H     0.41084  0.41084  0.00000  0.17831
      10     H     0.41766  0.41766  0.00000  0.16468
      11     C     3.15616  3.15616  0.00000 -0.31232
      12     H     0.41683  0.41683  0.00000  0.16633
      13     H     0.41331  0.41331  0.00000  0.17338
      14     C     3.15371  3.15371  0.00000 -0.30742
      15     H     0.42051  0.42051  0.00000  0.15897
      16     H     0.42427  0.42427  0.00000  0.15145
      17     C     3.15274  3.15274  0.00000 -0.30548
      18     H     0.42370  0.42370  0.00000  0.15261
      19     H     0.41953  0.41953  0.00000  0.16095
      20     C     3.24124  3.24124  0.00000 -0.48248
      21     H     0.41999  0.41999  0.00000  0.16002
      22     H     0.42294  0.42294  0.00000  0.15413
      23     H     0.42215  0.42215  0.00000  0.15570
      24     H     0.42087  0.42087  0.00000  0.15826
      25     H     0.41868  0.41868  0.00000  0.16265

   Total alpha = 36.00000, Total beta = 36.00000, Total charge =  0.00000
