  ==> Input File <==

--------------------------------------------------------------------------
set {
	reference rhf
	basis cc-pvtz
}

set_num_threads( 4 )
memory 2 gb

molecule MOL {
0 1

O	 0.664084	 0.358839	 0.958599
C	 0.029490	 0.077183	 0.000078
C	 -1.232113	 -0.748027	 0.000015
O	 0.354605	 0.459946	 -1.223452
C	 -2.501422	 0.088592	 -0.000052
H	 -1.188777	 -1.400384	 -0.865133
H	 -1.188857	 -1.400312	 0.865225
H	 -2.548170	 0.725504	 -0.873205
H	 -3.371613	 -0.556398	 -0.000040
H	 -2.548215	 0.725571	 0.873047
C	 1.521609	 1.243778	 -1.369574
H	 1.432581	 2.166860	 -0.816195
H	 1.612389	 1.449099	 -2.423816
H	 2.389117	 0.704795	 -1.018615

	symmetry c1
}
set optking {
	frozen_dihedral = ("
		4 2 3 6
	")
}

ee = optimize('scf')
oeprop('DIPOLE', 'QUADRUPOLE', 'MULLIKEN_CHARGES')
f=open( 'psi4out.xyz', 'w' )
f.write( "14  " )
f.write( str(ee) + "\n" )
f.write( MOL.save_string_xyz() )
f.close()
--------------------------------------------------------------------------

    Molecular point group: c1
  Charge       = 0
  Multiplicity = 1
  Basis Set: CC-PVTZ
  Basis Set:
  @DF-RHF Final Energy:  -305.98555424329049
    Total Energy =                       -305.9855542432908351
    Molecular point group: c1
  Basis Set: CC-PVTZ
  Basis Set:
  Basis Set: CC-PVTZ
  Basis Set:
  @DF-RHF Final Energy:  -305.98591442663098
    Total Energy =                       -305.9859144266310977
  Basis Set: CC-PVTZ
  Basis Set:
  Basis Set: CC-PVTZ
  Basis Set:
  @DF-RHF Final Energy:  -305.98615931777601
    Total Energy =                       -305.9861593177761847
  Basis Set: CC-PVTZ
  Basis Set:
  Basis Set: CC-PVTZ
  Basis Set:
  @DF-RHF Final Energy:  -305.98618450886323
    Total Energy =                       -305.9861845088627206
  Basis Set: CC-PVTZ
  Basis Set:
  Charge       = 0
  Multiplicity = 1
  Basis Set: CC-PVTZ
  Basis Set:

    Orbital Energies (a.u.)
    -----------------------

    Doubly Occupied:

       1A    -20.598199     2A    -20.533234     3A    -11.364217
       4A    -11.279173     5A    -11.235869     6A    -11.225585
       7A     -1.472765     8A     -1.365484     9A     -1.068507
      10A     -0.978008    11A     -0.884408    12A     -0.776240
      13A     -0.699442    14A     -0.682868    15A     -0.676463
      16A     -0.619113    17A     -0.595976    18A     -0.570053
      19A     -0.544164    20A     -0.520179    21A     -0.510701
      22A     -0.507372    23A     -0.459827    24A     -0.437797

  @DF-RHF Final Energy:  -305.98618498217388

   => Energetics <=

    Nuclear Repulsion Energy =            248.5612444174725226
    One-Electron Energy =                -909.8835703842537441
    Two-Electron Energy =                 355.3361409846071410
    DFT Exchange-Correlation Energy =       0.0000000000000000
    Empirical Dispersion Energy =           0.0000000000000000
    PCM Polarization Energy =               0.0000000000000000
    EFP Energy =                            0.0000000000000000
    Total Energy =                       -305.9861849821741089
    Molecular point group: c1
  Basis Set: CC-PVTZ
  Basis Set:

  -Total Gradient:
     Atom            X                  Y                   Z
    ------   -----------------  -----------------  -----------------
       1        0.000003803687    -0.000007601661    -0.000050877195
       2       -0.000157303262     0.000242709686     0.000072100865
       3        0.000117982168    -0.000219109553     0.000080143616
       4        0.000120703740    -0.000178900118    -0.000010714466
       5        0.000035094967    -0.000013319341     0.000035919436
       6       -0.000076597689     0.000128083552    -0.000111230539
       7        0.000008333048     0.000010254472    -0.000017878696
       8        0.000006603062    -0.000010439391     0.000013633348
       9       -0.000019464572     0.000002041559    -0.000003258950
      10       -0.000025182012     0.000024629772    -0.000001620082
      11       -0.000045705910     0.000029709701    -0.000000802786
      12        0.000014568127    -0.000000192519    -0.000006512813
      13        0.000016604949     0.000004605895    -0.000003762309
      14        0.000000559699    -0.000012472053     0.000004860575

  **** Optimization is complete! (in 5 steps) ****
    Final optimized geometry and variables:
    Molecular point group: c1

    Geometry (in Angstrom), charge = 0, multiplicity = 1:

    O            0.838148947647     0.067458288093     1.240092587568
    C            0.207616495815    -0.214305184813     0.278233740667
    C           -1.053569422285    -1.037999200436     0.290997486746
    O            0.525268543394     0.189076894010    -0.940734684131
    C           -2.297339380962    -0.145203811270     0.270113984576
    H           -1.054785686683    -1.692112164498    -0.570920247574
    H           -1.037075405980    -1.638881693584     1.188371753613
    H           -2.327872727796     0.459368232356    -0.627368571346
    H           -3.192192853670    -0.753661794557     0.297084098023
    H           -2.313237536895     0.514660565000     1.128756047841
    C            1.667885489137     1.010422773719    -1.074730103975
    H            1.549030142422     1.923650157351    -0.510727317346
    H            1.754914659696     1.230551041746    -2.126325207544
    H            2.550210642573     0.493985968446    -0.727210138283

  Mulliken Charges: (a.u.)
   Center  Symbol    Alpha    Beta     Spin     Total
       1     O     4.20176  4.20176  0.00000 -0.40352
       2     C     2.79722  2.79722  0.00000  0.40557
       3     C     3.08403  3.08403  0.00000 -0.16805
       4     O     4.15057  4.15057  0.00000 -0.30114
       5     C     3.15145  3.15145  0.00000 -0.30291
       6     H     0.44533  0.44533  0.00000  0.10935
       7     H     0.43836  0.43836  0.00000  0.12327
       8     H     0.44829  0.44829  0.00000  0.10342
       9     H     0.44740  0.44740  0.00000  0.10521
      10     H     0.44661  0.44661  0.00000  0.10677
      11     C     3.03590  3.03590  0.00000 -0.07181
      12     H     0.45458  0.45458  0.00000  0.09084
      13     H     0.44563  0.44563  0.00000  0.10874
      14     H     0.45287  0.45287  0.00000  0.09425

   Total alpha = 24.00000, Total beta = 24.00000, Total charge =  0.00000
