  ==> Input File <==

--------------------------------------------------------------------------
set {
	reference rhf
	basis cc-pvtz
}

set_num_threads( 4 )
memory 2 gb

molecule MOL {
0 1

O	 2.355774	 2.146072	 -0.028878
C	 1.263187	 2.606261	 -0.096624
C	 0.018345	 1.742437	 -0.093756
C	 1.041375	 4.098951	 -0.190956
C	 0.288398	 0.247429	 0.000314
H	 -0.608017	 2.073658	 0.731491
H	 -0.544632	 1.976490	 -0.994468
C	 -0.993089	 -0.581367	 -0.000217
H	 0.857763	 0.044983	 0.900288
H	 0.921340	 -0.052220	 -0.827170
C	 -2.258482	 0.271340	 0.000669
H	 -1.002280	 -1.233920	 -0.870484
H	 -1.002061	 -1.235367	 0.868958
C	 -3.544441	 -0.550271	 -0.000253
H	 -2.250545	 0.925250	 -0.867923
H	 -2.250598	 0.923423	 0.870642
C	 -4.804551	 0.308747	 0.000556
H	 -3.553737	 -1.201524	 -0.870151
H	 -3.553831	 -1.203282	 0.868313
H	 -4.842050	 0.949078	 -0.874436
H	 -5.698404	 -0.304480	 -0.000254
H	 -4.842277	 0.947103	 0.876982
H	 0.435576	 4.440451	 0.641169
H	 1.990961	 4.611418	 -0.183547
H	 0.503489	 4.340146	 -1.101202

	symmetry c1
}
set optking {
	frozen_dihedral = ("
		9 5 8 12
	")
}

ee = optimize('scf')
oeprop('DIPOLE', 'QUADRUPOLE', 'MULLIKEN_CHARGES')
f=open( 'psi4out.xyz', 'w' )
f.write( "25  " )
f.write( str(ee) + "\n" )
f.write( MOL.save_string_xyz() )
f.close()
--------------------------------------------------------------------------

    Molecular point group: c1
  Charge       = 0
  Multiplicity = 1
  Basis Set: CC-PVTZ
  Basis Set:
  @DF-RHF Final Energy:  -387.25887301188516
    Total Energy =                       -387.2588730118853846
    Molecular point group: c1
  Basis Set: CC-PVTZ
  Basis Set:
  Basis Set: CC-PVTZ
  Basis Set:
  @DF-RHF Final Energy:  -387.25915845460992
    Total Energy =                       -387.2591584546100876
  Basis Set: CC-PVTZ
  Basis Set:
  Basis Set: CC-PVTZ
  Basis Set:
  @DF-RHF Final Energy:  -387.26347770322553
    Total Energy =                       -387.2634777032255897
  Basis Set: CC-PVTZ
  Basis Set:
  Basis Set: CC-PVTZ
  Basis Set:
  @DF-RHF Final Energy:  -387.26432613352858
    Total Energy =                       -387.2643261335288116
  Basis Set: CC-PVTZ
  Basis Set:
  @DF-RHF Final Energy:  -387.26443086803914
    Total Energy =                       -387.2644308680391987
  Basis Set: CC-PVTZ
  Basis Set:
  @DF-RHF Final Energy:  -387.26427287997444
    Total Energy =                       -387.2642728799742144
  Basis Set: CC-PVTZ
  Basis Set:
  Basis Set: CC-PVTZ
  Basis Set:
  @DF-RHF Final Energy:  -387.26446148670186
    Total Energy =                       -387.2644614867023165
  Basis Set: CC-PVTZ
  Basis Set:
  Basis Set: CC-PVTZ
  Basis Set:
  @DF-RHF Final Energy:  -387.26447014693912
    Total Energy =                       -387.2644701469400843
  Basis Set: CC-PVTZ
  Basis Set:
  Charge       = 0
  Multiplicity = 1
  Basis Set: CC-PVTZ
  Basis Set:

    Orbital Energies (a.u.)
    -----------------------

    Doubly Occupied:

       1A    -20.538543     2A    -11.320135     3A    -11.229655
       4A    -11.226252     5A    -11.216092     6A    -11.215534
       7A    -11.215157     8A    -11.214662     9A    -11.209361
      10A     -1.398672    11A     -1.093492    12A     -1.056802
      13A     -1.014003    14A     -0.968878    15A     -0.900949
      16A     -0.818360    17A     -0.786962    18A     -0.727892
      19A     -0.661479    20A     -0.656761    21A     -0.633517
      22A     -0.624319    23A     -0.595817    24A     -0.585470
      25A     -0.569457    26A     -0.560124    27A     -0.544430
      28A     -0.527374    29A     -0.523428    30A     -0.495037
      31A     -0.494273    32A     -0.477118    33A     -0.461642
      34A     -0.449656    35A     -0.448681    36A     -0.402719

  @DF-RHF Final Energy:  -387.26447030099393

   => Energetics <=

    Nuclear Repulsion Energy =            446.3045299948428237
    One-Electron Energy =               -1409.4125953468196712
    Two-Electron Energy =                 575.8435950509829127
    DFT Exchange-Correlation Energy =       0.0000000000000000
    Empirical Dispersion Energy =           0.0000000000000000
    PCM Polarization Energy =               0.0000000000000000
    EFP Energy =                            0.0000000000000000
    Total Energy =                       -387.2644703009939349
    Molecular point group: c1
  Basis Set: CC-PVTZ
  Basis Set:

  -Total Gradient:
     Atom            X                  Y                   Z
    ------   -----------------  -----------------  -----------------
       1       -0.000002753778    -0.000004400870    -0.000000590914
       2        0.000015105039    -0.000011933097    -0.000016434097
       3        0.000005221691     0.000007047506     0.000031835810
       4       -0.000011063791     0.000002112334     0.000020100713
       5       -0.001270111554     0.001914192946     0.001773449170
       6       -0.000004829804     0.000001743957     0.000003182636
       7        0.000003866720    -0.000004918502    -0.000000922914
       8       -0.001091740590     0.001791750841    -0.001924620552
       9        0.001248085808    -0.001860400437    -0.001194925103
      10        0.000000007789    -0.000000404135     0.000003045515
      11       -0.000009487655    -0.000001681862    -0.000031706387
      12        0.001102861965    -0.001822218140     0.001348969241
      13       -0.000000158347    -0.000000353078    -0.000004938702
      14        0.000003075689    -0.000012451864     0.000003420508
      15        0.000001931849     0.000005391558    -0.000004618791
      16        0.000002952298    -0.000006212211     0.000000818021
      17        0.000005360426     0.000006360324     0.000005951115
      18        0.000002645148     0.000003034540     0.000000843938
      19       -0.000000430624    -0.000005367890     0.000000873154
      20       -0.000000010836    -0.000000705323    -0.000000209343
      21        0.000003464326    -0.000001175729     0.000001274718
      22       -0.000003290149     0.000002569593     0.000000390822
      23       -0.000002421128     0.000004633528    -0.000005970428
      24       -0.000001077110    -0.000004459389    -0.000003312409
      25        0.000002796622    -0.000002154598    -0.000005905722

  **** Optimization is complete! (in 9 steps) ****
    Final optimized geometry and variables:
    Molecular point group: c1

    Geometry (in Angstrom), charge = 0, multiplicity = 1:

    O            3.185899462362     0.913575687834     0.076123503874
    C            2.143707773399     1.469636852764    -0.044018523724
    C            0.821510582828     0.728337268725    -0.079529128970
    C            2.065329486508     2.974751581907    -0.171370133965
    C            0.966115469735    -0.783191940589     0.052387585724
    H            0.201393814492     1.143431437295     0.709090358915
    H            0.328820264935     0.999976769901    -1.008845902385
    C           -0.340939203630    -1.618457364485     0.014733830020
    H            1.509830698456    -1.001461379729     0.962113909926
    H            1.619836720059    -1.121018846406    -0.741567688269
    C           -1.673090286616    -0.869980828155     0.052519991549
    H           -0.324123198773    -2.255835641723    -0.863361463702
    H           -0.324714561728    -2.304469787739     0.855711843142
    C           -2.871599327508    -1.815419299558     0.029532285571
    H           -1.748767160060    -0.190022508573    -0.791001058530
    H           -1.729604093941    -0.256076908767     0.947432484334
    C           -4.210742572101    -1.086757187982     0.068911878273
    H           -2.823840930134    -2.432780164434    -0.863225316325
    H           -2.807508368410    -2.496495548606     0.873524174735
    H           -4.321143386274    -0.423148780431    -0.782425103299
    H           -5.038786099080    -1.785965241824     0.051422540197
    H           -4.304255101736    -0.486908252169     0.968217745359
    H            1.461925606280     3.387300144414     0.629660644995
    H            3.057479967584     3.397456932123    -0.133349407705
    H            1.588612457254     3.246607626863    -1.106704981745

  Mulliken Charges: (a.u.)
   Center  Symbol    Alpha    Beta     Spin     Total
       1     O     4.17054  4.17054  0.00000 -0.34107
       2     C     2.86313  2.86313  0.00000  0.27373
       3     C     3.11642  3.11642  0.00000 -0.23283
       4     C     3.15111  3.15111  0.00000 -0.30221
       5     C     3.09069  3.09069  0.00000 -0.18138
       6     H     0.44328  0.44328  0.00000  0.11344
       7     H     0.44415  0.44415  0.00000  0.11170
       8     C     3.09948  3.09948  0.00000 -0.19896
       9     H     0.44270  0.44270  0.00000  0.11460
      10     H     0.44298  0.44298  0.00000  0.11404
      11     C     3.09048  3.09048  0.00000 -0.18095
      12     H     0.44984  0.44984  0.00000  0.10033
      13     H     0.44967  0.44967  0.00000  0.10066
      14     C     3.08411  3.08411  0.00000 -0.16822
      15     H     0.45422  0.45422  0.00000  0.09156
      16     H     0.45430  0.45430  0.00000  0.09141
      17     C     3.15008  3.15008  0.00000 -0.30015
      18     H     0.45384  0.45384  0.00000  0.09232
      19     H     0.45340  0.45340  0.00000  0.09320
      20     H     0.45575  0.45575  0.00000  0.08849
      21     H     0.44766  0.44766  0.00000  0.10467
      22     H     0.45554  0.45554  0.00000  0.08892
      23     H     0.45077  0.45077  0.00000  0.09845
      24     H     0.43508  0.43508  0.00000  0.12983
      25     H     0.45080  0.45080  0.00000  0.09841

   Total alpha = 36.00000, Total beta = 36.00000, Total charge = -0.00000
