  ==> Input File <==

--------------------------------------------------------------------------
set {
	reference rhf
	basis 6-31G*
}

set_num_threads( 1 )
memory 2 gb

molecule MOL {
0 1

O	 0.749854	 1.307668	 -0.000040
C	 0.576249	 0.131685	 -0.000108
C	 -0.766779	 -0.556801	 -0.000461
O	 1.568443	 -0.749345	 -0.000005
C	 -1.945214	 0.412366	 0.000161
H	 -0.796911	 -1.211249	 -0.867467
H	 -0.796854	 -1.212390	 0.865687
C	 -3.287791	 -0.317055	 0.000105
H	 -1.876087	 1.060580	 -0.866812
H	 -1.875822	 1.059691	 0.867761
H	 -3.394745	 -0.949193	 -0.877058
H	 -4.111778	 0.388953	 0.000015
H	 -3.394954	 -0.949187	 0.877259
C	 2.049178	 -1.176018	 -1.261771
H	 1.261878	 -1.654533	 -1.826326
H	 2.840489	 -1.879117	 -1.053582
H	 2.431810	 -0.337707	 -1.825985

	symmetry c1
}
set optking {
	frozen_dihedral = ("
		1 2 3 6,
		9 5 3 6
	")
}

ee = energy('scf')
oeprop('DIPOLE', 'QUADRUPOLE', 'MULLIKEN_CHARGES')
f=open( 'psi4out.xyz', 'w' )
f.write( "17  " )
f.write( str(ee) + "\n" )
f.write( MOL.save_string_xyz() )
f.close()
--------------------------------------------------------------------------

    Molecular point group: c1

    Geometry (in Angstrom), charge = 0, multiplicity = 1:

       Center              X                  Y                   Z               Mass
    ------------   -----------------  -----------------  -----------------  -----------------
           O          0.879182383685     1.453337224117     0.194819592078    15.994914619560
           C          0.705577383685     0.277354224117     0.194751592078    12.000000000000
           C         -0.637450616315    -0.411131775883     0.194398592078    12.000000000000
           O          1.697771383685    -0.603675775883     0.194854592078    15.994914619560
           C         -1.815885616315     0.558035224117     0.195020592078    12.000000000000
           H         -0.667582616315    -1.065579775883    -0.672607407922     1.007825032070
           H         -0.667525616315    -1.066720775883     1.060546592078     1.007825032070
           C         -3.158462616315    -0.171385775883     0.194964592078    12.000000000000
           H         -1.746758616315     1.206249224117    -0.671952407922     1.007825032070
           H         -1.746493616315     1.205360224117     1.062620592078     1.007825032070
           H         -3.265416616315    -0.803523775883    -0.682198407922     1.007825032070
           H         -3.982449616315     0.534622224117     0.194874592078     1.007825032070
           H         -3.265625616315    -0.803517775883     1.072118592078     1.007825032070
           C          2.178506383685    -1.030348775883    -1.066911407922    12.000000000000
           H          1.391206383685    -1.508863775883    -1.631466407922     1.007825032070
           H          2.969817383685    -1.733447775883    -0.858722407922     1.007825032070
           H          2.561138383685    -0.192037775883    -1.631125407922     1.007825032070

  Charge       = 0
  Multiplicity = 1
  Basis Set: 6-31G*
  Basis Set:

    Orbital Energies (a.u.)
    -----------------------

    Doubly Occupied:

       1A    -20.587605     2A    -20.555446     3A    -11.374103
       4A    -11.295815     5A    -11.237707     6A    -11.222911
       7A    -11.215880     8A     -1.464467     9A     -1.367804
      10A     -1.080187    11A     -0.995763    12A     -0.955044
      13A     -0.833795    14A     -0.768644    15A     -0.698994
      16A     -0.682107    17A     -0.676238    18A     -0.634556
      19A     -0.618031    20A     -0.577992    21A     -0.565988
      22A     -0.544169    23A     -0.517989    24A     -0.491646
      25A     -0.490076    26A     -0.480785    27A     -0.455439
      28A     -0.434356

  @DF-RHF Final Energy:  -344.88516593530807

   => Energetics <=

    Nuclear Repulsion Energy =            313.7622039052506011
    One-Electron Energy =               -1091.6476886853445194
    Two-Electron Energy =                 433.0003188447853972
    DFT Exchange-Correlation Energy =       0.0000000000000000
    Empirical Dispersion Energy =           0.0000000000000000
    PCM Polarization Energy =               0.0000000000000000
    EFP Energy =                            0.0000000000000000
    Total Energy =                       -344.8851659353085779

  Mulliken Charges: (a.u.)
   Center  Symbol    Alpha    Beta     Spin     Total
       1     O     4.25847  4.25847  0.00000 -0.51694
       2     C     2.61568  2.61568  0.00000  0.76863
       3     C     3.21062  3.21062  0.00000 -0.42123
       4     O     4.31003  4.31003  0.00000 -0.62005
       5     C     3.15255  3.15255  0.00000 -0.30509
       6     H     0.40861  0.40861  0.00000  0.18278
       7     H     0.39886  0.39886  0.00000  0.20228
       8     C     3.24247  3.24247  0.00000 -0.48494
       9     H     0.41221  0.41221  0.00000  0.17557
      10     H     0.40946  0.40946  0.00000  0.18108
      11     H     0.42268  0.42268  0.00000  0.15464
      12     H     0.41498  0.41498  0.00000  0.17004
      13     H     0.42105  0.42105  0.00000  0.15791
      14     C     3.09336  3.09336  0.00000 -0.18673
      15     H     0.42098  0.42098  0.00000  0.15803
      16     H     0.40080  0.40080  0.00000  0.19840
      17     H     0.40719  0.40719  0.00000  0.18561

   Total alpha = 28.00000, Total beta = 28.00000, Total charge =  0.00000
