                              Psi4 1.0.54 Driver

  ==> Input File <==

--------------------------------------------------------------------------
set {
	reference rhf
	basis cc-pvtz
}

set_num_threads( 4 )
memory 2 gb

molecule MOL {
0 1

H	 -2.052967	 2.357398	 -2.353449
C	 -1.135124	 2.893207	 -2.631582
C	 -0.352883	 3.452940	 -1.474564
O	 -0.835863	 3.002271	 -3.769938
C	 -0.064210	 2.407547	 -0.393132
H	 0.558571	 3.894297	 -1.856388
H	 -0.957436	 4.250477	 -1.048237
C	 0.895241	 1.308307	 -0.844028
H	 0.349401	 2.914394	 0.471953
H	 -1.000088	 1.963018	 -0.063406
C	 1.181757	 0.280428	 0.247371
H	 1.828256	 1.762416	 -1.167101
H	 0.490541	 0.801456	 -1.716237
C	 2.151032	 -0.811012	 -0.202643
H	 1.577542	 0.793407	 1.118320
H	 0.247205	 -0.179138	 0.561553
C	 3.580021	 -0.656538	 0.320835
H	 2.170545	 -0.847575	 -1.289412
H	 1.766632	 -1.772905	 0.124928
C	 4.327657	 0.562694	 -0.213579
H	 4.138806	 -1.549270	 0.057813
H	 3.561991	 -0.620783	 1.406976
H	 4.355973	 0.557257	 -1.298551
H	 3.867136	 1.491650	 0.100501
H	 5.351524	 0.571613	 0.142204

	symmetry c1
}
set optking {
	frozen_dihedral = ("
		8 11 14 18
	")
}

ee,wfn = optimize('scf', return_wfn=True)
oeprop( wfn, 'DIPOLE', 'QUADRUPOLE', 'MULLIKEN_CHARGES')
f=open( 'psi4out.xyz', 'w' )
f.write( "25  " )
f.write( str(ee) + "\n" )
f.write( MOL.save_string_xyz() )
f.close()
--------------------------------------------------------------------------

    Molecular point group: c1
  Charge       = 0
  Multiplicity = 1
  Basis Set: CC-PVTZ
  Basis Set:
  @DF-RHF Final Energy:  -387.25531297955280
    Total Energy =                       -387.2553129795528548
    Molecular point group: c1
  Basis Set: CC-PVTZ
  Basis Set:
  Basis Set: CC-PVTZ
  Basis Set:
  @DF-RHF Final Energy:  -387.25562282246989
    Total Energy =                       -387.2556228224700590
  Basis Set: CC-PVTZ
  Basis Set:
  Basis Set: CC-PVTZ
  Basis Set:
  @DF-RHF Final Energy:  -387.25569676596047
    Total Energy =                       -387.2556967659603515
  Basis Set: CC-PVTZ
  Basis Set:
  Basis Set: CC-PVTZ
  Basis Set:
  @DF-RHF Final Energy:  -387.25554719492072
    Total Energy =                       -387.2555471949209505
  Basis Set: CC-PVTZ
  Basis Set:
  Basis Set: CC-PVTZ
  Basis Set:
  @DF-RHF Final Energy:  -387.25572867789805
    Total Energy =                       -387.2557286778978778
  Basis Set: CC-PVTZ
  Basis Set:
  Basis Set: CC-PVTZ
  Basis Set:
  @DF-RHF Final Energy:  -387.25572984507738
    Total Energy =                       -387.2557298450777807
  Basis Set: CC-PVTZ
  Basis Set:
  Charge       = 0
  Multiplicity = 1
  Basis Set: CC-PVTZ
  Basis Set:

    Orbital Energies (a.u.)
    -----------------------

    Doubly Occupied:

       1A    -20.551315     2A    -11.320920     3A    -11.233709
       4A    -11.232563     5A    -11.221258     6A    -11.218203
       7A    -11.216385     8A    -11.215035     9A    -11.209146
      10A     -1.406320    11A     -1.104500    12A     -1.069762
      13A     -1.012603    14A     -0.945466    15A     -0.876722
      16A     -0.820998    17A     -0.788663    18A     -0.781064
      19A     -0.667927    20A     -0.662582    21A     -0.633068
      22A     -0.625474    23A     -0.608498    24A     -0.594905
      25A     -0.568801    26A     -0.558580    27A     -0.533623
      28A     -0.525846    29A     -0.516486    30A     -0.497485
      31A     -0.487910    32A     -0.485553    33A     -0.463429
      34A     -0.451696    35A     -0.443069    36A     -0.411825

  @DF-RHF Final Energy:  -387.25573012248640

   => Energetics <=

    Nuclear Repulsion Energy =            447.0873638990675545
    One-Electron Energy =               -1410.7634153280250757
    Two-Electron Energy =                 576.4203213064708962
    DFT Exchange-Correlation Energy =       0.0000000000000000
    Empirical Dispersion Energy =           0.0000000000000000
    PCM Polarization Energy =               0.0000000000000000
    EFP Energy =                            0.0000000000000000
    Total Energy =                       -387.2557301224866251
    Molecular point group: c1
  Basis Set: CC-PVTZ
  Basis Set:

  -Total Gradient:
     Atom            X                  Y                   Z
    ------   -----------------  -----------------  -----------------
       1       -0.000007377266    -0.000003139474     0.000018354560
       2       -0.000037087402    -0.000008990156     0.000024259346
       3        0.000004962984     0.000010586390    -0.000016355342
       4        0.000028156322     0.000015420802    -0.000015450207
       5       -0.000034514612    -0.000016587065    -0.000017567185
       6        0.000011290106    -0.000002976541    -0.000003984999
       7        0.000006030882     0.000004369182     0.000006166091
       8       -0.000441110769    -0.000312674240    -0.000156638083
       9       -0.000004365172     0.000009711886    -0.000007219813
      10        0.000001111028    -0.000003891701    -0.000006317224
      11        0.000774538506     0.000585110732     0.000264830543
      12        0.000014919881    -0.000003586331    -0.000001872161
      13        0.000005680546    -0.000004229176     0.000007581817
      14       -0.000906963366    -0.000776963583    -0.000058997906
      15       -0.000010221451     0.000013191449    -0.000011893332
      16       -0.000008094539     0.000007227557     0.000004059514
      17       -0.000004869252    -0.000018617526    -0.000011130174
      18        0.000609374898     0.000526662147    -0.000002597050
      19        0.000021604020    -0.000017917097    -0.000005529600
      20       -0.000011639780    -0.000000132656    -0.000010372482
      21        0.000006778783    -0.000003617598     0.000005664011
      22       -0.000016390819     0.000001663092    -0.000003031915
      23       -0.000003124600     0.000004561091    -0.000004378217
      24        0.000004131126     0.000002353036     0.000003098179
      25       -0.000002820053    -0.000007534223    -0.000000678372

  **** Optimization is complete! (in 7 steps) ****
    Final optimized geometry and variables:
    Molecular point group: c1

    Geometry (in Angstrom), charge = 0, multiplicity = 1:

    H           -3.172989858072     0.968601062497    -1.315728067592
    C           -2.261109884639     1.501263839175    -1.618487004885
    C           -1.453142611655     2.069950477745    -0.483730483447
    O           -1.986765605897     1.600705855430    -2.764002992594
    C           -1.142491359925     1.033567181042     0.600287430438
    H           -0.549648769054     2.506662318973    -0.889141258717
    H           -2.047272082551     2.872173224645    -0.051573762198
    C           -0.191973769686    -0.068964804945     0.139113952070
    H           -0.711791749869     1.547688658504     1.452750361953
    H           -2.071378723501     0.591718777374     0.952811405351
    C            0.099645770069    -1.097477951456     1.231227324017
    H            0.732913154098     0.381742414234    -0.206241994566
    H           -0.613681522997    -0.581936306639    -0.721295594773
    C            1.082137418041    -2.208641361387     0.813059145477
    H            0.475634523837    -0.589465088331     2.115173934500
    H           -0.842382750286    -1.547931312914     1.528386861191
    C            2.506870382234    -2.054989068903     1.352116753891
    H            1.121363876082    -2.268604553953    -0.271254149263
    H            0.702107960561    -3.165473255149     1.153535199299
    C            3.257697549052    -0.822200748310     0.856589053931
    H            3.072562414326    -2.940498048555     1.078513426781
    H            2.474134248711    -2.041304526481     2.438366106349
    H            3.315901806602    -0.807866773232    -0.226790341597
    H            2.780165003439     0.097202529309     1.174975033475
    H            4.270977483092    -0.810662444089     1.241413580175

  Mulliken Charges: (a.u.)
   Center  Symbol    Alpha    Beta     Spin     Total
       1     H     0.46420  0.46420  0.00000  0.07161
       2     C     2.90484  2.90484  0.00000  0.19031
       3     C     3.08865  3.08865  0.00000 -0.17730
       4     O     4.16618  4.16618  0.00000 -0.33235
       5     C     3.11800  3.11800  0.00000 -0.23600
       6     H     0.44292  0.44292  0.00000  0.11416
       7     H     0.44051  0.44051  0.00000  0.11897
       8     C     3.09234  3.09234  0.00000 -0.18469
       9     H     0.44278  0.44278  0.00000  0.11443
      10     H     0.44894  0.44894  0.00000  0.10212
      11     C     3.10901  3.10901  0.00000 -0.21803
      12     H     0.44637  0.44637  0.00000  0.10726
      13     H     0.44594  0.44594  0.00000  0.10812
      14     C     3.10197  3.10197  0.00000 -0.20394
      15     H     0.45042  0.45042  0.00000  0.09917
      16     H     0.44379  0.44379  0.00000  0.11243
      17     C     3.08496  3.08496  0.00000 -0.16991
      18     H     0.45263  0.45263  0.00000  0.09473
      19     H     0.44327  0.44327  0.00000  0.11346
      20     C     3.15921  3.15921  0.00000 -0.31842
      21     H     0.44872  0.44872  0.00000  0.10256
      22     H     0.45494  0.45494  0.00000  0.09012
      23     H     0.45158  0.45158  0.00000  0.09685
      24     H     0.45500  0.45500  0.00000  0.09000
      25     H     0.44283  0.44283  0.00000  0.11434

   Total alpha = 36.00000, Total beta = 36.00000, Total charge = -0.00000

*** Psi4 exiting successfully. Buy a developer a beer!
