  ==> Input File <==

--------------------------------------------------------------------------
set {
	reference rhf
	basis cc-pvtz
}

set_num_threads( 4 )
memory 2 gb

molecule MOL {
0 1

H	 1.003051	 0.035473	 -1.832228
O	 1.218605	 0.789491	 -1.313146
C	 0.706474	 0.636793	 -0.025501
C	 -0.793473	 0.591216	 0.050087
H	 1.067030	 1.481181	 0.550094
H	 1.109528	 -0.256115	 0.448802
C	 -1.534243	 -0.493009	 -0.013340
H	 -1.266611	 1.552628	 0.164437
H	 -1.101195	 -1.466332	 -0.144046
H	 -2.604242	 -0.437780	 0.050785

	symmetry c1
}
set optking {
	frozen_dihedral = ("
		5 3 4 7
	")
}

ee = optimize('scf')
oeprop('DIPOLE', 'QUADRUPOLE', 'MULLIKEN_CHARGES')
f=open( 'psi4out.xyz', 'w' )
f.write( "10  " )
f.write( str(ee) + "\n" )
f.write( MOL.save_string_xyz() )
f.close()
--------------------------------------------------------------------------

    Molecular point group: c1
  Charge       = 0
  Multiplicity = 1
  Basis Set: CC-PVTZ
  Basis Set:
  @DF-RHF Final Energy:  -191.99525497419984
    Total Energy =                       -191.9952549741997814
    Molecular point group: c1
  Basis Set: CC-PVTZ
  Basis Set:
  Basis Set: CC-PVTZ
  Basis Set:
  @DF-RHF Final Energy:  -191.99660770427471
    Total Energy =                       -191.9966077042745951
  Basis Set: CC-PVTZ
  Basis Set:
  Basis Set: CC-PVTZ
  Basis Set:
  @DF-RHF Final Energy:  -191.99677556687772
    Total Energy =                       -191.9967755668776590
  Basis Set: CC-PVTZ
  Basis Set:
  Basis Set: CC-PVTZ
  Basis Set:
  @DF-RHF Final Energy:  -191.99679654007520
    Total Energy =                       -191.9967965400752234
  Basis Set: CC-PVTZ
  Basis Set:
  Basis Set: CC-PVTZ
  Basis Set:
  @DF-RHF Final Energy:  -191.99680415755552
    Total Energy =                       -191.9968041575555162
  Basis Set: CC-PVTZ
  Basis Set:
  Basis Set: CC-PVTZ
  Basis Set:
  @DF-RHF Final Energy:  -191.99680743204320
    Total Energy =                       -191.9968074320431128
  Basis Set: CC-PVTZ
  Basis Set:
  Charge       = 0
  Multiplicity = 1
  Basis Set: CC-PVTZ
  Basis Set:

    Orbital Energies (a.u.)
    -----------------------

    Doubly Occupied:

       1A    -20.549435     2A    -11.275380     3A    -11.233140
       4A    -11.227899     5A     -1.367482     6A     -1.068350
       7A     -0.926306     8A     -0.778221     9A     -0.705638
      10A     -0.629689    11A     -0.626825    12A     -0.596174
      13A     -0.537462    14A     -0.492335    15A     -0.444785
      16A     -0.382131

  @DF-RHF Final Energy:  -191.99680777480819

   => Energetics <=

    Nuclear Repulsion Energy =            118.3079630631463175
    One-Electron Energy =                -494.9270410497503008
    Two-Electron Energy =                 184.6222702117959216
    DFT Exchange-Correlation Energy =       0.0000000000000000
    Empirical Dispersion Energy =           0.0000000000000000
    PCM Polarization Energy =               0.0000000000000000
    EFP Energy =                            0.0000000000000000
    Total Energy =                       -191.9968077748080759
    Molecular point group: c1
  Basis Set: CC-PVTZ
  Basis Set:

  -Total Gradient:
     Atom            X                  Y                   Z
    ------   -----------------  -----------------  -----------------
       1       -0.000000379253    -0.000002805099     0.000003663673
       2        0.000007838168     0.000018137224    -0.000047465008
       3        0.000027078064    -0.002741617916     0.002472199556
       4        0.000120817867     0.000159524368     0.004737579317
       5       -0.000069124028     0.002290172748    -0.003390724391
       6       -0.000005338794     0.000005647996    -0.000004083320
       7       -0.000088262360     0.000268813586    -0.003810259542
       8        0.000005488218     0.000001713551     0.000006384313
       9        0.000000605969    -0.000002609502     0.000017247477
      10        0.000001276150     0.000003023045     0.000015457924

  **** Optimization is complete! (in 7 steps) ****
    Final optimized geometry and variables:
    Molecular point group: c1

    Geometry (in Angstrom), charge = 0, multiplicity = 1:

    H            0.846408324192    -0.225174350871    -1.502677367817
    O            1.236265990888     0.408562715724    -0.927831058398
    C            0.745947136765     0.221769124992     0.376051554314
    C           -0.758994390712     0.220387921989     0.407698888343
    H            1.133028480183     1.061394984923     0.935923706704
    H            1.133434732527    -0.695709996261     0.807207098994
    C           -1.489431725740    -0.872390772771     0.345072301114
    H           -1.240421154043     1.182817023242     0.389570890507
    H           -1.041507854856    -1.850873491957     0.351405211710
    H           -2.561621127528    -0.833921687334     0.303223642756

  Mulliken Charges: (a.u.)
   Center  Symbol    Alpha    Beta     Spin     Total
       1     H     0.39383  0.39383  0.00000  0.21234
       2     O     4.20066  4.20066  0.00000 -0.40131
       3     C     2.95190  2.95190  0.00000  0.09620
       4     C     3.07953  3.07953  0.00000 -0.15905
       5     H     0.45678  0.45678  0.00000  0.08644
       6     H     0.47027  0.47027  0.00000  0.05946
       7     C     3.17484  3.17484  0.00000 -0.34968
       8     H     0.41914  0.41914  0.00000  0.16172
       9     H     0.42777  0.42777  0.00000  0.14447
      10     H     0.42529  0.42529  0.00000  0.14941

   Total alpha = 16.00000, Total beta = 16.00000, Total charge =  0.00000
