  ==> Input File <==

--------------------------------------------------------------------------
set {
	reference rhf
	basis 6-31G*
}

set_num_threads( 4 )
memory 2 gb

molecule MOL {
0 1

H	 5.033327	 -1.151458	 0.852176
C	 4.431661	 -1.132095	 -0.051232
C	 2.948133	 -0.968153	 0.276553
H	 4.787079	 -0.311810	 -0.667796
H	 4.616049	 -2.056751	 -0.591428
C	 2.069594	 -0.943831	 -0.976200
H	 2.804346	 -0.050164	 0.837109
H	 2.630403	 -1.784839	 0.922900
C	 0.577034	 -0.798879	 -0.678677
H	 2.380483	 -0.130801	 -1.622709
H	 2.219097	 -1.866198	 -1.532914
C	 0.169600	 0.576866	 -0.172154
H	 0.002417	 -0.977604	 -1.586225
H	 0.247148	 -1.553954	 0.031403
C	 -1.181045	 0.701995	 0.511084
O	 0.872466	 1.531203	 -0.319210
C	 -2.285934	 -0.139295	 -0.145128
H	 -1.449051	 1.751551	 0.493206
H	 -1.071135	 0.403303	 1.551943
C	 -3.651768	 0.085446	 0.506485
H	 -2.346596	 0.110469	 -1.202272
H	 -2.034737	 -1.195320	 -0.088721
C	 -4.759797	 -0.746382	 -0.137905
H	 -3.908762	 1.140117	 0.445781
H	 -3.588286	 -0.154158	 1.565709
H	 -4.868882	 -0.505166	 -1.191300
H	 -4.548009	 -1.809175	 -0.062213
H	 -5.715422	 -0.564821	 0.343442

	symmetry c1
}
set optking {
	frozen_dihedral = ("
		16 12 15 17
	")
}

ee = optimize('scf')
oeprop('DIPOLE', 'QUADRUPOLE', 'MULLIKEN_CHARGES')
f=open( 'psi4out.xyz', 'w' )
f.write( "28  " )
f.write( str(ee) + "\n" )
f.write( MOL.save_string_xyz() )
f.close()
--------------------------------------------------------------------------

    Molecular point group: c1
  Charge       = 0
  Multiplicity = 1
  Basis Set: 6-31G*
  Basis Set:
  @DF-RHF Final Energy:  -426.16796819273679
    Total Energy =                       -426.1679681927371348
    Molecular point group: c1
  Basis Set: 6-31G*
  Basis Set:
  Basis Set: 6-31G*
  Basis Set:
  @DF-RHF Final Energy:  -426.16675162614320
    Total Energy =                       -426.1667516261429682
  Basis Set: 6-31G*
  Basis Set:
  Basis Set: 6-31G*
  Basis Set:
  @DF-RHF Final Energy:  -426.16818038608210
    Total Energy =                       -426.1681803860817581
  Basis Set: 6-31G*
  Basis Set:
  Basis Set: 6-31G*
  Basis Set:
  @DF-RHF Final Energy:  -426.16864841916617
    Total Energy =                       -426.1686484191666295
  Basis Set: 6-31G*
  Basis Set:
  Basis Set: 6-31G*
  Basis Set:
  @DF-RHF Final Energy:  -426.16836135652215
    Total Energy =                       -426.1683613565218138
  Basis Set: 6-31G*
  Basis Set:
  Basis Set: 6-31G*
  Basis Set:
  @DF-RHF Final Energy:  -426.16866136809472
    Total Energy =                       -426.1686613680946039
  Basis Set: 6-31G*
  Basis Set:
  Basis Set: 6-31G*
  Basis Set:
  @DF-RHF Final Energy:  -426.16866936387453
    Total Energy =                       -426.1686693638746419
  Basis Set: 6-31G*
  Basis Set:
  Charge       = 0
  Multiplicity = 1
  Basis Set: 6-31G*
  Basis Set:

    Orbital Energies (a.u.)
    -----------------------

    Doubly Occupied:

       1A    -20.547370     2A    -11.322895     3A    -11.231611
       4A    -11.230360     5A    -11.229671     6A    -11.226329
       7A    -11.216718     8A    -11.216087     9A    -11.211425
      10A    -11.205164    11A     -1.393116    12A     -1.095729
      13A     -1.076901    14A     -1.022493    15A     -0.990535
      16A     -0.907012    17A     -0.874731    18A     -0.809693
      19A     -0.799828    20A     -0.721891    21A     -0.667041
      22A     -0.656205    23A     -0.628606    24A     -0.618780
      25A     -0.608871    26A     -0.587124    27A     -0.580083
      28A     -0.573631    29A     -0.541777    30A     -0.532064
      31A     -0.518990    32A     -0.511781    33A     -0.494149
      34A     -0.486346    35A     -0.480571    36A     -0.475510
      37A     -0.469778    38A     -0.464850    39A     -0.455571
      40A     -0.392375

  @DF-RHF Final Energy:  -426.16866907996643

   => Energetics <=

    Nuclear Repulsion Energy =            531.5945632568298151
    One-Electron Energy =               -1631.3791383844027223
    Two-Electron Energy =                 673.6159060476066998
    DFT Exchange-Correlation Energy =       0.0000000000000000
    Empirical Dispersion Energy =           0.0000000000000000
    PCM Polarization Energy =               0.0000000000000000
    EFP Energy =                            0.0000000000000000
    Total Energy =                       -426.1686690799662074
    Molecular point group: c1
  Basis Set: 6-31G*
  Basis Set:

  -Total Gradient:
     Atom            X                  Y                   Z
    ------   -----------------  -----------------  -----------------
       1        0.000003357066     0.000011014807    -0.000001872369
       2        0.000006485850     0.000020179103     0.000003332793
       3        0.000021461228    -0.000058531117    -0.000007665815
       4        0.000011648524    -0.000000631220    -0.000011640065
       5       -0.000003763663     0.000004493686     0.000007616987
       6        0.000001493065     0.000016625944    -0.000004117140
       7       -0.000028417170    -0.000000185940     0.000009836157
       8        0.000015898912    -0.000009383079     0.000000337359
       9       -0.000008564132    -0.000025937414     0.000065893067
      10        0.000009745707    -0.000014741850    -0.000007892454
      11       -0.000016876295    -0.000007591216     0.000016764658
      12       -0.000708677407     0.000044925557    -0.001522230428
      13       -0.000016831952     0.000023903415    -0.000011268763
      14        0.000032353432    -0.000016521267    -0.000035181690
      15       -0.000093755396     0.001087404245    -0.000409399845
      16        0.000520583408    -0.000283214803     0.001277127943
      17        0.000217048956    -0.000847965760     0.000605606830
      18       -0.000018615149    -0.000009061942    -0.000010558611
      19       -0.000010082583    -0.000010906671     0.000012931693
      20        0.000004329336     0.000047023392     0.000019691915
      21        0.000036182412     0.000030641241    -0.000002734611
      22        0.000003605092     0.000005337623    -0.000006713061
      23        0.000032212183    -0.000026109799     0.000007417017
      24       -0.000017694481     0.000004482020    -0.000010962762
      25       -0.000004897307     0.000016295315     0.000008909666
      26       -0.000001764334     0.000007402904     0.000004621062
      27       -0.000001547801    -0.000008028641    -0.000009146574
      28        0.000015082496    -0.000000918539     0.000011297043

  **** Optimization is complete! (in 8 steps) ****
    Final optimized geometry and variables:
    Molecular point group: c1

    Geometry (in Angstrom), charge = 0, multiplicity = 1:

    H            5.187394656690    -0.864907611548     0.922990337749
    C            4.566071058445    -0.871581750730     0.032790189976
    C            3.085261724515    -0.756141856756     0.392015954308
    H            4.879944221915    -0.043345838754    -0.595615612644
    H            4.770473991769    -1.792680438046    -0.506381836044
    C            2.179782837568    -0.770291768624    -0.841662548959
    H            2.921581287250     0.159543196470     0.950097101545
    H            2.809801989419    -1.579724736350     1.049032612121
    C            0.690097660799    -0.665070419855    -0.515301523656
    H            2.455009384749     0.042962973078    -1.504027225793
    H            2.343721671485    -1.694787990567    -1.390798120378
    C            0.246418523937     0.709706717062    -0.041387514985
    H            0.098293416863    -0.899933097547    -1.398471753618
    H            0.404793508499    -1.403831548712     0.230999916217
    C           -1.126940356138     0.838455878759     0.598964507772
    O            0.957630085629     1.664647252707    -0.135045854491
    C           -2.263547467951     0.054371017192    -0.066523940172
    H           -1.357910086039     1.896491337431     0.634605569462
    H           -1.018901710821     0.503221492407     1.630648896981
    C           -3.611729587487     0.303792060115     0.612877812426
    H           -2.335729190531     0.335730362270    -1.115420769563
    H           -2.048461578912    -1.010298580100    -0.046315936779
    C           -4.755235714147    -0.475971238560    -0.034460943796
    H           -3.837197587320     1.367099791091     0.584900609681
    H           -3.539348321691     0.034042360525     1.664292952142
    H           -4.874800277481    -0.202231672901    -1.078788851124
    H           -4.574617117577    -1.546336213390     0.008117768838
    H           -5.696699762063    -0.279521083921     0.468459676508

  Mulliken Charges: (a.u.)
   Center  Symbol    Alpha    Beta     Spin     Total
       1     H     0.41944  0.41944  0.00000  0.16111
       2     C     3.24019  3.24019  0.00000 -0.48039
       3     C     3.15627  3.15627  0.00000 -0.31254
       4     H     0.41835  0.41835  0.00000  0.16331
       5     H     0.42386  0.42386  0.00000  0.15228
       6     C     3.14844  3.14844  0.00000 -0.29688
       7     H     0.40908  0.40908  0.00000  0.18183
       8     H     0.42814  0.42814  0.00000  0.14371
       9     C     3.21452  3.21452  0.00000 -0.42903
      10     H     0.40739  0.40739  0.00000  0.18522
      11     H     0.42213  0.42213  0.00000  0.15574
      12     C     2.72835  2.72835  0.00000  0.54330
      13     H     0.40329  0.40329  0.00000  0.19342
      14     H     0.41162  0.41162  0.00000  0.17675
      15     C     3.20428  3.20428  0.00000 -0.40856
      16     O     4.26835  4.26835  0.00000 -0.53669
      17     C     3.16257  3.16257  0.00000 -0.32514
      18     H     0.39916  0.39916  0.00000  0.20169
      19     H     0.40844  0.40844  0.00000  0.18312
      20     C     3.15212  3.15212  0.00000 -0.30425
      21     H     0.41736  0.41736  0.00000  0.16529
      22     H     0.41850  0.41850  0.00000  0.16299
      23     C     3.24011  3.24011  0.00000 -0.48022
      24     H     0.41877  0.41877  0.00000  0.16246
      25     H     0.42123  0.42123  0.00000  0.15755
      26     H     0.42012  0.42012  0.00000  0.15977
      27     H     0.42115  0.42115  0.00000  0.15770
      28     H     0.41678  0.41678  0.00000  0.16645

   Total alpha = 40.00000, Total beta = 40.00000, Total charge =  0.00000
