  ==> Input File <==

--------------------------------------------------------------------------
set {
	reference rhf
	basis 6-31G*
}

set_num_threads( 1 )
memory 2 gb

molecule MOL {
0 1

H	 -4.169831	 0.901839	 -0.980693
O	 -3.452007	 0.283848	 -0.965577
C	 -3.181085	 -0.079926	 0.364119
C	 -1.765924	 0.277073	 0.805136
H	 -3.327791	 -1.152017	 0.410903
H	 -3.905698	 0.375695	 1.036898
C	 -0.677594	 -0.417312	 -0.014550
H	 -1.637766	 1.358238	 0.744969
H	 -1.659588	 0.017670	 1.857098
C	 0.738335	 -0.034840	 0.421385
H	 -0.814977	 -0.178223	 -1.064632
H	 -0.802730	 -1.495410	 0.071702
C	 1.822265	 -0.738362	 -0.399735
H	 0.853533	 1.043532	 0.342250
H	 0.871597	 -0.279636	 1.474438
C	 3.258060	 -0.455774	 0.057203
H	 1.718003	 -0.459167	 -1.447053
H	 1.651028	 -1.811884	 -0.354513
C	 3.709143	 0.994797	 -0.123830
H	 3.930637	 -1.101717	 -0.501982
H	 3.365259	 -0.739518	 1.102287
H	 3.601178	 1.310569	 -1.158127
H	 4.753787	 1.110486	 0.148516
H	 3.135362	 1.678896	 0.492569

	symmetry c1
}
set optking {
	frozen_dihedral = ("
		20 16 13 17,
		17 13 10 7,
		13 10 7 11,
		11 7 4 3,
		7 4 3 2
	")
}

ee = energy('scf')
oeprop('DIPOLE', 'QUADRUPOLE', 'MULLIKEN_CHARGES')
f=open( 'psi4out.xyz', 'w' )
f.write( "24  " )
f.write( str(ee) + "\n" )
f.write( MOL.save_string_xyz() )
f.close()
--------------------------------------------------------------------------

    Molecular point group: c1

    Geometry (in Angstrom), charge = 0, multiplicity = 1:

       Center              X                  Y                   Z               Mass
    ------------   -----------------  -----------------  -----------------  -----------------
           H         -4.163329272765     0.904664669083    -0.981244677681     1.007825032070
           O         -3.445505272765     0.286673669083    -0.966128677681    15.994914619560
           C         -3.174583272765    -0.077100330917     0.363567322319    12.000000000000
           C         -1.759422272765     0.279898669083     0.804584322319    12.000000000000
           H         -3.321289272765    -1.149191330917     0.410351322319     1.007825032070
           H         -3.899196272765     0.378520669083     1.036346322319     1.007825032070
           C         -0.671092272765    -0.414486330917    -0.015101677681    12.000000000000
           H         -1.631264272765     1.361063669083     0.744417322319     1.007825032070
           H         -1.653086272765     0.020495669083     1.856546322319     1.007825032070
           C          0.744836727235    -0.032014330917     0.420833322319    12.000000000000
           H         -0.808475272765    -0.175397330917    -1.065183677681     1.007825032070
           H         -0.796228272765    -1.492584330917     0.071150322319     1.007825032070
           C          1.828766727235    -0.735536330917    -0.400286677681    12.000000000000
           H          0.860034727235     1.046357669083     0.341698322319     1.007825032070
           H          0.878098727235    -0.276810330917     1.473886322319     1.007825032070
           C          3.264561727235    -0.452948330917     0.056651322319    12.000000000000
           H          1.724504727235    -0.456341330917    -1.447604677681     1.007825032070
           H          1.657529727235    -1.809058330917    -0.355064677681     1.007825032070
           C          3.715644727235     0.997622669083    -0.124381677681    12.000000000000
           H          3.937138727235    -1.098891330917    -0.502533677681     1.007825032070
           H          3.371760727235    -0.736692330917     1.101735322319     1.007825032070
           H          3.607679727235     1.313394669083    -1.158678677681     1.007825032070
           H          4.760288727235     1.113311669083     0.147964322319     1.007825032070
           H          3.141863727235     1.681721669083     0.492017322319     1.007825032070

  Charge       = 0
  Multiplicity = 1
  Basis Set: 6-31G*
  Basis Set:

    Orbital Energies (a.u.)
    -----------------------

    Doubly Occupied:

       1A    -20.551511     2A    -11.267475     3A    -11.212940
       4A    -11.211790     5A    -11.209165     6A    -11.208583
       7A    -11.206937     8A    -11.205129     9A     -1.358991
      10A     -1.085301    11A     -1.045643    12A     -0.983410
      13A     -0.912088    14A     -0.845183    15A     -0.793277
      16A     -0.773418    17A     -0.696524    18A     -0.649608
      19A     -0.624653    20A     -0.612006    21A     -0.584282
      22A     -0.579120    23A     -0.557130    24A     -0.535392
      25A     -0.521567    26A     -0.503464    27A     -0.492289
      28A     -0.480055    29A     -0.466881    30A     -0.454159
      31A     -0.450971    32A     -0.437618    33A     -0.421053

  @DF-RHF Final Energy:  -349.24505990870927

   => Energetics <=

    Nuclear Repulsion Energy =            383.8554546901122535
    One-Electron Energy =               -1234.3255788708568161
    Two-Electron Energy =                 501.2250642720351834
    DFT Exchange-Correlation Energy =       0.0000000000000000
    Empirical Dispersion Energy =           0.0000000000000000
    PCM Polarization Energy =               0.0000000000000000
    EFP Energy =                            0.0000000000000000
    Total Energy =                       -349.2450599087093224

  Mulliken Charges: (a.u.)
   Center  Symbol    Alpha    Beta     Spin     Total
       1     H     0.27961  0.27961  0.00000  0.44079
       2     O     4.37148  4.37148  0.00000 -0.74296
       3     C     2.99959  2.99959  0.00000  0.00082
       4     C     3.15800  3.15800  0.00000 -0.31601
       5     H     0.42328  0.42328  0.00000  0.15344
       6     H     0.43006  0.43006  0.00000  0.13987
       7     C     3.15469  3.15469  0.00000 -0.30939
       8     H     0.42287  0.42287  0.00000  0.15425
       9     H     0.42516  0.42516  0.00000  0.14968
      10     C     3.15377  3.15377  0.00000 -0.30753
      11     H     0.40848  0.40848  0.00000  0.18304
      12     H     0.42523  0.42523  0.00000  0.14953
      13     C     3.15222  3.15222  0.00000 -0.30443
      14     H     0.42193  0.42193  0.00000  0.15614
      15     H     0.42631  0.42631  0.00000  0.14738
      16     C     3.15218  3.15218  0.00000 -0.30436
      17     H     0.42334  0.42334  0.00000  0.15332
      18     H     0.42265  0.42265  0.00000  0.15470
      19     C     3.24093  3.24093  0.00000 -0.48187
      20     H     0.42153  0.42153  0.00000  0.15695
      21     H     0.42413  0.42413  0.00000  0.15174
      22     H     0.42214  0.42214  0.00000  0.15571
      23     H     0.42006  0.42006  0.00000  0.15988
      24     H     0.42035  0.42035  0.00000  0.15929

   Total alpha = 33.00000, Total beta = 33.00000, Total charge = -0.00000
