  ==> Input File <==

--------------------------------------------------------------------------
set {
	reference rhf
	basis 6-31G*
}

set_num_threads( 4 )
memory 2 gb

molecule MOL {
0 1

O	 1.803386	 3.016561	 1.837323
C	 1.210339	 2.723597	 2.829909
C	 -0.068599	 1.906163	 2.797394
C	 1.700552	 3.152768	 4.197629
C	 -0.514062	 1.504116	 1.394484
H	 0.082870	 1.025612	 3.420351
H	 -0.845537	 2.482890	 3.297550
C	 -1.804290	 0.682521	 1.401951
H	 0.280518	 0.939412	 0.917113
H	 -0.649175	 2.398289	 0.794195
C	 -2.259874	 0.272531	 0.000494
H	 -1.662852	 -0.210859	 2.008512
H	 -2.596462	 1.254052	 1.883494
C	 -3.549786	 -0.549746	 -0.000374
H	 -1.469018	 -0.299472	 -0.481563
H	 -2.402417	 1.164855	 -0.606495
C	 -4.809590	 0.315458	 -0.000369
H	 -3.560515	 -1.202009	 -0.871156
H	 -3.561123	 -1.202955	 0.869711
H	 -4.844746	 0.956611	 -0.876632
H	 -5.706986	 -0.295590	 -0.001609
H	 -4.845960	 0.954827	 0.877144
H	 1.883648	 2.284719	 4.824195
H	 2.613219	 3.723260	 4.095594
H	 0.948977	 3.757523	 4.696670

	symmetry c1
}
set optking {
	frozen_dihedral = ("
		15 11 14 18
	")
}

ee = optimize('scf')
oeprop('DIPOLE', 'QUADRUPOLE', 'MULLIKEN_CHARGES')
f=open( 'psi4out.xyz', 'w' )
f.write( "25  " )
f.write( str(ee) + "\n" )
f.write( MOL.save_string_xyz() )
f.close()
--------------------------------------------------------------------------

    Molecular point group: c1
  Charge       = 0
  Multiplicity = 1
  Basis Set: 6-31G*
  Basis Set:
  @DF-RHF Final Energy:  -387.13358757026884
    Total Energy =                       -387.1335875702690146
    Molecular point group: c1
  Basis Set: 6-31G*
  Basis Set:
  Basis Set: 6-31G*
  Basis Set:
  @DF-RHF Final Energy:  -387.13375529226420
    Total Energy =                       -387.1337552922641407
  Basis Set: 6-31G*
  Basis Set:
  Basis Set: 6-31G*
  Basis Set:
  @DF-RHF Final Energy:  -387.13381726407573
    Total Energy =                       -387.1338172640754465
  Basis Set: 6-31G*
  Basis Set:
  Basis Set: 6-31G*
  Basis Set:
  @DF-RHF Final Energy:  -387.13373667794701
    Total Energy =                       -387.1337366779470130
  Basis Set: 6-31G*
  Basis Set:
  Basis Set: 6-31G*
  Basis Set:
  @DF-RHF Final Energy:  -387.13381906819018
    Total Energy =                       -387.1338190681900642
  Basis Set: 6-31G*
  Basis Set:
  Charge       = 0
  Multiplicity = 1
  Basis Set: 6-31G*
  Basis Set:

    Orbital Energies (a.u.)
    -----------------------

    Doubly Occupied:

       1A    -20.550509     2A    -11.326351     3A    -11.231967
       4A    -11.228383     5A    -11.217193     6A    -11.216570
       7A    -11.215377     8A    -11.213464     9A    -11.209119
      10A     -1.395815    11A     -1.093421    12A     -1.055537
      13A     -1.013825    14A     -0.967880    15A     -0.893804
      16A     -0.820766    17A     -0.784141    18A     -0.729738
      19A     -0.657891    20A     -0.653162    21A     -0.624721
      22A     -0.618928    23A     -0.609934    24A     -0.588699
      25A     -0.568514    26A     -0.556734    27A     -0.538124
      28A     -0.523292    29A     -0.516052    30A     -0.492138
      31A     -0.486612    32A     -0.477810    33A     -0.462524
      34A     -0.455446    35A     -0.450815    36A     -0.399523

  @DF-RHF Final Energy:  -387.13381978766984

   => Energetics <=

    Nuclear Repulsion Energy =            441.6238863210404588
    One-Electron Energy =               -1399.8258583896010805
    Two-Electron Energy =                 571.0681522808910131
    DFT Exchange-Correlation Energy =       0.0000000000000000
    Empirical Dispersion Energy =           0.0000000000000000
    PCM Polarization Energy =               0.0000000000000000
    EFP Energy =                            0.0000000000000000
    Total Energy =                       -387.1338197876696086
    Molecular point group: c1
  Basis Set: 6-31G*
  Basis Set:

  -Total Gradient:
     Atom            X                  Y                   Z
    ------   -----------------  -----------------  -----------------
       1       -0.000006835764     0.000010951286    -0.000001585767
       2        0.000022900334    -0.000034343700     0.000004986775
       3       -0.000012234231     0.000013648503     0.000000544311
       4       -0.000003984620     0.000009220103     0.000000352292
       5       -0.000024095253     0.000023224037    -0.000030365950
       6        0.000000925067     0.000001783027    -0.000001776010
       7       -0.000001160235    -0.000000581582     0.000000277755
       8       -0.000005514409    -0.000066307056     0.000008274410
       9       -0.000003615249     0.000000125490     0.000004269708
      10        0.000009080666     0.000005628700    -0.000002674682
      11        0.001033987593    -0.001923671442     0.003509934133
      12        0.000002420065    -0.000011522667     0.000007634115
      13       -0.000004439485    -0.000004200362    -0.000019878471
      14       -0.001651712439     0.002900612152    -0.002450952467
      15       -0.000674373122     0.001121072873    -0.002526180092
      16       -0.000023088626     0.000016454020    -0.000007283427
      17        0.000042816939     0.000024091035    -0.000009951989
      18        0.001254345888    -0.002076075713     0.001490385694
      19        0.000015169300     0.000010894080     0.000024536925
      20       -0.000000814176     0.000001330336    -0.000004370896
      21        0.000015342374    -0.000019726349     0.000000355334
      22        0.000015624685    -0.000004788184     0.000003412344
      23       -0.000001065607     0.000000288041    -0.000001703701
      24       -0.000000098177     0.000000677203     0.000000281564
      25        0.000000418484     0.000001216167     0.000001478093

  **** Optimization is complete! (in 6 steps) ****
    Final optimized geometry and variables:
    Molecular point group: c1

    Geometry (in Angstrom), charge = 0, multiplicity = 1:

    O            2.717012339163     1.583235661161     0.226365835017
    C            2.134543147532     1.278307811787     1.221592309862
    C            0.864444770495     0.446987416675     1.193831828609
    C            2.629822034573     1.705643373979     2.588060542340
    C            0.413652998140     0.047169455516    -0.208025569286
    H            1.030017614716    -0.434947191674     1.811202366416
    H            0.084793119719     1.012649233458     1.702358749253
    C           -0.867565120110    -0.788260294075    -0.196145004052
    H            1.210847480036    -0.506804605669    -0.693672662974
    H            0.265073311990     0.942751020282    -0.802928186977
    C           -1.317002282966    -1.207332442722    -1.597302601817
    H           -0.714752152965    -1.680439780760     0.409253386046
    H           -1.661775786893    -0.224164182030     0.289519909373
    C           -2.633269223817    -1.999861095665    -1.622154490171
    H           -0.531981469359    -1.791994585385    -2.070905671069
    H           -1.426457913762    -0.318870473371    -2.217517936729
    C           -3.885430634765    -1.123191854526    -1.608522140934
    H           -2.649383909538    -2.645425412077    -2.496167647145
    H           -2.658690458520    -2.673866252618    -0.767677801572
    H           -3.923559938488    -0.485542436920    -2.487091052965
    H           -4.786605209940    -1.728690796131    -1.599663137117
    H           -3.914400242021    -0.480612872588    -0.733545839292
    H            2.827391539903     0.836350698484     3.208473292628
    H            3.535169452226     2.287049059070     2.482553249883
    H            1.875098144049     2.299060207537     3.095895385526

  Mulliken Charges: (a.u.)
   Center  Symbol    Alpha    Beta     Spin     Total
       1     O     4.26112  4.26112  0.00000 -0.52225
       2     C     2.73572  2.73572  0.00000  0.52856
       3     C     3.21082  3.21082  0.00000 -0.42164
       4     C     3.28665  3.28665  0.00000 -0.57330
       5     C     3.14814  3.14814  0.00000 -0.29629
       6     H     0.40997  0.40997  0.00000  0.18007
       7     H     0.41008  0.41008  0.00000  0.17984
       8     C     3.15464  3.15464  0.00000 -0.30927
       9     H     0.41214  0.41214  0.00000  0.17572
      10     H     0.41199  0.41199  0.00000  0.17602
      11     C     3.15423  3.15423  0.00000 -0.30846
      12     H     0.42457  0.42457  0.00000  0.15086
      13     H     0.42400  0.42400  0.00000  0.15200
      14     C     3.15444  3.15444  0.00000 -0.30888
      15     H     0.41992  0.41992  0.00000  0.16015
      16     H     0.42220  0.42220  0.00000  0.15560
      17     C     3.23975  3.23975  0.00000 -0.47949
      18     H     0.41975  0.41975  0.00000  0.16050
      19     H     0.42362  0.42362  0.00000  0.15277
      20     H     0.42092  0.42092  0.00000  0.15816
      21     H     0.41951  0.41951  0.00000  0.16098
      22     H     0.42195  0.42195  0.00000  0.15610
      23     H     0.40873  0.40873  0.00000  0.18253
      24     H     0.39644  0.39644  0.00000  0.20711
      25     H     0.40870  0.40870  0.00000  0.18261

   Total alpha = 36.00000, Total beta = 36.00000, Total charge = -0.00000
