  ==> Input File <==

--------------------------------------------------------------------------
set {
	reference rhf
	basis cc-pvtz
}

set_num_threads( 4 )
memory 2 gb

molecule MOL {
0 1

H	 2.512245	 1.434568	 -1.287424
N	 1.703452	 0.851029	 -1.317832
C	 1.263552	 0.494993	 0.021953
H	 1.947613	 0.036191	 -1.841054
C	 -0.016533	 -0.325589	 -0.026925
H	 1.077620	 1.415487	 0.565197
H	 2.019828	 -0.053397	 0.585246
C	 -1.280353	 0.525521	 0.047747
H	 -0.016686	 -0.912532	 -0.939714
H	 -0.014099	 -1.037598	 0.796369
C	 -2.560681	 -0.301323	 -0.007747
H	 -1.279957	 1.241025	 -0.770189
H	 -1.270445	 1.110526	 0.963468
H	 -2.617064	 -0.872870	 -0.928010
H	 -3.439525	 0.331102	 0.043462
H	 -2.609427	 -1.002736	 0.818585

	symmetry c1
}
set optking {
	frozen_dihedral = ("
		6 3 5 9
	")
}

ee = optimize('scf')
oeprop('DIPOLE', 'QUADRUPOLE', 'MULLIKEN_CHARGES')
f=open( 'psi4out.xyz', 'w' )
f.write( "16  " )
f.write( str(ee) + "\n" )
f.write( MOL.save_string_xyz() )
f.close()
--------------------------------------------------------------------------

    Molecular point group: c1
  Charge       = 0
  Multiplicity = 1
  Basis Set: CC-PVTZ
  Basis Set:
  @DF-RHF Final Energy:  -212.39703646198288
    Total Energy =                       -212.3970364619828501
    Molecular point group: c1
  Basis Set: CC-PVTZ
  Basis Set:
  Basis Set: CC-PVTZ
  Basis Set:
  @DF-RHF Final Energy:  -212.39752150800555
    Total Energy =                       -212.3975215080055818
  Basis Set: CC-PVTZ
  Basis Set:
  Basis Set: CC-PVTZ
  Basis Set:
  @DF-RHF Final Energy:  -212.39761266668660
    Total Energy =                       -212.3976126666866548
  Basis Set: CC-PVTZ
  Basis Set:
  Basis Set: CC-PVTZ
  Basis Set:
  @DF-RHF Final Energy:  -212.39761597009914
    Total Energy =                       -212.3976159700989683
  Basis Set: CC-PVTZ
  Basis Set:
  Charge       = 0
  Multiplicity = 1
  Basis Set: CC-PVTZ
  Basis Set:

    Orbital Energies (a.u.)
    -----------------------

    Doubly Occupied:

       1A    -15.527130     2A    -11.238651     3A    -11.208083
       4A    -11.206281     5A    -11.202028     6A     -1.178176
       7A     -1.055590     8A     -0.957415     9A     -0.845144
      10A     -0.787825    11A     -0.663557    12A     -0.639160
      13A     -0.600811    14A     -0.575731    15A     -0.566219
      16A     -0.515668    17A     -0.503208    18A     -0.468662
      19A     -0.462423    20A     -0.461341    21A     -0.382449

  @DF-RHF Final Energy:  -212.39761645838414

   => Energetics <=

    Nuclear Repulsion Energy =            188.3527193469271026
    One-Electron Energy =                -659.4095698430903667
    Two-Electron Energy =                 258.6592340377788446
    DFT Exchange-Correlation Energy =       0.0000000000000000
    Empirical Dispersion Energy =           0.0000000000000000
    PCM Polarization Energy =               0.0000000000000000
    EFP Energy =                            0.0000000000000000
    Total Energy =                       -212.3976164583844479
    Molecular point group: c1
  Basis Set: CC-PVTZ
  Basis Set:

  -Total Gradient:
     Atom            X                  Y                   Z
    ------   -----------------  -----------------  -----------------
       1        0.000003231625     0.000001242343    -0.000024546434
       2        0.000053990649     0.000013834081    -0.000001503692
       3        0.000972063772    -0.001575417726     0.003955948327
       4       -0.000001101107     0.000009541244     0.000017610910
       5        0.002175797131    -0.003390377877     0.001569120906
       6       -0.001190158802     0.001815653246    -0.003581257586
       7       -0.000022089214     0.000001246767    -0.000018791984
       8        0.000001278255     0.000037058372     0.000046990649
       9       -0.001959309597     0.003081236151    -0.001966044554
      10        0.000000119397     0.000016370385     0.000004229137
      11       -0.000011811979    -0.000001222884    -0.000016590422
      12        0.000006880227    -0.000005378835     0.000016078279
      13       -0.000011866826     0.000000255821     0.000005955383
      14       -0.000004936067    -0.000011626904     0.000003614828
      15       -0.000013729235    -0.000004838058    -0.000007233047
      16        0.000001641774     0.000012423872    -0.000003580701

  **** Optimization is complete! (in 5 steps) ****
    Final optimized geometry and variables:
    Molecular point group: c1

    Geometry (in Angstrom), charge = 0, multiplicity = 1:

    H            2.564578161717     1.240625850576    -1.071950717715
    N            1.798879453399     0.600832939334    -1.063171460283
    C            1.435983316718     0.232061612526     0.300049926538
    H            2.078605975154    -0.201865556391    -1.587054889902
    C            0.145529486051    -0.590145702104     0.306630305333
    H            1.272619637481     1.161805250816     0.833452023147
    H            2.228238915831    -0.308923883437     0.814146511998
    C           -1.113837763333     0.274508713550     0.335834584357
    H            0.115104855590    -1.191932247392    -0.597692045408
    H            0.139999935600    -1.270858552338     1.152259906775
    C           -2.400030010961    -0.536332817400     0.222142113387
    H           -1.062253025742     0.993480461373    -0.474791632591
    H           -1.131172629589     0.847938348077     1.258984004266
    H           -2.433195493302    -1.088235583960    -0.711452821375
    H           -3.273301832555     0.105082573614     0.256990633375
    H           -2.485266114186    -1.254159314026     1.031815155693

  Mulliken Charges: (a.u.)
   Center  Symbol    Alpha    Beta     Spin     Total
       1     H     0.42864  0.42864  0.00000  0.14271
       2     N     3.69348  3.69348  0.00000 -0.38696
       3     C     3.03547  3.03547  0.00000 -0.07094
       4     H     0.43073  0.43073  0.00000  0.13854
       5     C     3.08153  3.08153  0.00000 -0.16306
       6     H     0.45831  0.45831  0.00000  0.08337
       7     H     0.45874  0.45874  0.00000  0.08253
       8     C     3.08272  3.08272  0.00000 -0.16543
       9     H     0.46073  0.46073  0.00000  0.07854
      10     H     0.45157  0.45157  0.00000  0.09685
      11     C     3.15084  3.15084  0.00000 -0.30168
      12     H     0.44838  0.44838  0.00000  0.10323
      13     H     0.45757  0.45757  0.00000  0.08485
      14     H     0.45508  0.45508  0.00000  0.08985
      15     H     0.44913  0.44913  0.00000  0.10173
      16     H     0.45707  0.45707  0.00000  0.08587

   Total alpha = 21.00000, Total beta = 21.00000, Total charge =  0.00000
