  ==> Input File <==

--------------------------------------------------------------------------
set {
	reference rhf
	basis 6-31G*
}

set_num_threads( 4 )
memory 2 gb

molecule MOL {
0 1

H	 -2.924666	 0.670669	 -2.165590
C	 -2.226250	 -0.003711	 -1.709425
C	 -2.076860	 -0.007332	 -0.404944
H	 -1.662905	 -0.664271	 -2.341259
O	 -1.180634	 -0.819263	 0.215062
H	 -2.636478	 0.641079	 0.245890
C	 0.051604	 -1.018856	 -0.387932
C	 1.043764	 0.054862	 -0.001873
H	 -0.017620	 -1.041351	 -1.469781
H	 0.437898	 -1.966374	 -0.042284
F	 2.212596	 -0.199467	 -0.571921
F	 0.652529	 1.252447	 -0.405055
F	 1.230877	 0.110694	 1.300533

	symmetry c1
}
set optking {
	frozen_dihedral = ("
		6 3 5 7
	")
}

ee = optimize('scf')
oeprop('DIPOLE', 'QUADRUPOLE', 'MULLIKEN_CHARGES')
f=open( 'psi4out.xyz', 'w' )
f.write( "13  " )
f.write( str(ee) + "\n" )
f.write( MOL.save_string_xyz() )
f.close()
--------------------------------------------------------------------------

    Molecular point group: c1
  Charge       = 0
  Multiplicity = 1
  Basis Set: 6-31G*
  Basis Set:
  @DF-RHF Final Energy:  -527.52902933983114
    Total Energy =                       -527.5290293398313679
    Molecular point group: c1
  Basis Set: 6-31G*
  Basis Set:
  Basis Set: 6-31G*
  Basis Set:
  @DF-RHF Final Energy:  -527.53135275179761
    Total Energy =                       -527.5313527517973853
  Basis Set: 6-31G*
  Basis Set:
  Basis Set: 6-31G*
  Basis Set:
  @DF-RHF Final Energy:  -527.53258879101122
    Total Energy =                       -527.5325887910112215
  Basis Set: 6-31G*
  Basis Set:
  Basis Set: 6-31G*
  Basis Set:
  @DF-RHF Final Energy:  -527.53282002183118
    Total Energy =                       -527.5328200218307302
  Basis Set: 6-31G*
  Basis Set:
  @DF-RHF Final Energy:  -527.53294266912076
    Total Energy =                       -527.5329426691208710
  @DF-RHF Final Energy:  -527.53306400044949
    Total Energy =                       -527.5330640004492579
  @DF-RHF Final Energy:  -527.53310231852925
    Total Energy =                       -527.5331023185294725
  @DF-RHF Final Energy:  -527.53313276742142
    Total Energy =                       -527.5331327674217619
  @DF-RHF Final Energy:  -527.53315552909532
    Total Energy =                       -527.5331555290954384
  @DF-RHF Final Energy:  -527.53316075478097
    Total Energy =                       -527.5331607547808517
  @DF-RHF Final Energy:  -527.53317422862324
    Total Energy =                       -527.5331742286233521
  @DF-RHF Final Energy:  -527.53317746402990
    Total Energy =                       -527.5331774640300182
  @DF-RHF Final Energy:  -527.53318059746823
    Total Energy =                       -527.5331805974684585
  @DF-RHF Final Energy:  -527.53318369456269
    Total Energy =                       -527.5331836945624673
  @DF-RHF Final Energy:  -527.53319070258601
    Total Energy =                       -527.5331907025861256
  @DF-RHF Final Energy:  -527.53320111925291
    Total Energy =                       -527.5332011192524533
  @DF-RHF Final Energy:  -527.53321104314784
    Total Energy =                       -527.5332110431480714
  @DF-RHF Final Energy:  -527.53324131202226
    Total Energy =                       -527.5332413120228239
  @DF-RHF Final Energy:  -527.53324476050591
    Total Energy =                       -527.5332447605057951
  @DF-RHF Final Energy:  -527.53324935481578
    Total Energy =                       -527.5332493548160073
  @DF-RHF Final Energy:  -527.53335161095970
    Total Energy =                       -527.5333516109595848
  @DF-RHF Final Energy:  -527.53338684779908
    Total Energy =                       -527.5333868477991928
  @DF-RHF Final Energy:  -527.53348265784928
    Total Energy =                       -527.5334826578491629
  @DF-RHF Final Energy:  -527.53334000842938
    Total Energy =                       -527.5333400084292634
  @DF-RHF Final Energy:  -527.53357302689972
    Total Energy =                       -527.5335730268996031
  @DF-RHF Final Energy:  -527.53359243564296
    Total Energy =                       -527.5335924356434134
  @DF-RHF Final Energy:  -527.53365351950561
    Total Energy =                       -527.5336535195058332
  @DF-RHF Final Energy:  -527.53368496095902
    Total Energy =                       -527.5336849609590217
  @DF-RHF Final Energy:  -527.53370258489349
    Total Energy =                       -527.5337025848937174
  @DF-RHF Final Energy:  -527.53370472264135
    Total Energy =                       -527.5337047226413461
  @DF-RHF Final Energy:  -527.53370270735968
    Total Energy =                       -527.5337027073597937
  @DF-RHF Final Energy:  -527.53353530270340
    Total Energy =                       -527.5335353027030578
  @DF-RHF Final Energy:  -527.53369751284367
    Total Energy =                       -527.5336975128440145
  @DF-RHF Final Energy:  -527.53368246000036
    Total Energy =                       -527.5336824599999090
  @DF-RHF Final Energy:  -527.53370488947326
    Total Energy =                       -527.5337048894730287
  @DF-RHF Final Energy:  -527.53370389182760
    Total Energy =                       -527.5337038918273720
  Basis Set: 6-31G*
  Basis Set:
  @DF-RHF Final Energy:  -527.53370387319364
    Total Energy =                       -527.5337038731934172
  Basis Set: 6-31G*
  Basis Set:
  Basis Set: 6-31G*
  Basis Set:
  @DF-RHF Final Energy:  -527.53370464447403
    Total Energy =                       -527.5337046444740281
  Basis Set: 6-31G*
  Basis Set:
  Basis Set: 6-31G*
  Basis Set:
  @DF-RHF Final Energy:  -527.53370442213418
    Total Energy =                       -527.5337044221341785
  Basis Set: 6-31G*
  Basis Set:
  Charge       = 0
  Multiplicity = 1
  Basis Set: 6-31G*
  Basis Set:

    Orbital Energies (a.u.)
    -----------------------

    Doubly Occupied:

       1A    -26.340011     2A    -26.338260     3A    -26.335139
       4A    -20.605806     5A    -11.499972     6A    -11.315403
       7A    -11.303962     8A    -11.228082     9A     -1.738736
      10A     -1.636474    11A     -1.633197    12A     -1.436978
      13A     -1.083204    14A     -1.021665    15A     -0.927542
      16A     -0.836846    17A     -0.828168    18A     -0.817918
      19A     -0.776257    20A     -0.713708    21A     -0.710927
      22A     -0.698148    23A     -0.678171    24A     -0.664303
      25A     -0.652588    26A     -0.647874    27A     -0.637963
      28A     -0.581585    29A     -0.557966    30A     -0.532828
      31A     -0.492289    32A     -0.367364

  @DF-RHF Final Energy:  -527.53363355735826

   => Energetics <=

    Nuclear Repulsion Energy =            410.2232282913763584
    One-Electron Energy =               -1544.2350541885134589
    Two-Electron Energy =                 606.4781923397788432
    DFT Exchange-Correlation Energy =       0.0000000000000000
    Empirical Dispersion Energy =           0.0000000000000000
    PCM Polarization Energy =               0.0000000000000000
    EFP Energy =                            0.0000000000000000
    Total Energy =                       -527.5336335573581437
    Molecular point group: c1
  Basis Set: 6-31G*
  Basis Set:

  -Total Gradient:
     Atom            X                  Y                   Z
    ------   -----------------  -----------------  -----------------
       1       -0.000036457328     0.000287218809     0.000222680656
       2       -0.002379137644    -0.000093861370     0.002351461310
       3        0.005207815176     0.002940064609    -0.004511863242
       4        0.000001591481    -0.000802716469     0.000414515173
       5       -0.001742071692    -0.005147060770     0.001439922108
       6       -0.000147547999    -0.000354506833     0.000055772210
       7       -0.000312296226     0.005429062988    -0.000299110870
       8       -0.000923345959     0.004564961719    -0.001992621568
       9        0.000087133401     0.000255929851     0.000569719074
      10        0.000553223496    -0.002857621671     0.000122384379
      11       -0.001423267228     0.000049709732     0.002146187938
      12       -0.000022072508    -0.004028306246     0.000002489699
      13        0.001136433037    -0.000242874346    -0.000521536868

    Molecular point group: c1

    Geometry (in Angstrom), charge = 0, multiplicity = 1:

    H           -3.743870415059    -0.005129725720    -2.099908807188
    C           -2.852703101279    -0.355672633935    -1.612500421841
    C           -2.374986758261     0.299928286378    -0.575465324023
    H           -2.391289704517    -1.249068340988    -1.991248930722
    O           -1.290411714458    -0.044054754116     0.161382853295
    H           -2.857980698666     1.160582844292    -0.158562511691
    C           -0.134236668572    -0.461563397630    -0.492263051222
    C            1.046923938787     0.008416810081     0.321113964144
    H           -0.054764220293    -0.024027279641    -1.482145449309
    H           -0.083036152923    -1.539119374711    -0.570296587011
    F            2.167089185378    -0.389281476521    -0.269470101340
    F            1.084950613872     1.321509042029     0.413241498514
    F            1.044239546203    -0.485817978158     1.544767874546

  Mulliken Charges: (a.u.)
   Center  Symbol    Alpha    Beta     Spin     Total
       1     H     0.40309  0.40309  0.00000  0.19382
       2     C     3.23427  3.23427  0.00000 -0.46854
       3     C     2.90228  2.90228  0.00000  0.19544
       4     H     0.40699  0.40699  0.00000  0.18603
       5     O     4.30785  4.30785  0.00000 -0.61571
       6     H     0.39805  0.39805  0.00000  0.20391
       7     C     3.05092  3.05092  0.00000 -0.10184
       8     C     2.45204  2.45204  0.00000  1.09591
       9     H     0.40185  0.40185  0.00000  0.19630
      10     H     0.40407  0.40407  0.00000  0.19186
      11     F     4.68475  4.68475  0.00000 -0.36950
      12     F     4.67613  4.67613  0.00000 -0.35226
      13     F     4.67771  4.67771  0.00000 -0.35542

   Total alpha = 32.00000, Total beta = 32.00000, Total charge = -0.00000
