                              Psi4 1.0.54 Driver

  ==> Input File <==

--------------------------------------------------------------------------
set {
	reference rhf
	basis cc-pvtz
}

set_num_threads( 4 )
memory 2 gb

molecule MOL {
0 1

O	 -2.596544	 -0.468429	 1.099529
C	 -1.560635	 -0.415029	 1.678730
C	 -0.313460	 -1.063962	 1.111731
C	 -1.425662	 0.314193	 2.994324
C	 0.376695	 -0.140025	 0.100361
H	 -0.615402	 -1.979917	 0.619827
H	 0.375637	 -1.316628	 1.910586
C	 1.630207	 -0.772146	 -0.501001
H	 -0.335597	 0.104200	 -0.677599
H	 0.646124	 0.796075	 0.583500
C	 2.907848	 -0.545876	 0.309149
H	 1.772784	 -0.391628	 -1.509394
H	 1.468529	 -1.842059	 -0.599744
C	 3.373802	 0.906639	 0.372125
H	 3.699140	 -1.146831	 -0.127906
H	 2.764321	 -0.923458	 1.318191
H	 3.519798	 1.311927	 -0.623875
H	 4.316899	 0.983758	 0.900700
H	 2.661122	 1.540651	 0.885346
H	 -1.232059	 -0.405811	 3.783063
H	 -2.333277	 0.854699	 3.214910
H	 -0.583070	 0.996109	 2.969477

	symmetry c1
}
set optking {
	frozen_dihedral = ("
		3 5 8 12
	")
}

ee,wfn = optimize('scf', return_wfn=True)
oeprop( wfn, 'DIPOLE', 'QUADRUPOLE', 'MULLIKEN_CHARGES')
f=open( 'psi4out.xyz', 'w' )
f.write( "22  " )
f.write( str(ee) + "\n" )
f.write( MOL.save_string_xyz() )
f.close()
--------------------------------------------------------------------------

    Molecular point group: c1
  Charge       = 0
  Multiplicity = 1
  Basis Set: CC-PVTZ
  Basis Set:
  @DF-RHF Final Energy:  -348.21997863096067
    Total Energy =                       -348.2199786309606111
    Molecular point group: c1
  Basis Set: CC-PVTZ
  Basis Set:
  Basis Set: CC-PVTZ
  Basis Set:
  @DF-RHF Final Energy:  -348.22002053385131
    Total Energy =                       -348.2200205338512546
  Basis Set: CC-PVTZ
  Basis Set:
  Basis Set: CC-PVTZ
  Basis Set:
  @DF-RHF Final Energy:  -348.22046562575957
    Total Energy =                       -348.2204656257595161
  Basis Set: CC-PVTZ
  Basis Set:
  Basis Set: CC-PVTZ
  Basis Set:
  @DF-RHF Final Energy:  -348.22029132343664
    Total Energy =                       -348.2202913234366974
  Basis Set: CC-PVTZ
  Basis Set:
  @DF-RHF Final Energy:  -348.22042204204791
    Total Energy =                       -348.2204220420481988
  Basis Set: CC-PVTZ
  Basis Set:
  @DF-RHF Final Energy:  -348.22049767336915
    Total Energy =                       -348.2204976733692092
  Basis Set: CC-PVTZ
  Basis Set:
  Basis Set: CC-PVTZ
  Basis Set:
  @DF-RHF Final Energy:  -348.22046652016360
    Total Energy =                       -348.2204665201637681
  Basis Set: CC-PVTZ
  Basis Set:
  Basis Set: CC-PVTZ
  Basis Set:
  @DF-RHF Final Energy:  -348.22050694225635
    Total Energy =                       -348.2205069422560655
  Basis Set: CC-PVTZ
  Basis Set:
  Charge       = 0
  Multiplicity = 1
  Basis Set: CC-PVTZ
  Basis Set:

    Orbital Energies (a.u.)
    -----------------------

    Doubly Occupied:

       1A    -20.536780     2A    -11.319088     3A    -11.228269
       4A    -11.227447     5A    -11.226893     6A    -11.221664
       7A    -11.220780     8A    -11.213030     9A     -1.396882
      10A     -1.097485    11A     -1.045473    12A     -1.000512
      13A     -0.940623    14A     -0.863145    15A     -0.784660
      16A     -0.736470    17A     -0.662613    18A     -0.652706
      19A     -0.626558    20A     -0.613350    21A     -0.606191
      22A     -0.582104    23A     -0.563984    24A     -0.551230
      25A     -0.530416    26A     -0.525269    27A     -0.507591
      28A     -0.489728    29A     -0.468322    30A     -0.464911
      31A     -0.461116    32A     -0.399109

  @DF-RHF Final Energy:  -348.22050758577552

   => Energetics <=

    Nuclear Repulsion Energy =            376.9169744855572617
    One-Electron Energy =               -1218.7461643984820512
    Two-Electron Energy =                 493.6086823271492108
    DFT Exchange-Correlation Energy =       0.0000000000000000
    Empirical Dispersion Energy =           0.0000000000000000
    PCM Polarization Energy =               0.0000000000000000
    EFP Energy =                            0.0000000000000000
    Total Energy =                       -348.2205075857755787
    Molecular point group: c1
  Basis Set: CC-PVTZ
  Basis Set:

  -Total Gradient:
     Atom            X                  Y                   Z
    ------   -----------------  -----------------  -----------------
       1        0.000150355107     0.000013679236     0.000074574175
       2       -0.000081134465     0.000045669395    -0.000051668407
       3       -0.001086014788    -0.000810868075    -0.001519742181
       4       -0.000059987100    -0.000048335557     0.000004686792
       5        0.001135957447     0.000594407591     0.001880311013
       6        0.000009863118     0.000013807677     0.000018788702
       7       -0.000024971644     0.000009486513    -0.000024730219
       8        0.001401821710     0.002325169601     0.000775774193
       9        0.000008366776    -0.000001971990     0.000023270283
      10       -0.000009343657    -0.000005315961    -0.000005070257
      11       -0.000008614410    -0.000022576027     0.000007640932
      12       -0.001456569535    -0.002124356627    -0.001116003347
      13        0.000008065645     0.000012514578     0.000000836671
      14       -0.000006970210     0.000004377926    -0.000028912189
      15       -0.000020902976     0.000023279777     0.000011874637
      16        0.000008044087    -0.000003353675    -0.000014842825
      17        0.000007847889    -0.000002700229     0.000005610321
      18       -0.000007260074    -0.000002259173     0.000000440338
      19        0.000005928191    -0.000015434699     0.000001501072
      20        0.000009374492     0.000017607414    -0.000007696036
      21        0.000032731184    -0.000012044667    -0.000008655201
      22       -0.000016586795    -0.000010783028    -0.000027988471

  **** Optimization is complete! (in 9 steps) ****
    Final optimized geometry and variables:
    Molecular point group: c1

    Geometry (in Angstrom), charge = 0, multiplicity = 1:

    O           -2.922720204907    -0.267452908349     0.179484266816
    C           -1.886339263583    -0.208192908737     0.757016256045
    C           -0.630963434943    -0.827444031408     0.176255144103
    C           -1.760825794238     0.497375136387     2.086464541458
    C            0.063589040671     0.142896294732    -0.790434807661
    H           -0.922939048270    -1.719995759125    -0.361157475355
    H            0.045457670532    -1.114492824592     0.974183865672
    C            1.354666291253    -0.431319095341    -1.389764927466
    H           -0.635927968232     0.366308621076    -1.586860628899
    H            0.266589022795     1.084686657316    -0.291767063353
    C            2.616600654995    -0.226749741855    -0.548340653253
    H            1.506720606537    -0.011688051020    -2.379383115009
    H            1.211032085602    -1.495778598428    -1.550837297126
    C            3.134414357415     1.209405542917    -0.531048217850
    H            3.398142423171    -0.870885564370    -0.938192527389
    H            2.436537126473    -0.559337369162     0.470371498865
    H            3.367029014319     1.548566405349    -1.534914066543
    H            4.039128034159     1.285646508569     0.061035000077
    H            2.412524531650     1.899497745201    -0.110346136165
    H           -1.570357489920    -0.237469334945     2.862163465789
    H           -2.671839638362     1.029950077728     2.311994426553
    H           -0.920736479682     1.182540909038     2.081049076984

  Mulliken Charges: (a.u.)
   Center  Symbol    Alpha    Beta     Spin     Total
       1     O     4.17715  4.17715  0.00000 -0.35431
       2     C     2.85726  2.85726  0.00000  0.28549
       3     C     3.09803  3.09803  0.00000 -0.19606
       4     C     3.15584  3.15584  0.00000 -0.31167
       5     C     3.11127  3.11127  0.00000 -0.22254
       6     H     0.43829  0.43829  0.00000  0.12341
       7     H     0.44930  0.44930  0.00000  0.10139
       8     C     3.10521  3.10521  0.00000 -0.21043
       9     H     0.43423  0.43423  0.00000  0.13154
      10     H     0.44904  0.44904  0.00000  0.10191
      11     C     3.09083  3.09083  0.00000 -0.18166
      12     H     0.44413  0.44413  0.00000  0.11175
      13     H     0.44805  0.44805  0.00000  0.10390
      14     C     3.14899  3.14899  0.00000 -0.29798
      15     H     0.44631  0.44631  0.00000  0.10738
      16     H     0.45517  0.45517  0.00000  0.08965
      17     H     0.45322  0.45322  0.00000  0.09357
      18     H     0.44665  0.44665  0.00000  0.10669
      19     H     0.45589  0.45589  0.00000  0.08822
      20     H     0.44831  0.44831  0.00000  0.10339
      21     H     0.43574  0.43574  0.00000  0.12852
      22     H     0.45108  0.45108  0.00000  0.09785

   Total alpha = 32.00000, Total beta = 32.00000, Total charge = -0.00000

*** Psi4 exiting successfully. Buy a developer a beer!
