  ==> Input File <==

--------------------------------------------------------------------------
set {
	reference rhf
	basis 6-31G*
}

set_num_threads( 4 )
memory 2 gb

molecule MOL {
0 1

H	 -2.646374	 -0.642757	 1.268656
C	 -2.083525	 -0.384536	 0.393091
O	 -0.807605	 -0.127164	 0.768327
F	 -2.118945	 -1.383102	 -0.486752
F	 -2.621877	 0.670592	 -0.209486
C	 -0.374708	 -0.640888	 1.977200
C	 0.342857	 0.486521	 2.708096
Cl	 0.715155	 -2.014226	 1.725499
H	 -1.189157	 -0.979209	 2.593631
F	 0.774182	 0.072710	 3.880640
F	 -0.509526	 1.471481	 2.909931
F	 1.359796	 0.951161	 2.024052

	symmetry c1
}
set optking {
	frozen_dihedral = ("
		6 3 2 4
	")
}

ee = optimize('scf')
oeprop('DIPOLE', 'QUADRUPOLE', 'MULLIKEN_CHARGES')
f=open( 'psi4out.xyz', 'w' )
f.write( "12  " )
f.write( str(ee) + "\n" )
f.write( MOL.save_string_xyz() )
f.close()
--------------------------------------------------------------------------

    Molecular point group: c1
  Charge       = 0
  Multiplicity = 1
  Basis Set: 6-31G*
  Basis Set:
  @DF-RHF Final Energy: -1146.30582236490795
    Total Energy =                      -1146.3058223649077263
    Molecular point group: c1
  Basis Set: 6-31G*
  Basis Set:
  Basis Set: 6-31G*
  Basis Set:
  @DF-RHF Final Energy: -1146.30738465230297
    Total Energy =                      -1146.3073846523031989
  Basis Set: 6-31G*
  Basis Set:
  Basis Set: 6-31G*
  Basis Set:
  @DF-RHF Final Energy: -1146.30802807840519
    Total Energy =                      -1146.3080280784045044
  Basis Set: 6-31G*
  Basis Set:
  Basis Set: 6-31G*
  Basis Set:
  @DF-RHF Final Energy: -1146.30827156087821
    Total Energy =                      -1146.3082715608786657
  Basis Set: 6-31G*
  Basis Set:
  @DF-RHF Final Energy: -1146.30862180025406
    Total Energy =                      -1146.3086218002536043
  @DF-RHF Final Energy: -1146.30868991528087
    Total Energy =                      -1146.3086899152808655
  Basis Set: 6-31G*
  Basis Set:
  @DF-RHF Final Energy: -1146.30871493891732
    Total Energy =                      -1146.3087149389175465
  Basis Set: 6-31G*
  Basis Set:
  Basis Set: 6-31G*
  Basis Set:
  @DF-RHF Final Energy: -1146.30871843947398
    Total Energy =                      -1146.3087184394735232
  Basis Set: 6-31G*
  Basis Set:
  Basis Set: 6-31G*
  Basis Set:
  @DF-RHF Final Energy: -1146.30872086827367
    Total Energy =                      -1146.3087208682732125
  Basis Set: 6-31G*
  Basis Set:
  Charge       = 0
  Multiplicity = 1
  Basis Set: 6-31G*
  Basis Set:

    Orbital Energies (a.u.)
    -----------------------

    Doubly Occupied:

       1A   -104.849743     2A    -26.364700     3A    -26.362985
       4A    -26.361726     5A    -26.342249     6A    -26.338765
       7A    -20.651406     8A    -11.533527     9A    -11.490884
      10A    -11.410378    11A    -10.584585    12A     -8.053903
      13A     -8.050409    14A     -8.050297    15A     -1.765935
      16A     -1.714134    17A     -1.662248    18A     -1.660834
      19A     -1.635197    20A     -1.490762    21A     -1.182252
      22A     -1.058576    23A     -0.983797    24A     -0.931841
      25A     -0.861254    26A     -0.858349    27A     -0.849333
      28A     -0.820888    29A     -0.807364    30A     -0.794368
      31A     -0.732485    32A     -0.728239    33A     -0.701310
      34A     -0.690276    35A     -0.682734    36A     -0.677426
      37A     -0.662150    38A     -0.658688    39A     -0.651189
      40A     -0.643888    41A     -0.610637    42A     -0.563256
      43A     -0.524122    44A     -0.483449    45A     -0.476286

  @DF-RHF Final Energy: -1146.30872100688339

   => Energetics <=

    Nuclear Repulsion Energy =            726.7668002188504488
    One-Electron Energy =               -3036.1333937365448037
    Two-Electron Energy =                1163.0578725108121034
    DFT Exchange-Correlation Energy =       0.0000000000000000
    Empirical Dispersion Energy =           0.0000000000000000
    PCM Polarization Energy =               0.0000000000000000
    EFP Energy =                            0.0000000000000000
    Total Energy =                      -1146.3087210068820241
    Molecular point group: c1
  Basis Set: 6-31G*
  Basis Set:

  -Total Gradient:
     Atom            X                  Y                   Z
    ------   -----------------  -----------------  -----------------
       1        0.000004215152     0.000009289834     0.000013640035
       2       -0.000128133087    -0.000392760431     0.000531642770
       3        0.000420272562    -0.000377430124    -0.000554035725
       4       -0.000006360591     0.000408851122    -0.000309048355
       5        0.000017688419     0.000009116520     0.000024011796
       6       -0.000306596279     0.000353230785     0.000291214072
       7        0.000006668927     0.000016661450    -0.000001348912
       8       -0.000001026346     0.000008896811     0.000006316537
       9        0.000010258441    -0.000006699304     0.000006646547
      10        0.000003090728    -0.000007174665    -0.000017971235
      11       -0.000031953734     0.000004512940     0.000011899763
      12        0.000011875827    -0.000026494912    -0.000002967290

  **** Optimization is complete! (in 10 steps) ****
    Final optimized geometry and variables:
    Molecular point group: c1

    Geometry (in Angstrom), charge = 0, multiplicity = 1:

    H           -2.268095790619    -0.775776896208    -0.530694932052
    C           -1.669756746133    -0.221887892802    -1.236548508838
    O           -0.536201812266     0.285694304310    -0.677534412220
    F           -1.358947843949    -1.009069647763    -2.254087347717
    F           -2.365581786608     0.794242984888    -1.710376709332
    C           -0.048691894107    -0.291069563321     0.465881070531
    C            0.852096231888     0.746674322655     1.126527612520
    CL           0.852728575049    -1.788877805910     0.141154451579
    H           -0.834030289493    -0.542606370513     1.162820247595
    F            1.336151641960     0.273037366353     2.255009023730
    F            0.134603639543     1.814944907214     1.407538907416
    F            1.847434489584     1.101275716489     0.354220629283

  Mulliken Charges: (a.u.)
   Center  Symbol    Alpha    Beta     Spin     Total
       1     H     0.42400  0.42400  0.00000  0.15199
       2     C     2.56456  2.56456  0.00000  0.87087
       3     O     4.29650  4.29650  0.00000 -0.59300
       4     F     4.67439  4.67439  0.00000 -0.34878
       5     F     4.67242  4.67242  0.00000 -0.34483
       6     C     3.04018  3.04018  0.00000 -0.08036
       7     C     2.42984  2.42984  0.00000  1.14032
       8    CL     8.50359  8.50359  0.00000 -0.00718
       9     H     0.37878  0.37878  0.00000  0.24244
      10     F     4.67461  4.67461  0.00000 -0.34922
      11     F     4.67523  4.67523  0.00000 -0.35046
      12     F     4.66590  4.66590  0.00000 -0.33181

   Total alpha = 45.00000, Total beta = 45.00000, Total charge = -0.00000
