  ==> Input File <==

--------------------------------------------------------------------------
set {
	reference rhf
	basis cc-pvtz
}

set_num_threads( 4 )
memory 2 gb

molecule MOL {
0 1

O	 1.847685	 1.294399	 -0.000190
C	 1.704209	 0.119472	 -0.000093
C	 0.380337	 -0.600947	 -0.000234
O	 2.715427	 -0.733672	 0.000025
C	 -0.824290	 0.329213	 -0.000115
H	 0.371455	 -1.255476	 -0.865660
H	 0.371410	 -1.255787	 0.864952
C	 -2.146151	 -0.432825	 -0.000068
H	 -0.773936	 0.979158	 -0.866319
H	 -0.773838	 0.979034	 0.866186
C	 -3.366283	 0.483552	 0.000557
H	 -2.189286	 -1.084450	 -0.869996
H	 -2.188867	 -1.085083	 0.869399
C	 -4.191725	 0.382895	 -1.277694
H	 -3.042159	 1.510926	 0.140569
H	 -3.993397	 0.243903	 0.854639
H	 -3.600962	 0.650351	 -2.147579
H	 -5.048858	 1.045428	 -1.244424
H	 -4.560056	 -0.626598	 -1.427664
C	 4.020999	 -0.192556	 0.000019
H	 4.182809	 0.412891	 -0.879449
H	 4.692590	 -1.035653	 0.000152
H	 4.182726	 0.413087	 0.879368

	symmetry c1
}
set optking {
	frozen_dihedral = ("
		15 11 8 12
	")
}

ee = optimize('scf')
oeprop('DIPOLE', 'QUADRUPOLE', 'MULLIKEN_CHARGES')
f=open( 'psi4out.xyz', 'w' )
f.write( "23  " )
f.write( str(ee) + "\n" )
f.write( MOL.save_string_xyz() )
f.close()
--------------------------------------------------------------------------

    Molecular point group: c1
  Charge       = 0
  Multiplicity = 1
  Basis Set: CC-PVTZ
  Basis Set:
  @DF-RHF Final Energy:  -423.12531198913916
    Total Energy =                       -423.1253119891389360
    Molecular point group: c1
  Basis Set: CC-PVTZ
  Basis Set:
  Basis Set: CC-PVTZ
  Basis Set:
  @DF-RHF Final Energy:  -423.12557414524804
    Total Energy =                       -423.1255741452481516
  Basis Set: CC-PVTZ
  Basis Set:
  Basis Set: CC-PVTZ
  Basis Set:
  @DF-RHF Final Energy:  -423.12564401701667
    Total Energy =                       -423.1256440170167252
  Basis Set: CC-PVTZ
  Basis Set:
  Basis Set: CC-PVTZ
  Basis Set:
  @DF-RHF Final Energy:  -423.12552938454178
    Total Energy =                       -423.1255293845426877
  Basis Set: CC-PVTZ
  Basis Set:
  Basis Set: CC-PVTZ
  Basis Set:
  @DF-RHF Final Energy:  -423.12564674060604
    Total Energy =                       -423.1256467406058164
  Basis Set: CC-PVTZ
  Basis Set:
  Charge       = 0
  Multiplicity = 1
  Basis Set: CC-PVTZ
  Basis Set:

    Orbital Energies (a.u.)
    -----------------------

    Doubly Occupied:

       1A    -20.596318     2A    -20.534130     3A    -11.364617
       4A    -11.278488     5A    -11.233578     6A    -11.217631
       7A    -11.215600     8A    -11.214265     9A    -11.207850
      10A     -1.472217    11A     -1.365789    12A     -1.093227
      13A     -1.043051    14A     -0.987580    15A     -0.932071
      16A     -0.846811    17A     -0.793919    18A     -0.769598
      19A     -0.698974    20A     -0.686589    21A     -0.675848
      22A     -0.644938    23A     -0.614667    24A     -0.599295
      25A     -0.582071    26A     -0.565839    27A     -0.541876
      28A     -0.528374    29A     -0.523187    30A     -0.503338
      31A     -0.495134    32A     -0.468824    33A     -0.462824
      34A     -0.461045    35A     -0.456267    36A     -0.438154

  @DF-RHF Final Energy:  -423.12564695432701

   => Energetics <=

    Nuclear Repulsion Energy =            454.5880108424656214
    One-Electron Energy =               -1477.1993457821261018
    Two-Electron Energy =                 599.4856879853334704
    DFT Exchange-Correlation Energy =       0.0000000000000000
    Empirical Dispersion Energy =           0.0000000000000000
    PCM Polarization Energy =               0.0000000000000000
    EFP Energy =                            0.0000000000000000
    Total Energy =                       -423.1256469543270669
    Molecular point group: c1
  Basis Set: CC-PVTZ
  Basis Set:

  -Total Gradient:
     Atom            X                  Y                   Z
    ------   -----------------  -----------------  -----------------
       1        0.000002499808    -0.000005341743    -0.000007272373
       2        0.000002309195    -0.000006852274     0.000022942604
       3        0.000000892039    -0.000005323446    -0.000026425980
       4        0.000006594174     0.000007096888    -0.000010772122
       5       -0.000033504390    -0.000013611363     0.000027126501
       6        0.000002852288    -0.000003236749     0.000004499673
       7        0.000002140633     0.000006240392     0.000001054832
       8       -0.000786941203    -0.001027818649     0.000557849767
       9       -0.000005772917     0.000004446271     0.000003665959
      10        0.000000792551     0.000001944210    -0.000001120726
      11       -0.000005288826     0.000025158285     0.001398597138
      12        0.000670091929     0.000879378069    -0.000700602185
      13       -0.000002880521     0.000002427817     0.000003253556
      14        0.000006613536     0.000001003838     0.000024362746
      15        0.000133916788     0.000140435132    -0.001301143618
      16        0.000002710372    -0.000003382291     0.000000870121
      17       -0.000000083973    -0.000003665999     0.000004559356
      18       -0.000005592569     0.000003458384    -0.000000189987
      19        0.000001734607    -0.000000824429    -0.000002826493
      20        0.000005525861    -0.000001962957     0.000002453917
      21       -0.000000339910    -0.000000206361    -0.000000085566
      22        0.000001509964     0.000000796693    -0.000000335680
      23        0.000000220570    -0.000000159714    -0.000000461436

  **** Optimization is complete! (in 6 steps) ****
    Final optimized geometry and variables:
    Molecular point group: c1

    Geometry (in Angstrom), charge = 0, multiplicity = 1:

    O            1.787865312877     1.218320341396     0.151365717156
    C            1.647051491932     0.043055782710     0.146665382634
    C            0.324781008811    -0.680264706766     0.151632620395
    O            2.660275987852    -0.807672771201     0.135641118652
    C           -0.881585843217     0.246969079055     0.166835866871
    H            0.311048240380    -1.329389559564    -0.717830215833
    H            0.323401663803    -1.340700320317     1.012684966219
    C           -2.203885876405    -0.517760596096     0.173634198149
    H           -0.840929124634     0.902135921375    -0.696423406565
    H           -0.826459344657     0.892374052608     1.035996496307
    C           -3.438639904181     0.405973559197     0.149246052657
    H           -2.228114833943    -1.176279975719    -0.690124899643
    H           -2.236638133553    -1.161656749217     1.046843320688
    C           -4.237141448830     0.314928626286    -1.148654978497
    H           -3.122160232786     1.434607482254     0.287268888657
    H           -4.092270226234     0.174465246549     0.982653951517
    H           -3.619112439721     0.564359848746    -2.005180064103
    H           -5.080436141696     0.996189984929    -1.140166744672
    H           -4.621992236355    -0.687832961108    -1.301414381688
    C            3.964496758641    -0.263515349366     0.129451866534
    H            4.118988108067     0.346683929801    -0.748062891852
    H            4.638087119315    -1.104991749901     0.120796406393
    H            4.130898459093     0.338138908020     1.010679527018

  Mulliken Charges: (a.u.)
   Center  Symbol    Alpha    Beta     Spin     Total
       1     O     4.19698  4.19698  0.00000 -0.39397
       2     C     2.80608  2.80608  0.00000  0.38784
       3     C     3.10305  3.10305  0.00000 -0.20609
       4     O     4.14649  4.14649  0.00000 -0.29298
       5     C     3.08409  3.08409  0.00000 -0.16818
       6     H     0.43978  0.43978  0.00000  0.12044
       7     H     0.44017  0.44017  0.00000  0.11967
       8     C     3.09773  3.09773  0.00000 -0.19546
       9     H     0.44587  0.44587  0.00000  0.10826
      10     H     0.44555  0.44555  0.00000  0.10891
      11     C     3.09045  3.09045  0.00000 -0.18090
      12     H     0.45578  0.45578  0.00000  0.08843
      13     H     0.44905  0.44905  0.00000  0.10189
      14     C     3.14722  3.14722  0.00000 -0.29444
      15     H     0.45194  0.45194  0.00000  0.09613
      16     H     0.44879  0.44879  0.00000  0.10241
      17     H     0.45498  0.45498  0.00000  0.09004
      18     H     0.44907  0.44907  0.00000  0.10185
      19     H     0.45516  0.45516  0.00000  0.08968
      20     C     3.03771  3.03771  0.00000 -0.07541
      21     H     0.45436  0.45436  0.00000  0.09128
      22     H     0.44535  0.44535  0.00000  0.10931
      23     H     0.45435  0.45435  0.00000  0.09130

   Total alpha = 36.00000, Total beta = 36.00000, Total charge = -0.00000
