  ==> Input File <==

--------------------------------------------------------------------------
set {
	reference rhf
	basis cc-pvtz
}

set_num_threads( 4 )
memory 2 gb

molecule MOL {
0 1

H	 3.083659	 -1.378387	 0.000000
O	 2.179005	 -1.633391	 0.000000
C	 1.366950	 -0.558201	 0.000000
C	 0.758182	 -0.089934	 1.154473
C	 1.148894	 0.082347	 -1.202568
H	 0.929149	 -0.590130	 2.090424
C	 -0.065973	 1.016040	 1.104018
H	 1.617605	 -0.276871	 -2.095942
C	 0.321469	 1.190050	 -1.244145
H	 -0.531568	 1.369315	 2.003597
C	 -0.289295	 1.662517	 -0.094987
C	 0.078365	 1.889065	 -2.533198
H	 -0.929659	 2.522768	 -0.137323
O	 0.547827	 1.571247	 -3.571474
H	 -0.589380	 2.753454	 -2.465765

	symmetry c1
}
set optking {
	frozen_dihedral = ("
		4 3 2 1
	")
}

ee = optimize('scf')
oeprop('DIPOLE', 'QUADRUPOLE', 'MULLIKEN_CHARGES')
f=open( 'psi4out.xyz', 'w' )
f.write( "15  " )
f.write( str(ee) + "\n" )
f.write( MOL.save_string_xyz() )
f.close()
--------------------------------------------------------------------------

    Molecular point group: c1
  Charge       = 0
  Multiplicity = 1
  Basis Set: CC-PVTZ
  Basis Set:
  @DF-RHF Final Energy:  -418.43444310207718
    Total Energy =                       -418.4344431020774664
    Molecular point group: c1
  Basis Set: CC-PVTZ
  Basis Set:
  Basis Set: CC-PVTZ
  Basis Set:
  @DF-RHF Final Energy:  -418.43540094380478
    Total Energy =                       -418.4354009438048934
  Basis Set: CC-PVTZ
  Basis Set:
  Basis Set: CC-PVTZ
  Basis Set:
  @DF-RHF Final Energy:  -418.43443491728004
    Total Energy =                       -418.4344349172798729
  Basis Set: CC-PVTZ
  Basis Set:
  Basis Set: CC-PVTZ
  Basis Set:
  @DF-RHF Final Energy:  -418.43550051715056
    Total Energy =                       -418.4355005171506718
  Basis Set: CC-PVTZ
  Basis Set:
  Basis Set: CC-PVTZ
  Basis Set:
  @DF-RHF Final Energy:  -418.43551010385232
    Total Energy =                       -418.4355101038516977
  Basis Set: CC-PVTZ
  Basis Set:
  Charge       = 0
  Multiplicity = 1
  Basis Set: CC-PVTZ
  Basis Set:

    Orbital Energies (a.u.)
    -----------------------

    Doubly Occupied:

       1A    -20.581864     2A    -20.555488     3A    -11.329309
       4A    -11.303194     5A    -11.251306     6A    -11.250098
       7A    -11.248766     8A    -11.246834     9A    -11.242933
      10A     -1.411526    11A     -1.409669    12A     -1.175332
      13A     -1.052814    14A     -1.030237    15A     -0.900711
      16A     -0.851214    17A     -0.803331    18A     -0.748608
      19A     -0.702049    20A     -0.683135    21A     -0.658847
      22A     -0.638555    23A     -0.623267    24A     -0.610818
      25A     -0.562657    26A     -0.549365    27A     -0.535035
      28A     -0.504577    29A     -0.492225    30A     -0.427718
      31A     -0.357184    32A     -0.346867

  @DF-RHF Final Energy:  -418.43551184755768

   => Energetics <=

    Nuclear Repulsion Energy =            403.5448255077832300
    One-Electron Energy =               -1369.7896084455685468
    Two-Electron Energy =                 547.8092710902276394
    DFT Exchange-Correlation Energy =       0.0000000000000000
    Empirical Dispersion Energy =           0.0000000000000000
    PCM Polarization Energy =               0.0000000000000000
    EFP Energy =                            0.0000000000000000
    Total Energy =                       -418.4355118475576774
    Molecular point group: c1
  Basis Set: CC-PVTZ
  Basis Set:

  -Total Gradient:
     Atom            X                  Y                   Z
    ------   -----------------  -----------------  -----------------
       1       -0.000041207198     0.000038659236     0.001036451700
       2        0.000402595237     0.000085045595    -0.001278740766
       3       -0.001029367565    -0.000490639479     0.000326634222
       4        0.000717812224     0.000272420254     0.000070041862
       5       -0.000014366203     0.000014120113    -0.000107897531
       6        0.000008259691    -0.000023911372    -0.000000942327
       7       -0.000070120035     0.000189467548    -0.000121137507
       8       -0.000021494025     0.000012813251     0.000014444890
       9        0.000112965596    -0.000071164262    -0.000078980639
      10        0.000014468141    -0.000015273975    -0.000010079543
      11       -0.000049513741    -0.000054263534     0.000178913765
      12       -0.000031540185     0.000043973813     0.000018263374
      13       -0.000002206357     0.000007483504    -0.000046208481
      14        0.000007186856    -0.000011809197     0.000005975967
      15       -0.000003472436     0.000003078501    -0.000006738987

  **** Optimization is complete! (in 6 steps) ****
    Final optimized geometry and variables:
    Molecular point group: c1

    Geometry (in Angstrom), charge = 0, multiplicity = 1:

    H            2.365500504679    -1.960853171393     0.818704842526
    O            1.455209914895    -2.198967943321     0.791726303050
    C            0.665552094314    -1.086865896703     0.736124992297
    C            0.059361439354    -0.627149357899     1.895178545094
    C            0.438241805429    -0.451073621320    -0.462225542259
    H            0.243031187525    -1.145265643036     2.816267520389
    C           -0.773555681994     0.470980075015     1.852179471051
    H            0.894157708386    -0.810560532256    -1.362935822156
    C           -0.395951634245     0.657554710554    -0.502650415590
    H           -1.242227857265     0.820922994008     2.751283326372
    C           -1.001907870651     1.117788373798     0.650972005551
    C           -0.647106871433     1.356885266084    -1.787536530159
    H           -1.649745868076     1.973320038495     0.612811392143
    O           -0.167999023348     1.051511302795    -2.825656317675
    H           -1.329518695489     2.209962785177    -1.718758214711

  Mulliken Charges: (a.u.)
   Center  Symbol    Alpha    Beta     Spin     Total
       1     H     0.38677  0.38677  0.00000  0.22647
       2     O     4.18872  4.18872  0.00000 -0.37743
       3     C     2.86106  2.86106  0.00000  0.27788
       4     C     3.10156  3.10156  0.00000 -0.20312
       5     C     3.12339  3.12339  0.00000 -0.24677
       6     H     0.41300  0.41300  0.00000  0.17400
       7     C     3.06685  3.06685  0.00000 -0.13371
       8     H     0.40318  0.40318  0.00000  0.19364
       9     C     2.98115  2.98115  0.00000  0.03769
      10     H     0.41858  0.41858  0.00000  0.16283
      11     C     3.09741  3.09741  0.00000 -0.19482
      12     C     2.90875  2.90875  0.00000  0.18250
      13     H     0.42232  0.42232  0.00000  0.15535
      14     O     4.17096  4.17096  0.00000 -0.34192
      15     H     0.45630  0.45630  0.00000  0.08741

   Total alpha = 32.00000, Total beta = 32.00000, Total charge =  0.00000
