  ==> Input File <==

--------------------------------------------------------------------------
set {
	reference rhf
	basis 6-31G*
}

set_num_threads( 1 )
memory 2 gb

molecule MOL {
0 1

H	 -3.407059	 -1.043082	 0.000000
O	 -3.119761	 -0.140267	 0.000000
C	 -1.777559	 -0.059267	 0.000000
C	 -1.107319	 1.143210	 0.204525
C	 -1.067087	 -1.233740	 -0.214262
H	 -1.665549	 2.048942	 0.369869
C	 0.271511	 1.166328	 0.193948
H	 -1.606765	 -2.148566	 -0.369545
C	 0.311620	 -1.194481	 -0.221996
H	 0.801607	 2.086998	 0.350362
C	 0.997427	 -0.001089	 -0.019236
H	 0.862669	 -2.104345	 -0.387991
C	 2.473295	 0.025398	 -0.030250
O	 3.136305	 1.002124	 0.134618
H	 2.951281	 -0.944047	 -0.205956

	symmetry c1
}
set optking {
	frozen_dihedral = ("
		7 11 13 14
	")
}

ee = energy('scf')
oeprop('DIPOLE', 'QUADRUPOLE', 'MULLIKEN_CHARGES')
f=open( 'psi4out.xyz', 'w' )
f.write( "15  " )
f.write( str(ee) + "\n" )
f.write( MOL.save_string_xyz() )
f.close()
--------------------------------------------------------------------------

    Molecular point group: c1

    Geometry (in Angstrom), charge = 0, multiplicity = 1:

       Center              X                  Y                   Z               Mass
    ------------   -----------------  -----------------  -----------------  -----------------
           H         -3.402202352998    -1.123558332832    -0.007053503830     1.007825032070
           O         -3.114904352998    -0.220743332832    -0.007053503830    15.994914619560
           C         -1.772702352998    -0.139743332832    -0.007053503830    12.000000000000
           C         -1.102462352998     1.062733667168     0.197471496170    12.000000000000
           C         -1.062230352998    -1.314216332832    -0.221315503830    12.000000000000
           H         -1.660692352998     1.968465667168     0.362815496170     1.007825032070
           C          0.276367647002     1.085851667168     0.186894496170    12.000000000000
           H         -1.601908352998    -2.229042332832    -0.376598503830     1.007825032070
           C          0.316476647002    -1.274957332832    -0.229049503830    12.000000000000
           H          0.806463647002     2.006521667168     0.343308496170     1.007825032070
           C          1.002283647002    -0.081565332832    -0.026289503830    12.000000000000
           H          0.867525647002    -2.184821332832    -0.395044503830     1.007825032070
           C          2.478151647002    -0.055078332832    -0.037303503830    12.000000000000
           O          3.141161647002     0.921647667168     0.127564496170    15.994914619560
           H          2.956137647002    -1.024523332832    -0.213009503830     1.007825032070

  Charge       = 0
  Multiplicity = 1
  Basis Set: 6-31G*
  Basis Set:

    Orbital Energies (a.u.)
    -----------------------

    Doubly Occupied:

       1A    -20.609250     2A    -20.556205     3A    -11.328423
       4A    -11.324730     5A    -11.263410     6A    -11.255675
       7A    -11.244015     8A    -11.240902     9A    -11.239342
      10A     -1.431822    11A     -1.397403    12A     -1.171192
      13A     -1.042827    14A     -1.038083    15A     -0.893355
      16A     -0.859147    17A     -0.804364    18A     -0.757260
      19A     -0.697823    20A     -0.686949    21A     -0.639012
      22A     -0.626208    23A     -0.612178    24A     -0.608389
      25A     -0.581683    26A     -0.554258    27A     -0.549548
      28A     -0.506237    29A     -0.484114    30A     -0.418848
      31A     -0.358378    32A     -0.327505

  @DF-RHF Final Energy:  -418.28747460082866

   => Energetics <=

    Nuclear Repulsion Energy =            401.4314237776200116
    One-Electron Energy =               -1365.2207710739644426
    Two-Electron Energy =                 545.5018726955155444
    DFT Exchange-Correlation Energy =       0.0000000000000000
    Empirical Dispersion Energy =           0.0000000000000000
    PCM Polarization Energy =               0.0000000000000000
    EFP Energy =                            0.0000000000000000
    Total Energy =                       -418.2874746008288867

  Mulliken Charges: (a.u.)
   Center  Symbol    Alpha    Beta     Spin     Total
       1     H     0.26693  0.26693  0.00000  0.46614
       2     O     4.37595  4.37595  0.00000 -0.75190
       3     C     2.77581  2.77581  0.00000  0.44837
       4     C     3.12945  3.12945  0.00000 -0.25889
       5     C     3.15375  3.15375  0.00000 -0.30750
       6     H     0.38625  0.38625  0.00000  0.22751
       7     C     3.07822  3.07822  0.00000 -0.15645
       8     H     0.39945  0.39945  0.00000  0.20111
       9     C     3.09114  3.09114  0.00000 -0.18228
      10     H     0.37360  0.37360  0.00000  0.25280
      11     C     3.06909  3.06909  0.00000 -0.13818
      12     H     0.39049  0.39049  0.00000  0.21903
      13     C     2.83026  2.83026  0.00000  0.33949
      14     O     4.25424  4.25424  0.00000 -0.50847
      15     H     0.42538  0.42538  0.00000  0.14923

   Total alpha = 32.00000, Total beta = 32.00000, Total charge =  0.00000
