  ==> Input File <==

--------------------------------------------------------------------------
set {
	reference rhf
	basis 6-31G*
}

set_num_threads( 4 )
memory 2 gb

molecule MOL {
0 1

O	 -1.997098	 0.312058	 0.863036
C	 -1.083277	 0.139568	 0.115197
C	 0.323299	 -0.082943	 0.642902
C	 -1.270535	 0.158363	 -1.385606
C	 1.355627	 -0.005344	 -0.493127
H	 0.396251	 -1.044647	 1.143147
H	 0.528637	 0.693580	 1.371677
C	 2.786168	 -0.195604	 0.007473
H	 1.132807	 -0.760304	 -1.243899
H	 1.259610	 0.958506	 -0.981915
H	 3.495561	 -0.130713	 -0.811210
H	 2.912696	 -1.165395	 0.480041
H	 3.049284	 0.565503	 0.735850
H	 -0.562031	 0.835488	 -1.853787
H	 -2.280511	 0.457743	 -1.628620
H	 -1.081171	 -0.832760	 -1.789364

	symmetry c1
}
set optking {
	frozen_dihedral = ("
		4 2 3 5
	")
}

ee = optimize('scf')
oeprop('DIPOLE', 'QUADRUPOLE', 'MULLIKEN_CHARGES')
f=open( 'psi4out.xyz', 'w' )
f.write( "16  " )
f.write( str(ee) + "\n" )
f.write( MOL.save_string_xyz() )
f.close()
--------------------------------------------------------------------------

    Molecular point group: c1
  Charge       = 0
  Multiplicity = 1
  Basis Set: 6-31G*
  Basis Set:
  @DF-RHF Final Energy:  -270.02264633819345
    Total Energy =                       -270.0226463381933968
    Molecular point group: c1
  Basis Set: 6-31G*
  Basis Set:
  Basis Set: 6-31G*
  Basis Set:
  @DF-RHF Final Energy:  -270.02536426807490
    Total Energy =                       -270.0253642680750090
  Basis Set: 6-31G*
  Basis Set:
  Basis Set: 6-31G*
  Basis Set:
  @DF-RHF Final Energy:  -270.02755017311279
    Total Energy =                       -270.0275501731128429
  Basis Set: 6-31G*
  Basis Set:
  Basis Set: 6-31G*
  Basis Set:
  @DF-RHF Final Energy:  -270.02781161090826
    Total Energy =                       -270.0278116109083726
  Basis Set: 6-31G*
  Basis Set:
  @DF-RHF Final Energy:  -270.02772976433948
    Total Energy =                       -270.0277297643393695
  @DF-RHF Final Energy:  -270.02792084986618
    Total Energy =                       -270.0279208498660637
  Basis Set: 6-31G*
  Basis Set:
  @DF-RHF Final Energy:  -270.02793198378572
    Total Energy =                       -270.0279319837857201
  Basis Set: 6-31G*
  Basis Set:
  Basis Set: 6-31G*
  Basis Set:
  @DF-RHF Final Energy:  -270.02793617941552
    Total Energy =                       -270.0279361794155193
  Basis Set: 6-31G*
  Basis Set:
  Basis Set: 6-31G*
  Basis Set:
  @DF-RHF Final Energy:  -270.02793795630635
    Total Energy =                       -270.0279379563062889
  Basis Set: 6-31G*
  Basis Set:
  Charge       = 0
  Multiplicity = 1
  Basis Set: 6-31G*
  Basis Set:

    Orbital Energies (a.u.)
    -----------------------

    Doubly Occupied:

       1A    -20.545612     2A    -11.326486     3A    -11.233863
       4A    -11.231424     5A    -11.228059     6A    -11.221385
       7A     -1.392846     8A     -1.084875     9A     -1.008742
      10A     -0.952347    11A     -0.834929    12A     -0.733398
      13A     -0.656079    14A     -0.652515    15A     -0.623831
      16A     -0.597874    17A     -0.576833    18A     -0.553633
      19A     -0.539181    20A     -0.520811    21A     -0.503988
      22A     -0.490428    23A     -0.468544    24A     -0.397840

  @DF-RHF Final Energy:  -270.02793991305833

   => Energetics <=

    Nuclear Repulsion Energy =            236.5692280703815413
    One-Electron Energy =                -834.4432848275073411
    Two-Electron Energy =                 327.8461168440674669
    DFT Exchange-Correlation Energy =       0.0000000000000000
    Empirical Dispersion Energy =           0.0000000000000000
    PCM Polarization Energy =               0.0000000000000000
    EFP Energy =                            0.0000000000000000
    Total Energy =                       -270.0279399130583329
    Molecular point group: c1
  Basis Set: 6-31G*
  Basis Set:

  -Total Gradient:
     Atom            X                  Y                   Z
    ------   -----------------  -----------------  -----------------
       1        0.000022913970     0.000006789500    -0.000011452943
       2       -0.000245020589    -0.001464376764    -0.000003305263
       3        0.000174630079     0.001357091956     0.000118545674
       4        0.000116108860     0.000781411130    -0.000024727457
       5       -0.000059498295    -0.000634504566    -0.000077177053
       6       -0.000020989337     0.000003627998     0.000004826483
       7        0.000019865440    -0.000001067342    -0.000009885333
       8       -0.000007580180    -0.000021980871    -0.000006444979
       9       -0.000004562728    -0.000001538978     0.000020169685
      10        0.000000058419     0.000007117482    -0.000018833772
      11        0.000001032851    -0.000002120830     0.000001328010
      12        0.000008955070    -0.000003149698     0.000007325787
      13       -0.000007373985     0.000000466158    -0.000006313990
      14       -0.000002891454    -0.000011520522    -0.000012782926
      15       -0.000003821097    -0.000006523349    -0.000002179403
      16        0.000008172981    -0.000009721304     0.000020907480

  **** Optimization is complete! (in 10 steps) ****
    Final optimized geometry and variables:
    Molecular point group: c1

    Geometry (in Angstrom), charge = 0, multiplicity = 1:

    O           -1.982214091072     0.248457526567     0.956314265131
    C           -1.127112467741     0.102948496563     0.136494363848
    C            0.314740217209    -0.099614728457     0.590943330519
    C           -1.460475475170     0.104202442860    -1.339750269509
    C            1.416476491164    -0.064081160587    -0.469923933120
    H            0.332418365989    -1.058643176423     1.104968514858
    H            0.500242614603     0.647176442565     1.356744519499
    C            2.800054097397    -0.285518079252     0.141125993234
    H            1.235395750776    -0.824551394236    -1.224150786553
    H            1.405316344360     0.892253333920    -0.986446118609
    H            3.571853322205    -0.257042885796    -0.621081932520
    H            2.859504078399    -1.249475122898     0.637919897442
    H            3.030933882377     0.479724294848     0.876180602967
    H           -0.927582143233     0.896731543076    -1.855292832149
    H           -2.525119806471     0.246959783663    -1.459842931154
    H           -1.166885189871    -0.834131051066    -1.800758626719

  Mulliken Charges: (a.u.)
   Center  Symbol    Alpha    Beta     Spin     Total
       1     O     4.26333  4.26333  0.00000 -0.52665
       2     C     2.73727  2.73727  0.00000  0.52545
       3     C     3.20348  3.20348  0.00000 -0.40696
       4     C     3.29192  3.29192  0.00000 -0.58383
       5     C     3.16154  3.16154  0.00000 -0.32309
       6     H     0.40187  0.40187  0.00000  0.19626
       7     H     0.39936  0.39936  0.00000  0.20128
       8     C     3.24025  3.24025  0.00000 -0.48050
       9     H     0.41895  0.41895  0.00000  0.16211
      10     H     0.41867  0.41867  0.00000  0.16266
      11     H     0.41561  0.41561  0.00000  0.16879
      12     H     0.41895  0.41895  0.00000  0.16210
      13     H     0.41820  0.41820  0.00000  0.16359
      14     H     0.40720  0.40720  0.00000  0.18561
      15     H     0.39534  0.39534  0.00000  0.20932
      16     H     0.40807  0.40807  0.00000  0.18387

   Total alpha = 24.00000, Total beta = 24.00000, Total charge =  0.00000
