  ==> Input File <==

--------------------------------------------------------------------------
set {
	reference rhf
	basis cc-pvtz
}

set_num_threads( 4 )
memory 2 gb

molecule MOL {
0 1

H	 -2.172099	 -1.169468	 -0.198404
O	 -2.346257	 -0.289210	 0.080372
C	 -1.183935	 0.486039	 -0.009831
C	 0.062853	 -0.375310	 0.027457
H	 -1.178881	 1.094526	 -0.908634
H	 -1.184406	 1.155156	 0.838676
O	 1.172093	 0.457955	 -0.054438
H	 0.052476	 -1.081302	 -0.804627
H	 0.076323	 -0.955658	 0.947560
C	 2.395478	 -0.199028	 -0.000366
H	 2.505946	 -0.901710	 -0.823354
H	 3.174616	 0.545641	 -0.071768
H	 2.513730	 -0.742241	 0.934223

	symmetry c1
}
set optking {
	frozen_dihedral = ("
		1 2 3 5
	")
}

ee = optimize('scf')
oeprop('DIPOLE', 'QUADRUPOLE', 'MULLIKEN_CHARGES')
f=open( 'psi4out.xyz', 'w' )
f.write( "13  " )
f.write( str(ee) + "\n" )
f.write( MOL.save_string_xyz() )
f.close()
--------------------------------------------------------------------------

    Molecular point group: c1
  Charge       = 0
  Multiplicity = 1
  Basis Set: CC-PVTZ
  Basis Set:
  @DF-RHF Final Energy:  -268.05950191685190
    Total Energy =                       -268.0595019168520139
    Molecular point group: c1
  Basis Set: CC-PVTZ
  Basis Set:
  Basis Set: CC-PVTZ
  Basis Set:
  @DF-RHF Final Energy:  -268.05961866999905
    Total Energy =                       -268.0596186699991677
  Basis Set: CC-PVTZ
  Basis Set:
  Basis Set: CC-PVTZ
  Basis Set:
  @DF-RHF Final Energy:  -268.05964510917727
    Total Energy =                       -268.0596451091773247
  Basis Set: CC-PVTZ
  Basis Set:
  Charge       = 0
  Multiplicity = 1
  Basis Set: CC-PVTZ
  Basis Set:

    Orbital Energies (a.u.)
    -----------------------

    Doubly Occupied:

       1A    -20.560881     2A    -20.551040     3A    -11.277460
       4A    -11.271373     5A    -11.267038     6A     -1.396958
       7A     -1.367691     8A     -1.022668     9A     -0.916378
      10A     -0.851677    11A     -0.700004    12A     -0.686132
      13A     -0.671812    14A     -0.629008    15A     -0.607407
      16A     -0.581068    17A     -0.546428    18A     -0.499731
      19A     -0.474477    20A     -0.443147    21A     -0.429455

  @DF-RHF Final Energy:  -268.05964542578636

   => Energetics <=

    Nuclear Repulsion Energy =            190.6721309873881580
    One-Electron Energy =                -743.9598923190998221
    Two-Electron Energy =                 285.2281159059252218
    DFT Exchange-Correlation Energy =       0.0000000000000000
    Empirical Dispersion Energy =           0.0000000000000000
    PCM Polarization Energy =               0.0000000000000000
    EFP Energy =                            0.0000000000000000
    Total Energy =                       -268.0596454257864139
    Molecular point group: c1
  Basis Set: CC-PVTZ
  Basis Set:

  -Total Gradient:
     Atom            X                  Y                   Z
    ------   -----------------  -----------------  -----------------
       1        0.000541124363    -0.000614394704     0.002241004071
       2       -0.000962804509     0.001142745037    -0.002504728562
       3        0.001321581646    -0.002086142982    -0.000754583891
       4       -0.000062666121    -0.000010355917     0.000034718867
       5       -0.000906191273     0.001522045175     0.001028639150
       6        0.000007400463     0.000005635124     0.000000690889
       7        0.000049773026    -0.000005042793    -0.000018444454
       8        0.000009914729     0.000015695726    -0.000000908834
       9       -0.000017271518     0.000003862836    -0.000014988538
      10       -0.000007266181     0.000045822515    -0.000014727443
      11        0.000008438105    -0.000007597673     0.000001194629
      12        0.000024857784    -0.000010910254     0.000000354289
      13       -0.000006890514    -0.000001362091     0.000001779827

  **** Optimization is complete! (in 4 steps) ****
    Final optimized geometry and variables:
    Molecular point group: c1

    Geometry (in Angstrom), charge = 0, multiplicity = 1:

    H           -2.204908340524    -1.161898190997    -0.217482222195
    O           -2.359167133685    -0.278746029890     0.062767897674
    C           -1.186175302432     0.485404084356    -0.015364864390
    C            0.062985809685    -0.369964346549     0.027415533332
    H           -1.187618073049     1.090411665579    -0.915583817030
    H           -1.180695301557     1.163064769900     0.828018998481
    O            1.169105910025     0.463303157656    -0.054778461955
    H            0.056229794815    -1.077431635290    -0.804689591132
    H            0.080144823847    -0.948213878731     0.950617727303
    C            2.394215190507    -0.192612366602    -0.009682192318
    H            2.501897318577    -0.890156785525    -0.837174080565
    H            3.170975874454     0.554229452270    -0.080426974189
    H            2.517223893270    -0.740179674511     0.921720771281

  Mulliken Charges: (a.u.)
   Center  Symbol    Alpha    Beta     Spin     Total
       1     H     0.39399  0.39399  0.00000  0.21202
       2     O     4.20318  4.20318  0.00000 -0.40635
       3     C     2.95370  2.95370  0.00000  0.09259
       4     C     2.97642  2.97642  0.00000  0.04716
       5     H     0.46941  0.46941  0.00000  0.06118
       6     H     0.46173  0.46173  0.00000  0.07654
       7     O     4.17187  4.17187  0.00000 -0.34373
       8     H     0.48114  0.48114  0.00000  0.03772
       9     H     0.46999  0.46999  0.00000  0.06002
      10     C     3.03326  3.03326  0.00000 -0.06652
      11     H     0.47067  0.47067  0.00000  0.05866
      12     H     0.44474  0.44474  0.00000  0.11053
      13     H     0.46990  0.46990  0.00000  0.06019

   Total alpha = 21.00000, Total beta = 21.00000, Total charge = -0.00000
