  ==> Input File <==

--------------------------------------------------------------------------
set {
	reference rhf
	basis 6-31G*
}

set_num_threads( 1 )
memory 2 gb

molecule MOL {
0 1

O	 2.698531	 0.336847	 -1.538709
C	 2.394770	 -0.308526	 -0.587771
C	 1.245376	 -0.013843	 0.345420
O	 3.047155	 -1.402500	 -0.214617
C	 0.455112	 1.231400	 -0.050772
H	 0.620979	 -0.900778	 0.371269
H	 1.659059	 0.087187	 1.345597
C	 -0.998893	 1.219485	 0.433193
H	 0.482531	 1.345121	 -1.130325
H	 0.957290	 2.103070	 0.354729
C	 -1.883438	 0.145884	 -0.207175
H	 -1.431207	 2.195402	 0.224832
H	 -1.019646	 1.105716	 1.516076
C	 -3.347647	 0.245583	 0.225435
H	 -1.822183	 0.231698	 -1.291012
H	 -1.510341	 -0.844814	 0.042401
C	 -4.239992	 -0.825570	 -0.404234
H	 -3.732888	 1.230466	 -0.033079
H	 -3.408585	 0.170602	 1.310038
C	 -5.701275	 -0.716658	 0.029921
H	 -4.179496	 -0.752714	 -1.488058
H	 -3.859041	 -1.810759	 -0.143352
H	 -6.308102	 -1.488908	 -0.432678
H	 -6.122175	 0.245478	 -0.248167
H	 -5.799072	 -0.820114	 1.106957
C	 4.154033	 -1.792229	 -1.006966
H	 3.842430	 -1.995812	 -2.021343
H	 4.544256	 -2.687693	 -0.548843
H	 4.907031	 -1.017337	 -1.015540

	symmetry c1
}
set optking {
	frozen_dihedral = ("
		21 17 14 11,
		17 14 11 15,
		15 11 8 5,
		11 8 5 9,
		2 4 26 27,
		1 2 4 26,
		6 3 2 1
	")
}

ee = energy('scf')
oeprop('DIPOLE', 'QUADRUPOLE', 'MULLIKEN_CHARGES')
f=open( 'psi4out.xyz', 'w' )
f.write( "29  " )
f.write( str(ee) + "\n" )
f.write( MOL.save_string_xyz() )
f.close()
--------------------------------------------------------------------------

    Molecular point group: c1

    Geometry (in Angstrom), charge = 0, multiplicity = 1:

       Center              X                  Y                   Z               Mass
    ------------   -----------------  -----------------  -----------------  -----------------
           O          2.859881116670     0.529416264098    -1.255294891581    15.994914619560
           C          2.556120116670    -0.115956735902    -0.304356891581    12.000000000000
           C          1.406726116670     0.178726264098     0.628834108419    12.000000000000
           O          3.208505116670    -1.209930735902     0.068797108419    15.994914619560
           C          0.616462116670     1.423969264098     0.232642108419    12.000000000000
           H          0.782329116670    -0.708208735902     0.654683108419     1.007825032070
           H          1.820409116670     0.279756264098     1.629011108419     1.007825032070
           C         -0.837542883330     1.412054264098     0.716607108419    12.000000000000
           H          0.643881116670     1.537690264098    -0.846910891581     1.007825032070
           H          1.118640116670     2.295639264098     0.638143108419     1.007825032070
           C         -1.722087883330     0.338453264098     0.076239108419    12.000000000000
           H         -1.269856883330     2.387971264098     0.508246108419     1.007825032070
           H         -0.858295883330     1.298285264098     1.799490108419     1.007825032070
           C         -3.186296883330     0.438152264098     0.508849108419    12.000000000000
           H         -1.660832883330     0.424267264098    -1.007597891581     1.007825032070
           H         -1.348990883330    -0.652244735902     0.325815108419     1.007825032070
           C         -4.078641883330    -0.633000735902    -0.120819891581    12.000000000000
           H         -3.571537883330     1.423035264098     0.250335108419     1.007825032070
           H         -3.247234883330     0.363171264098     1.593452108419     1.007825032070
           C         -5.539924883330    -0.524088735902     0.313335108419    12.000000000000
           H         -4.018145883330    -0.560144735902    -1.204643891581     1.007825032070
           H         -3.697690883330    -1.618189735902     0.140062108419     1.007825032070
           H         -6.146751883330    -1.296338735902    -0.149263891581     1.007825032070
           H         -5.960824883330     0.438047264098     0.035247108419     1.007825032070
           H         -5.637721883330    -0.627544735902     1.390371108419     1.007825032070
           C          4.315383116670    -1.599659735902    -0.723551891581    12.000000000000
           H          4.003780116670    -1.803242735902    -1.737928891581     1.007825032070
           H          4.705606116670    -2.495123735902    -0.265428891581     1.007825032070
           H          5.068381116670    -0.824767735902    -0.732125891581     1.007825032070

  Charge       = 0
  Multiplicity = 1
  Basis Set: 6-31G*
  Basis Set:

    Orbital Energies (a.u.)
    -----------------------

    Doubly Occupied:

       1A    -20.603477     2A    -20.545333     3A    -11.372074
       4A    -11.280687     5A    -11.233846     6A    -11.217480
       7A    -11.216887     8A    -11.215483     9A    -11.215358
      10A    -11.214083    11A    -11.208710    12A     -1.469177
      13A     -1.362758    14A     -1.097681    15A     -1.066312
      16A     -1.018989    17A     -0.977055    18A     -0.928210
      19A     -0.861635    20A     -0.798905    21A     -0.789744
      22A     -0.763340    23A     -0.701884    24A     -0.682051
      25A     -0.672532    26A     -0.649418    27A     -0.628747
      28A     -0.606399    29A     -0.594479    30A     -0.580192
      31A     -0.566346    32A     -0.547770    33A     -0.535357
      34A     -0.529717    35A     -0.516871    36A     -0.507461
      37A     -0.494159    38A     -0.477586    39A     -0.468872
      40A     -0.461089    41A     -0.459038    42A     -0.456227
      43A     -0.441321    44A     -0.435358

  @DF-RHF Final Energy:  -501.04163406869077

   => Energetics <=

    Nuclear Repulsion Energy =            614.3318703762571431
    One-Electron Energy =               -1899.8069930086387558
    Two-Electron Energy =                 784.4334885636930039
    DFT Exchange-Correlation Energy =       0.0000000000000000
    Empirical Dispersion Energy =           0.0000000000000000
    PCM Polarization Energy =               0.0000000000000000
    EFP Energy =                            0.0000000000000000
    Total Energy =                       -501.0416340686884951

  Mulliken Charges: (a.u.)
   Center  Symbol    Alpha    Beta     Spin     Total
       1     O     4.28530  4.28530  0.00000 -0.57060
       2     C     2.60785  2.60785  0.00000  0.78430
       3     C     3.21039  3.21039  0.00000 -0.42078
       4     O     4.30674  4.30674  0.00000 -0.61348
       5     C     3.15793  3.15793  0.00000 -0.31586
       6     H     0.39838  0.39838  0.00000  0.20324
       7     H     0.39920  0.39920  0.00000  0.20159
       8     C     3.15697  3.15697  0.00000 -0.31393
       9     H     0.40202  0.40202  0.00000  0.19597
      10     H     0.41505  0.41505  0.00000  0.16990
      11     C     3.15484  3.15484  0.00000 -0.30968
      12     H     0.41869  0.41869  0.00000  0.16263
      13     H     0.42470  0.42470  0.00000  0.15061
      14     C     3.15011  3.15011  0.00000 -0.30023
      15     H     0.42121  0.42121  0.00000  0.15757
      16     H     0.42460  0.42460  0.00000  0.15079
      17     C     3.15153  3.15153  0.00000 -0.30306
      18     H     0.42325  0.42325  0.00000  0.15350
      19     H     0.42413  0.42413  0.00000  0.15175
      20     C     3.23935  3.23935  0.00000 -0.47870
      21     H     0.42248  0.42248  0.00000  0.15504
      22     H     0.42349  0.42349  0.00000  0.15303
      23     H     0.41923  0.41923  0.00000  0.16154
      24     H     0.42155  0.42155  0.00000  0.15689
      25     H     0.42194  0.42194  0.00000  0.15612
      26     C     3.09231  3.09231  0.00000 -0.18462
      27     H     0.40911  0.40911  0.00000  0.18177
      28     H     0.40854  0.40854  0.00000  0.18291
      29     H     0.40910  0.40910  0.00000  0.18179

   Total alpha = 44.00000, Total beta = 44.00000, Total charge = -0.00000
