                              Psi4 1.0.54 Driver

  ==> Input File <==

--------------------------------------------------------------------------
set {
	reference rhf
	basis cc-pvtz
}

set_num_threads( 4 )
memory 2 gb

molecule MOL {
0 1

H	 -2.744291	 -0.727775	 -0.622493
O	 -2.313989	 -0.142475	 -0.025864
C	 -0.943808	 -0.065018	 -0.330000
H	 -0.812293	 -0.225641	 -1.398673
C	 -0.231030	 -1.182113	 0.407592
C	 -0.353797	 1.300461	 0.050970
H	 -0.312800	 -0.992012	 1.473041
H	 -0.738841	 -2.119564	 0.220514
C	 1.246176	 -1.268044	 -0.015480
H	 -0.539537	 2.008579	 -0.751815
H	 -0.889989	 1.662858	 0.920677
C	 1.153605	 1.231851	 0.356834
H	 1.823096	 -1.684665	 0.802361
H	 1.352335	 -1.958223	 -0.845114
C	 1.826409	 0.100723	 -0.416008
H	 1.622968	 2.181508	 0.128734
H	 1.301983	 1.066493	 1.419367
H	 2.897299	 0.112407	 -0.249665
H	 1.683458	 0.265621	 -1.480024

	symmetry c1
}
set optking {
	frozen_dihedral = ("
		1 2 3 4
	")
}

ee,wfn = optimize('scf', return_wfn=True)
oeprop( wfn, 'DIPOLE', 'QUADRUPOLE', 'MULLIKEN_CHARGES')
f=open( 'psi4out.xyz', 'w' )
f.write( "19  " )
f.write( str(ee) + "\n" )
f.write( MOL.save_string_xyz() )
f.close()
--------------------------------------------------------------------------

    Molecular point group: c1
  Charge       = 0
  Multiplicity = 1
  Basis Set: CC-PVTZ
  Basis Set:
  @DF-RHF Final Energy:  -309.16169494752131
    Total Energy =                       -309.1616949475211982
    Molecular point group: c1
  Basis Set: CC-PVTZ
  Basis Set:
  Basis Set: CC-PVTZ
  Basis Set:
  @DF-RHF Final Energy:  -309.16289194134936
    Total Energy =                       -309.1628919413491872
  Basis Set: CC-PVTZ
  Basis Set:
  Basis Set: CC-PVTZ
  Basis Set:
  @DF-RHF Final Energy:  -309.16310093396396
    Total Energy =                       -309.1631009339638467
  Basis Set: CC-PVTZ
  Basis Set:
  Basis Set: CC-PVTZ
  Basis Set:
  @DF-RHF Final Energy:  -309.16310577963986
    Total Energy =                       -309.1631057796396931
  Basis Set: CC-PVTZ
  Basis Set:
  Charge       = 0
  Multiplicity = 1
  Basis Set: CC-PVTZ
  Basis Set:

    Orbital Energies (a.u.)
    -----------------------

    Doubly Occupied:

       1A    -20.543277     2A    -11.268175     3A    -11.214216
       4A    -11.212904     5A    -11.211707     6A    -11.207950
       7A    -11.206821     8A     -1.362780     9A     -1.109306
      10A     -1.001555    11A     -0.989409    12A     -0.845235
      13A     -0.831578    14A     -0.731662    15A     -0.714485
      16A     -0.655172    17A     -0.621686    18A     -0.602394
      19A     -0.564925    20A     -0.545898    21A     -0.536186
      22A     -0.518362    23A     -0.498347    24A     -0.486959
      25A     -0.466877    26A     -0.449686    27A     -0.430228
      28A     -0.409109

  @DF-RHF Final Energy:  -309.16310645035725

   => Energetics <=

    Nuclear Repulsion Energy =            331.8054544166604387
    One-Electron Energy =               -1077.4633412814346229
    Two-Electron Energy =                 436.4947804144169368
    DFT Exchange-Correlation Energy =       0.0000000000000000
    Empirical Dispersion Energy =           0.0000000000000000
    PCM Polarization Energy =               0.0000000000000000
    EFP Energy =                            0.0000000000000000
    Total Energy =                       -309.1631064503571906
    Molecular point group: c1
  Basis Set: CC-PVTZ
  Basis Set:

  -Total Gradient:
     Atom            X                  Y                   Z
    ------   -----------------  -----------------  -----------------
       1       -0.000233200098     0.001338772498    -0.001029657260
       2        0.000296738110    -0.002033436800     0.001305280958
       3       -0.000096017264     0.002159970724    -0.000444798595
       4        0.000036959193    -0.001437828264     0.000237071416
       5       -0.000014835337     0.000011388402    -0.000030220936
       6        0.000017251918     0.000004889899    -0.000014373817
       7       -0.000001627402     0.000002124047    -0.000007951518
       8       -0.000003821554    -0.000005483559    -0.000004808984
       9        0.000022792146     0.000009894148     0.000001439392
      10        0.000006960737     0.000011448588    -0.000002626037
      11       -0.000012031699    -0.000033158021    -0.000010616884
      12        0.000003402395     0.000012047399    -0.000015015159
      13        0.000016642698    -0.000007216789     0.000011835879
      14        0.000003066181     0.000007547673     0.000011557206
      15       -0.000022884747    -0.000027282669     0.000000306435
      16       -0.000008327390     0.000001145802     0.000000770965
      17       -0.000009622054    -0.000000968255     0.000001194486
      18        0.000001701789    -0.000021458201    -0.000005496747
      19       -0.000003147618     0.000007603381    -0.000003890799

  **** Optimization is complete! (in 5 steps) ****
    Final optimized geometry and variables:
    Molecular point group: c1

    Geometry (in Angstrom), charge = 0, multiplicity = 1:

    H           -2.790100144854    -0.625432544458    -0.609846480368
    O           -2.318568340060    -0.075612869677    -0.012823683954
    C           -0.945617343221    -0.077234589068    -0.326979579111
    H           -0.828407091451    -0.232999105023    -1.397300464794
    C           -0.206302127271    -1.196378123478     0.392156364495
    C           -0.372565129726     1.288368914609     0.058358068039
    H           -0.286179936067    -1.022794147886     1.460396953940
    H           -0.694874142328    -2.145053212727     0.198277729254
    C            1.270211836388    -1.255194791726    -0.039090568013
    H           -0.565043444815     1.991846841523    -0.744083712698
    H           -0.925475659997     1.642196119076     0.919998643418
    C            1.131113044735     1.234355932814     0.378380298001
    H            1.856769160935    -1.680826740118     0.767243344628
    H            1.382464957512    -1.926911090982    -0.883321701374
    C            1.827856131693     0.130716304749    -0.412687364989
    H            1.587074676922     2.195861742309     0.173883955826
    H            1.274506048173     1.049534498627     1.438609929018
    H            2.898036759683     0.157259371144    -0.243459226134
    H            1.684234090423     0.313357887422    -1.473853070874

  Mulliken Charges: (a.u.)
   Center  Symbol    Alpha    Beta     Spin     Total
       1     H     0.39351  0.39351  0.00000  0.21299
       2     O     4.20490  4.20490  0.00000 -0.40979
       3     C     2.92766  2.92766  0.00000  0.14469
       4     H     0.46623  0.46623  0.00000  0.06754
       5     C     3.09629  3.09629  0.00000 -0.19259
       6     C     3.10895  3.10895  0.00000 -0.21790
       7     H     0.45319  0.45319  0.00000  0.09361
       8     H     0.44947  0.44947  0.00000  0.10106
       9     C     3.11492  3.11492  0.00000 -0.22984
      10     H     0.44938  0.44938  0.00000  0.10125
      11     H     0.44419  0.44419  0.00000  0.11163
      12     C     3.10059  3.10059  0.00000 -0.20118
      13     H     0.44729  0.44729  0.00000  0.10542
      14     H     0.44824  0.44824  0.00000  0.10353
      15     C     3.10191  3.10191  0.00000 -0.20382
      16     H     0.44213  0.44213  0.00000  0.11575
      17     H     0.45349  0.45349  0.00000  0.09301
      18     H     0.44307  0.44307  0.00000  0.11386
      19     H     0.45461  0.45461  0.00000  0.09078

   Total alpha = 28.00000, Total beta = 28.00000, Total charge = -0.00000

*** Psi4 exiting successfully. Buy a developer a beer!
