                              Psi4 1.0.54 Driver

  ==> Input File <==

--------------------------------------------------------------------------
set {
	reference rhf
	basis cc-pvtz
}

set_num_threads( 4 )
memory 2 gb

molecule MOL {
0 1

H	 1.923018	 -0.717474	 0.879888
O	 1.583947	 -0.677544	 -0.001533
C	 0.489979	 0.078084	 0.002623
C	 -0.763662	 -0.754014	 0.000816
O	 0.539051	 1.259395	 -0.000088
C	 -2.038001	 0.074705	 -0.000833
H	 -0.712945	 -1.405886	 -0.864342
H	 -0.715137	 -1.405770	 0.866182
H	 -2.087267	 0.710831	 -0.874232
H	 -2.903419	 -0.576199	 -0.001922
H	 -2.089467	 0.710909	 0.872389

	symmetry c1
}
set optking {
	frozen_dihedral = ("
		1 2 3 5
	")
}

ee,wfn = optimize('scf', return_wfn=True)
oeprop( wfn, 'DIPOLE', 'QUADRUPOLE', 'MULLIKEN_CHARGES')
f=open( 'psi4out.xyz', 'w' )
f.write( "11  " )
f.write( str(ee) + "\n" )
f.write( MOL.save_string_xyz() )
f.close()
--------------------------------------------------------------------------

    Molecular point group: c1
  Charge       = 0
  Multiplicity = 1
  Basis Set: CC-PVTZ
  Basis Set:
  @DF-RHF Final Energy:  -266.93311299914831
    Total Energy =                       -266.9331129991481930
    Molecular point group: c1
  Basis Set: CC-PVTZ
  Basis Set:
  Basis Set: CC-PVTZ
  Basis Set:
  @DF-RHF Final Energy:  -266.93284431772065
    Total Energy =                       -266.9328443177206509
  Basis Set: CC-PVTZ
  Basis Set:
  Basis Set: CC-PVTZ
  Basis Set:
  @DF-RHF Final Energy:  -266.93366965502219
    Total Energy =                       -266.9336696550220722
  Basis Set: CC-PVTZ
  Basis Set:
  Basis Set: CC-PVTZ
  Basis Set:
  @DF-RHF Final Energy:  -266.93470850808956
    Total Energy =                       -266.9347085080896136
  Basis Set: CC-PVTZ
  Basis Set:
  Basis Set: CC-PVTZ
  Basis Set:
  @DF-RHF Final Energy:  -266.93471868266829
    Total Energy =                       -266.9347186826684037
  Basis Set: CC-PVTZ
  Basis Set:
  Charge       = 0
  Multiplicity = 1
  Basis Set: CC-PVTZ
  Basis Set:

    Orbital Energies (a.u.)
    -----------------------

    Doubly Occupied:

       1A    -20.587445     2A    -20.551459     3A    -11.375055
       4A    -11.244209     5A    -11.219850     6A     -1.464775
       7A     -1.371320     8A     -1.065384     9A     -0.912419
      10A     -0.807792    11A     -0.713308    12A     -0.680119
      13A     -0.661539    14A     -0.614768    15A     -0.569802
      16A     -0.529749    17A     -0.524375    18A     -0.502547
      19A     -0.495401    20A     -0.449397

  @DF-RHF Final Energy:  -266.93471924332346

   => Energetics <=

    Nuclear Repulsion Energy =            179.3964195762755764
    One-Electron Energy =                -719.9808490008481385
    Two-Electron Energy =                 273.6497101812491337
    DFT Exchange-Correlation Energy =       0.0000000000000000
    Empirical Dispersion Energy =           0.0000000000000000
    PCM Polarization Energy =               0.0000000000000000
    EFP Energy =                            0.0000000000000000
    Total Energy =                       -266.9347192433234568
    Molecular point group: c1
  Basis Set: CC-PVTZ
  Basis Set:

  -Total Gradient:
     Atom            X                  Y                   Z
    ------   -----------------  -----------------  -----------------
       1       -0.002760392818    -0.004511197129     0.001397025389
       2        0.003197090853     0.005601382739    -0.003894318130
       3        0.000051369395    -0.001044497327     0.007257691218
       4        0.000019506895     0.000035128062     0.000043556599
       5       -0.000524476271    -0.000084853570    -0.004773769884
       6        0.000002039025     0.000012322360    -0.000012728822
       7        0.000011601095    -0.000001569684    -0.000017611174
       8        0.000002893988    -0.000009256188    -0.000006425076
       9       -0.000000677077     0.000003650420    -0.000002741526
      10        0.000003657898    -0.000003882777     0.000003443486
      11       -0.000002612981     0.000002773094     0.000005877919

  **** Optimization is complete! (in 6 steps) ****
    Final optimized geometry and variables:
    Molecular point group: c1

    Geometry (in Angstrom), charge = 0, multiplicity = 1:

    H            2.085113342852    -0.672825170393     0.737864387879
    O            1.628619312134    -0.638150922071    -0.086520533366
    C            0.489307792917     0.097830879211    -0.002218051840
    C           -0.751207663511    -0.753497644460     0.041800026697
    O            0.505858409460     1.271437458067    -0.041203531008
    C           -2.045338164181     0.043161675634     0.047345788273
    H           -0.698174313849    -1.424416680803    -0.808959794123
    H           -0.673202571999    -1.390123718822     0.918152408254
    H           -2.124839242947     0.659019161411    -0.838373218006
    H           -2.895776387879    -0.626833615387     0.075862004412
    H           -2.096943207625     0.697456302956     0.907493816811

  Mulliken Charges: (a.u.)
   Center  Symbol    Alpha    Beta     Spin     Total
       1     H     0.38581  0.38581  0.00000  0.22838
       2     O     4.17692  4.17692  0.00000 -0.35384
       3     C     2.80242  2.80242  0.00000  0.39516
       4     C     3.10080  3.10080  0.00000 -0.20160
       5     O     4.16289  4.16289  0.00000 -0.32578
       6     C     3.13948  3.13948  0.00000 -0.27897
       7     H     0.43811  0.43811  0.00000  0.12378
       8     H     0.44824  0.44824  0.00000  0.10352
       9     H     0.44639  0.44639  0.00000  0.10722
      10     H     0.44996  0.44996  0.00000  0.10007
      11     H     0.44897  0.44897  0.00000  0.10205

   Total alpha = 20.00000, Total beta = 20.00000, Total charge =  0.00000

*** Psi4 exiting successfully. Buy a developer a beer!
