  ==> Input File <==

--------------------------------------------------------------------------
set {
	reference rhf
	basis cc-pvtz
}

set_num_threads( 4 )
memory 2 gb

molecule MOL {
0 1

H	 1.576880	 -4.135771	 -3.529156
C	 1.499269	 -3.631619	 -2.573167
C	 0.291385	 -2.701804	 -2.539818
H	 1.428410	 -4.393279	 -1.803823
H	 2.422823	 -3.085518	 -2.412423
C	 0.144482	 -1.971457	 -1.213175
H	 -0.616726	 -3.263241	 -2.729260
H	 0.376690	 -1.972224	 -3.341699
N	 -1.022553	 -1.116065	 -1.204982
H	 0.034293	 -2.698527	 -0.414178
H	 1.063757	 -1.417425	 -1.000887
C	 -1.215959	 -0.382435	 0.027143
H	 -0.979043	 -0.479286	 -1.973057
C	 -2.451944	 0.502410	 -0.038737
H	 -1.332780	 -1.101767	 0.832185
H	 -0.345911	 0.229084	 0.284315
C	 -3.752217	 -0.292550	 0.005776
H	 -2.407325	 1.093801	 -0.946480
H	 -2.431979	 1.206234	 0.790023
H	 -3.817783	 -0.982946	 -0.828547
H	 -4.612613	 0.364348	 -0.042306
H	 -3.830160	 -0.871666	 0.919868

	symmetry c1
}
set optking {
	frozen_dihedral = ("
		15 12 14 18
	")
}

ee = optimize('scf')
oeprop('DIPOLE', 'QUADRUPOLE', 'MULLIKEN_CHARGES')
f=open( 'psi4out.xyz', 'w' )
f.write( "22  " )
f.write( str(ee) + "\n" )
f.write( MOL.save_string_xyz() )
f.close()
--------------------------------------------------------------------------

    Molecular point group: c1
  Charge       = 0
  Multiplicity = 1
  Basis Set: CC-PVTZ
  Basis Set:
  @DF-RHF Final Energy:  -290.48920059336336
    Total Energy =                       -290.4892005933631935
    Molecular point group: c1
  Basis Set: CC-PVTZ
  Basis Set:
  Basis Set: CC-PVTZ
  Basis Set:
  @DF-RHF Final Energy:  -290.48935257402741
    Total Energy =                       -290.4893525740272366
  Basis Set: CC-PVTZ
  Basis Set:
  Basis Set: CC-PVTZ
  Basis Set:
  @DF-RHF Final Energy:  -290.48937656035059
    Total Energy =                       -290.4893765603504789
  Basis Set: CC-PVTZ
  Basis Set:
  Charge       = 0
  Multiplicity = 1
  Basis Set: CC-PVTZ
  Basis Set:

    Orbital Energies (a.u.)
    -----------------------

    Doubly Occupied:

       1A    -15.528728     2A    -11.236705     3A    -11.236663
       4A    -11.212312     5A    -11.212254     6A    -11.207901
       7A    -11.199372     8A     -1.207957     9A     -1.059401
      10A     -1.023569    11A     -0.926889    12A     -0.874430
      13A     -0.808591    14A     -0.791980    15A     -0.662271
      16A     -0.635496    17A     -0.613054    18A     -0.611525
      19A     -0.572005    20A     -0.564602    21A     -0.539227
      22A     -0.525599    23A     -0.502736    24A     -0.488833
      25A     -0.480343    26A     -0.472928    27A     -0.467466
      28A     -0.451851    29A     -0.361153

  @DF-RHF Final Energy:  -290.48937733999435

   => Energetics <=

    Nuclear Repulsion Energy =            317.6308488249666198
    One-Electron Energy =               -1021.2887700778868521
    Two-Electron Energy =                 413.1685439129258270
    DFT Exchange-Correlation Energy =       0.0000000000000000
    Empirical Dispersion Energy =           0.0000000000000000
    PCM Polarization Energy =               0.0000000000000000
    EFP Energy =                            0.0000000000000000
    Total Energy =                       -290.4893773399944052
    Molecular point group: c1
  Basis Set: CC-PVTZ
  Basis Set:

  -Total Gradient:
     Atom            X                  Y                   Z
    ------   -----------------  -----------------  -----------------
       1        0.000002897758    -0.000002152337    -0.000000936892
       2        0.000004921982     0.000005989340    -0.000008728333
       3        0.000008824345    -0.000009296374     0.000012787838
       4       -0.000002155698     0.000001116879    -0.000000280734
       5        0.000000918029    -0.000002002495     0.000001240140
       6       -0.000065120173     0.000009756572    -0.000014352070
       7        0.000000470561     0.000005471105     0.000005432764
       8       -0.000000627351    -0.000001755987    -0.000002190293
       9        0.000034919008    -0.000067966273     0.000027371016
      10        0.000012880143    -0.000004962397     0.000005384334
      11        0.000014255566    -0.000003752240    -0.000000707043
      12        0.000726595106     0.001110476688     0.000980733771
      13       -0.000023704876     0.000010051983     0.000049668517
      14        0.000776685513     0.001220881171     0.000840823616
      15       -0.000720458384    -0.001075935781    -0.001076436395
      16       -0.000022279453     0.000014976561     0.000024175728
      17       -0.000009529446    -0.000033485286    -0.000038219842
      18       -0.000761926338    -0.001189422320    -0.000830544228
      19        0.000000600778    -0.000003458204    -0.000005279350
      20        0.000009838747     0.000011357276     0.000006777836
      21        0.000020384434     0.000013017815     0.000007295636
      22       -0.000008390248    -0.000008905696     0.000015983986

  **** Optimization is complete! (in 4 steps) ****
    Final optimized geometry and variables:
    Molecular point group: c1

    Geometry (in Angstrom), charge = 0, multiplicity = 1:

    H            2.497068010512    -2.767884866070    -2.446245214736
    C            2.413892200378    -2.270183655545    -1.487338423014
    C            1.221511399549    -1.320314531889    -1.463961546702
    H            2.318818330934    -3.036624880833    -0.725403416897
    H            3.343964821070    -1.741022281825    -1.308622207465
    C            1.066915155408    -0.599282793591    -0.133068357013
    H            0.307218340357    -1.864842383165    -1.672213739117
    H            1.331496061256    -0.585323552042    -2.257854390238
    N           -0.085038348518     0.276069255994    -0.133963828400
    H            0.933315444244    -1.331447945534     0.657562051526
    H            1.992288570128    -0.062625504776     0.097210192228
    C           -0.275718522663     1.013487213448     1.098683423954
    H           -0.021380288322     0.914804155075    -0.899143051439
    C           -1.535280805696     1.871754539249     1.051115319449
    H           -0.366410681386     0.288477736012     1.901873782037
    H            0.585649866151     1.642443161739     1.335646283713
    C           -2.827491262825     1.061243994615     1.089409679982
    H           -1.518742351556     2.471181155447     0.143850379912
    H           -1.515720266838     2.568191677913     1.883273576552
    H           -2.864976667048     0.354037655785     0.271517874038
    H           -3.694399976237     1.708709318554     1.019525250473
    H           -2.906627628470     0.502998279999     2.016708480226

  Mulliken Charges: (a.u.)
   Center  Symbol    Alpha    Beta     Spin     Total
       1     H     0.44767  0.44767  0.00000  0.10466
       2     C     3.15360  3.15360  0.00000 -0.30719
       3     C     3.08098  3.08098  0.00000 -0.16196
       4     H     0.45470  0.45470  0.00000  0.09060
       5     H     0.45609  0.45609  0.00000  0.08782
       6     C     3.02122  3.02122  0.00000 -0.04244
       7     H     0.44908  0.44908  0.00000  0.10184
       8     H     0.45958  0.45958  0.00000  0.08085
       9     N     3.64016  3.64016  0.00000 -0.28033
      10     H     0.45946  0.45946  0.00000  0.08107
      11     H     0.47517  0.47517  0.00000  0.04965
      12     C     3.03593  3.03593  0.00000 -0.07185
      13     H     0.44504  0.44504  0.00000  0.10992
      14     C     3.08324  3.08324  0.00000 -0.16648
      15     H     0.45843  0.45843  0.00000  0.08315
      16     H     0.46393  0.46393  0.00000  0.07213
      17     C     3.14738  3.14738  0.00000 -0.29475
      18     H     0.45969  0.45969  0.00000  0.08063
      19     H     0.45138  0.45138  0.00000  0.09725
      20     H     0.44803  0.44803  0.00000  0.10395
      21     H     0.45144  0.45144  0.00000  0.09712
      22     H     0.45782  0.45782  0.00000  0.08437

   Total alpha = 29.00000, Total beta = 29.00000, Total charge = -0.00000
