  ==> Input File <==

--------------------------------------------------------------------------
set {
	reference rhf
	basis 6-31G*
}

set_num_threads( 4 )
memory 2 gb

molecule MOL {
0 1

H	 4.355847	 3.541382	 -1.346538
C	 4.242508	 2.492874	 -1.089036
C	 2.909121	 2.237367	 -0.387630
H	 4.316203	 1.917068	 -2.006837
H	 5.080593	 2.215313	 -0.455496
C	 2.719933	 0.768037	 -0.004104
H	 2.097290	 2.549244	 -1.036679
H	 2.850391	 2.853410	 0.508324
C	 1.401531	 0.484633	 0.716149
H	 2.775499	 0.150008	 -0.893259
H	 3.536901	 0.462459	 0.645686
C	 0.169600	 0.576866	 -0.172154
H	 1.414999	 -0.525204	 1.123356
H	 1.276283	 1.144717	 1.571590
C	 -1.181045	 0.701995	 0.511084
O	 0.252185	 0.534511	 -1.362865
C	 -2.285934	 -0.139295	 -0.145128
H	 -1.449051	 1.751551	 0.493206
H	 -1.071135	 0.403303	 1.551943
C	 -3.651768	 0.085446	 0.506485
H	 -2.346596	 0.110469	 -1.202272
H	 -2.034737	 -1.195320	 -0.088721
C	 -4.759797	 -0.746382	 -0.137905
H	 -3.908762	 1.140117	 0.445781
H	 -3.588286	 -0.154158	 1.565709
H	 -4.868882	 -0.505166	 -1.191300
H	 -4.548009	 -1.809175	 -0.062213
H	 -5.715422	 -0.564821	 0.343442

	symmetry c1
}
set optking {
	frozen_dihedral = ("
		16 12 15 17
	")
}

ee = optimize('scf')
oeprop('DIPOLE', 'QUADRUPOLE', 'MULLIKEN_CHARGES')
f=open( 'psi4out.xyz', 'w' )
f.write( "28  " )
f.write( str(ee) + "\n" )
f.write( MOL.save_string_xyz() )
f.close()
--------------------------------------------------------------------------

    Molecular point group: c1
  Charge       = 0
  Multiplicity = 1
  Basis Set: 6-31G*
  Basis Set:
  @DF-RHF Final Energy:  -426.17000294099455
    Total Energy =                       -426.1700029409942090
    Molecular point group: c1
  Basis Set: 6-31G*
  Basis Set:
  Basis Set: 6-31G*
  Basis Set:
  @DF-RHF Final Energy:  -426.16957455771774
    Total Energy =                       -426.1695745577176240
  Basis Set: 6-31G*
  Basis Set:
  Basis Set: 6-31G*
  Basis Set:
  @DF-RHF Final Energy:  -426.17016110388420
    Total Energy =                       -426.1701611038838564
  Basis Set: 6-31G*
  Basis Set:
  Basis Set: 6-31G*
  Basis Set:
  @DF-RHF Final Energy:  -426.17055754029570
    Total Energy =                       -426.1705575402958175
  Basis Set: 6-31G*
  Basis Set:
  Basis Set: 6-31G*
  Basis Set:
  @DF-RHF Final Energy:  -426.17057366337610
    Total Energy =                       -426.1705736633762172
  Basis Set: 6-31G*
  Basis Set:
  Basis Set: 6-31G*
  Basis Set:
  @DF-RHF Final Energy:  -426.17056106418170
    Total Energy =                       -426.1705610641815838
  Basis Set: 6-31G*
  Basis Set:
  Basis Set: 6-31G*
  Basis Set:
  @DF-RHF Final Energy:  -426.17057825967299
    Total Energy =                       -426.1705782596734480
  Basis Set: 6-31G*
  Basis Set:
  Charge       = 0
  Multiplicity = 1
  Basis Set: 6-31G*
  Basis Set:

    Orbital Energies (a.u.)
    -----------------------

    Doubly Occupied:

       1A    -20.548695     2A    -11.323944     3A    -11.231400
       4A    -11.230202     5A    -11.220779     6A    -11.220158
       7A    -11.216601     8A    -11.211680     9A    -11.211078
      10A    -11.205425    11A     -1.394638    12A     -1.088943
      13A     -1.077525    14A     -1.021938    15A     -0.990781
      16A     -0.910065    17A     -0.866497    18A     -0.806285
      19A     -0.792859    20A     -0.724208    21A     -0.669758
      22A     -0.651669    23A     -0.626918    24A     -0.617552
      25A     -0.607916    26A     -0.586726    27A     -0.577310
      28A     -0.571456    29A     -0.538812    30A     -0.528889
      31A     -0.521416    32A     -0.509437    33A     -0.492565
      34A     -0.477812    35A     -0.476019    36A     -0.471577
      37A     -0.468593    38A     -0.465503    39A     -0.455650
      40A     -0.393043

  @DF-RHF Final Energy:  -426.17057806131459

   => Energetics <=

    Nuclear Repulsion Energy =            528.9484238135366923
    One-Electron Energy =               -1626.2333592707673233
    Two-Electron Energy =                 671.1143573959160449
    DFT Exchange-Correlation Energy =       0.0000000000000000
    Empirical Dispersion Energy =           0.0000000000000000
    PCM Polarization Energy =               0.0000000000000000
    EFP Energy =                            0.0000000000000000
    Total Energy =                       -426.1705780613145862
    Molecular point group: c1
  Basis Set: 6-31G*
  Basis Set:

  -Total Gradient:
     Atom            X                  Y                   Z
    ------   -----------------  -----------------  -----------------
       1       -0.000000403031    -0.000000580911    -0.000004052570
       2       -0.000006056010     0.000001416587    -0.000010692309
       3        0.000030117830     0.000004241459     0.000032265832
       4        0.000004314986    -0.000002490192     0.000000075538
       5       -0.000004927692     0.000002551172     0.000000565355
       6        0.000003519783    -0.000026951001    -0.000002946320
       7       -0.000011022778     0.000003591548    -0.000001080830
       8        0.000004097808     0.000004915879    -0.000002554145
       9       -0.000004944055     0.000046018373    -0.000005958724
      10        0.000005766359    -0.000002886102     0.000005951698
      11       -0.000000491529     0.000006317289    -0.000000457035
      12       -0.000002561420    -0.002313816738     0.000125570527
      13       -0.000005480566     0.000003718859    -0.000013094961
      14        0.000015540927    -0.000008682329     0.000010698096
      15       -0.000343538351     0.001707076848    -0.000730217428
      16        0.000070077276     0.001395379479     0.000061311020
      17        0.000233085979    -0.000786520557     0.000513197636
      18        0.000005861682     0.000000173626    -0.000006476367
      19        0.000001602409     0.000009955531     0.000000038446
      20        0.000011569267    -0.000040761552     0.000016398225
      21       -0.000019990449    -0.000006426220    -0.000001852457
      22        0.000011982646     0.000001546961     0.000022319344
      23       -0.000009573947     0.000018473704    -0.000014853047
      24        0.000019132627    -0.000004005123     0.000006285235
      25       -0.000002783314    -0.000014701916     0.000004990081
      26        0.000000624822    -0.000006974617    -0.000007151460
      27       -0.000001967985     0.000003147806     0.000007865574
      28       -0.000003553272     0.000006272137    -0.000006144952

  **** Optimization is complete! (in 8 steps) ****
    Final optimized geometry and variables:
    Molecular point group: c1

    Geometry (in Angstrom), charge = 0, multiplicity = 1:

    H            4.496457757391     2.705948768306    -1.246426571256
    C            4.326868323631     1.671503422335    -0.964146529839
    C            2.987344284011     1.507292053561    -0.247378122362
    H            4.360302347431     1.072180524317    -1.869190838459
    H            5.153728925840     1.361637333007    -0.330741357364
    C            2.720579419776     0.060030077668     0.172872687907
    H            2.188012820910     1.848045887761    -0.896642828741
    H            2.971284141004     2.145625666044     0.634660517799
    C            1.391981070316    -0.134418413729     0.901273074213
    H            2.741642875085    -0.581927403641    -0.701258574816
    H            3.522383519718    -0.272524313869     0.828281350624
    C            0.159445165671    -0.043067701975     0.020127374656
    H            1.356577306373    -1.117061833668     1.371730329673
    H            1.285303586901     0.578586753058     1.717216459642
    C           -1.185555875318    -0.006352638308     0.730038673333
    O            0.228904135083     0.009698262038    -1.170770600615
    C           -2.265414112400    -0.822482410061     0.016678775937
    H           -1.480374203201     1.041029523793     0.778792665788
    H           -1.071839770300    -0.340180365083     1.757726142256
    C           -3.630089419503    -0.719547772639     0.699136955890
    H           -2.337761931193    -0.486266809188    -1.011366009514
    H           -1.957888610189    -1.865397366458    -0.021708802952
    C           -4.708704117088    -1.536262465987    -0.011476535739
    H           -3.935266578806     0.324101286239     0.738049296863
    H           -3.547871151868    -1.052160198234     1.731962785602
    H           -4.837026585795    -1.205471736040    -1.037925938817
    H           -4.450054059542    -2.591029202011    -0.034729001387
    H           -5.666906574197    -1.441556217755     0.489751562297

  Mulliken Charges: (a.u.)
   Center  Symbol    Alpha    Beta     Spin     Total
       1     H     0.41937  0.41937  0.00000  0.16126
       2     C     3.24019  3.24019  0.00000 -0.48038
       3     C     3.15635  3.15635  0.00000 -0.31270
       4     H     0.41850  0.41850  0.00000  0.16301
       5     H     0.42382  0.42382  0.00000  0.15236
       6     C     3.14939  3.14939  0.00000 -0.29879
       7     H     0.40852  0.40852  0.00000  0.18295
       8     H     0.42783  0.42783  0.00000  0.14434
       9     C     3.21239  3.21239  0.00000 -0.42478
      10     H     0.40805  0.40805  0.00000  0.18390
      11     H     0.42176  0.42176  0.00000  0.15648
      12     C     2.72971  2.72971  0.00000  0.54058
      13     H     0.40547  0.40547  0.00000  0.18906
      14     H     0.41011  0.41011  0.00000  0.17978
      15     C     3.20555  3.20555  0.00000 -0.41110
      16     O     4.27006  4.27006  0.00000 -0.54012
      17     C     3.15303  3.15303  0.00000 -0.30606
      18     H     0.40387  0.40387  0.00000  0.19227
      19     H     0.41425  0.41425  0.00000  0.17150
      20     C     3.15304  3.15304  0.00000 -0.30608
      21     H     0.40365  0.40365  0.00000  0.19270
      22     H     0.42043  0.42043  0.00000  0.15914
      23     C     3.23961  3.23961  0.00000 -0.47922
      24     H     0.42218  0.42218  0.00000  0.15563
      25     H     0.42392  0.42392  0.00000  0.15216
      26     H     0.41919  0.41919  0.00000  0.16162
      27     H     0.42099  0.42099  0.00000  0.15803
      28     H     0.41878  0.41878  0.00000  0.16244

   Total alpha = 40.00000, Total beta = 40.00000, Total charge = -0.00000
