  ==> Input File <==

--------------------------------------------------------------------------
set {
	reference rhf
	basis 6-31G*
}

set_num_threads( 4 )
memory 2 gb

molecule MOL {
0 1

O	 0.740856	 2.059843	 -0.270121
C	 -0.282296	 2.353279	 -0.799363
C	 -1.546967	 1.529721	 -0.783449
O	 -0.447081	 3.473699	 -1.491085
C	 -1.412532	 0.227344	 -0.000452
H	 -2.336361	 2.154887	 -0.375066
H	 -1.824535	 1.340926	 -1.816922
C	 -2.706999	 -0.587347	 -0.000541
H	 -1.118819	 0.451557	 1.020315
H	 -0.605877	 -0.363396	 -0.423344
C	 -3.956778	 0.291888	 0.000910
H	 -2.726114	 -1.239230	 -0.871609
H	 -2.725217	 -1.240844	 0.869333
H	 -3.985213	 0.933254	 -0.875158
H	 -4.860123	 -0.309979	 0.000519
H	 -3.984618	 0.931166	 0.878514
C	 0.668275	 4.341083	 -1.584702
H	 0.975894	 4.671845	 -0.603145
H	 0.339901	 5.181229	 -2.176543
H	 1.496974	 3.843719	 -2.067811

	symmetry c1
}
set optking {
	frozen_dihedral = ("
		9 5 8 12
	")
}

ee = optimize('scf')
oeprop('DIPOLE', 'QUADRUPOLE', 'MULLIKEN_CHARGES')
f=open( 'psi4out.xyz', 'w' )
f.write( "20  " )
f.write( str(ee) + "\n" )
f.write( MOL.save_string_xyz() )
f.close()
--------------------------------------------------------------------------

    Molecular point group: c1
  Charge       = 0
  Multiplicity = 1
  Basis Set: 6-31G*
  Basis Set:
  @DF-RHF Final Energy:  -383.93395632642648
    Total Energy =                       -383.9339563264263688
    Molecular point group: c1
  Basis Set: 6-31G*
  Basis Set:
  Basis Set: 6-31G*
  Basis Set:
  @DF-RHF Final Energy:  -383.93524020219053
    Total Energy =                       -383.9352402021902435
  Basis Set: 6-31G*
  Basis Set:
  Basis Set: 6-31G*
  Basis Set:
  @DF-RHF Final Energy:  -383.93692354838680
    Total Energy =                       -383.9369235483869716
  Basis Set: 6-31G*
  Basis Set:
  Basis Set: 6-31G*
  Basis Set:
  @DF-RHF Final Energy:  -383.93643879935377
    Total Energy =                       -383.9364387993539367
  Basis Set: 6-31G*
  Basis Set:
  @DF-RHF Final Energy:  -383.93707498357202
    Total Energy =                       -383.9370749835716197
  Basis Set: 6-31G*
  Basis Set:
  @DF-RHF Final Energy:  -383.93712544271648
    Total Energy =                       -383.9371254427164786
  Basis Set: 6-31G*
  Basis Set:
  Basis Set: 6-31G*
  Basis Set:
  @DF-RHF Final Energy:  -383.93712756203377
    Total Energy =                       -383.9371275620338793
  Basis Set: 6-31G*
  Basis Set:
  Basis Set: 6-31G*
  Basis Set:
  @DF-RHF Final Energy:  -383.93713140368305
    Total Energy =                       -383.9371314036829972
  Basis Set: 6-31G*
  Basis Set:
  Charge       = 0
  Multiplicity = 1
  Basis Set: 6-31G*
  Basis Set:

    Orbital Energies (a.u.)
    -----------------------

    Doubly Occupied:

       1A    -20.603609     2A    -20.545512     3A    -11.372370
       4A    -11.280837     5A    -11.235429     6A    -11.220317
       7A    -11.219194     8A    -11.213465     9A     -1.469365
      10A     -1.362826    11A     -1.087506    12A     -1.022033
      13A     -0.967729    14A     -0.898121    15A     -0.798924
      16A     -0.762120    17A     -0.701727    18A     -0.682935
      19A     -0.671606    20A     -0.638178    21A     -0.607275
      22A     -0.592909    23A     -0.568457    24A     -0.548595
      25A     -0.539111    26A     -0.522654    27A     -0.511399
      28A     -0.473290    29A     -0.471025    30A     -0.463291
      31A     -0.454709    32A     -0.437977

  @DF-RHF Final Energy:  -383.93713143566163

   => Energetics <=

    Nuclear Repulsion Energy =            385.2751255003765891
    One-Electron Energy =               -1286.5355196443688328
    Two-Electron Energy =                 517.3232627083309580
    DFT Exchange-Correlation Energy =       0.0000000000000000
    Empirical Dispersion Energy =           0.0000000000000000
    PCM Polarization Energy =               0.0000000000000000
    EFP Energy =                            0.0000000000000000
    Total Energy =                       -383.9371314356612856
    Molecular point group: c1
  Basis Set: 6-31G*
  Basis Set:

  -Total Gradient:
     Atom            X                  Y                   Z
    ------   -----------------  -----------------  -----------------
       1       -0.000002848204    -0.000005900501     0.000009300221
       2        0.000005849194     0.000007065565     0.000001377486
       3        0.000008737233    -0.000011321373    -0.000020397032
       4       -0.000005310862     0.000005761660    -0.000011033885
       5       -0.003360924753     0.004720464219     0.000535465298
       6       -0.000004705603     0.000003374961     0.000007200987
       7       -0.000000575927     0.000005829305     0.000004282210
       8       -0.002512073077     0.003777620457    -0.003515000908
       9        0.003216085096    -0.004561321688     0.000112109390
      10        0.000002424887     0.000002922015     0.000002856815
      11       -0.000000189897    -0.000003642970     0.000002140169
      12        0.002662527663    -0.003933394517     0.002870160571
      13       -0.000004541101    -0.000004128659    -0.000001630940
      14       -0.000000032035    -0.000001065632    -0.000000257084
      15       -0.000003678708     0.000000702408     0.000001860988
      16        0.000003163358     0.000001943163    -0.000002656662
      17       -0.000000314455    -0.000002746176     0.000004895442
      18        0.000000168600     0.000000324459    -0.000000118705
      19       -0.000003312050    -0.000001958163    -0.000000247843
      20       -0.000000449366    -0.000000528529    -0.000000306517

  **** Optimization is complete! (in 9 steps) ****
    Final optimized geometry and variables:
    Molecular point group: c1

    Geometry (in Angstrom), charge = 0, multiplicity = 1:

    O            1.845728212237     0.303258841746     0.360474162669
    C            0.836746642121     0.627981006662    -0.177556116138
    C           -0.459053586506    -0.146596055917    -0.162099076762
    O            0.716803405307     1.747229369621    -0.880676652223
    C           -0.369540048499    -1.440601759209     0.640229890159
    H           -1.223591104433     0.519666990457     0.223493168670
    H           -0.730284765641    -0.342509280117    -1.196294887151
    C           -1.625718374257    -2.327818114467     0.586893449218
    H           -0.106595864161    -1.229762054044     1.671872394818
    H            0.468484390533    -2.017684722762     0.262737708996
    C           -2.967441378942    -1.601903027155     0.682677059281
    H           -1.592161144396    -2.953145300762    -0.302159314675
    H           -1.558048224853    -3.029782021458     1.414646471842
    H           -3.152864370387    -0.967958709355    -0.178328866574
    H           -3.782565240606    -2.316089297739     0.741186274787
    H           -3.013983271066    -0.977508269899     1.571010135073
    C            1.863747334211     2.572055972172    -0.976222162581
    H            2.178279621896     2.900661211291     0.003878217016
    H            1.569544449624     3.418025344519    -1.577683152380
    H            2.676118790746     2.040066984212    -1.450107065966

  Mulliken Charges: (a.u.)
   Center  Symbol    Alpha    Beta     Spin     Total
       1     O     4.28577  4.28577  0.00000 -0.57154
       2     C     2.60485  2.60485  0.00000  0.79029
       3     C     3.21039  3.21039  0.00000 -0.42079
       4     O     4.30745  4.30745  0.00000 -0.61490
       5     C     3.15527  3.15527  0.00000 -0.31054
       6     H     0.39829  0.39829  0.00000  0.20343
       7     H     0.40081  0.40081  0.00000  0.19838
       8     C     3.15543  3.15543  0.00000 -0.31087
       9     H     0.41192  0.41192  0.00000  0.17616
      10     H     0.40929  0.40929  0.00000  0.18143
      11     C     3.24463  3.24463  0.00000 -0.48926
      12     H     0.42084  0.42084  0.00000  0.15832
      13     H     0.41804  0.41804  0.00000  0.16392
      14     H     0.42050  0.42050  0.00000  0.15900
      15     H     0.41677  0.41677  0.00000  0.16646
      16     H     0.42075  0.42075  0.00000  0.15850
      17     C     3.09238  3.09238  0.00000 -0.18476
      18     H     0.40906  0.40906  0.00000  0.18188
      19     H     0.40846  0.40846  0.00000  0.18309
      20     H     0.40910  0.40910  0.00000  0.18181

   Total alpha = 32.00000, Total beta = 32.00000, Total charge =  0.00000
