                              Psi4 1.0.54 Driver

  ==> Input File <==

--------------------------------------------------------------------------
set {
	reference rhf
	basis cc-pvtz
}

set_num_threads( 4 )
memory 2 gb

molecule MOL {
0 1

H	 2.614283	 2.028610	 0.296620
O	 3.358864	 1.662087	 -0.142800
C	 3.565468	 0.338079	 0.273842
C	 2.533667	 -0.637565	 -0.272227
H	 4.548038	 0.064914	 -0.086598
H	 3.593945	 0.282242	 1.360360
C	 1.114816	 -0.402372	 0.240993
H	 2.544552	 -0.580764	 -1.356576
H	 2.850574	 -1.642962	 -0.005497
C	 0.074531	 -0.398013	 -0.878214
H	 1.077756	 0.542739	 0.772402
H	 0.859598	 -1.177123	 0.962043
C	 -1.374317	 -0.240074	 -0.413295
H	 0.313139	 0.393761	 -1.584179
H	 0.158065	 -1.329944	 -1.430478
C	 -1.712382	 1.117880	 0.199416
H	 -2.026102	 -0.405730	 -1.266678
H	 -1.609048	 -1.025562	 0.301593
C	 -3.189876	 1.261322	 0.555571
H	 -1.435183	 1.904558	 -0.498988
H	 -1.119258	 1.282320	 1.093936
C	 -3.530162	 2.614590	 1.171008
H	 -3.790338	 1.111025	 -0.337420
H	 -3.470505	 0.470997	 1.246727
H	 -3.290828	 3.425210	 0.490676
H	 -4.585446	 2.683970	 1.409060
H	 -2.973320	 2.779307	 2.087604

	symmetry c1
}
set optking {
	frozen_dihedral = ("
		10 7 4 8
	")
}

ee,wfn = optimize('scf', return_wfn=True)
oeprop( wfn, 'DIPOLE', 'QUADRUPOLE', 'MULLIKEN_CHARGES')
f=open( 'psi4out.xyz', 'w' )
f.write( "27  " )
f.write( str(ee) + "\n" )
f.write( MOL.save_string_xyz() )
f.close()
--------------------------------------------------------------------------

    Molecular point group: c1
  Charge       = 0
  Multiplicity = 1
  Basis Set: CC-PVTZ
  Basis Set:
  @DF-RHF Final Energy:  -388.42279602886697
    Total Energy =                       -388.4227960288664008
    Molecular point group: c1
  Basis Set: CC-PVTZ
  Basis Set:
  Basis Set: CC-PVTZ
  Basis Set:
  @DF-RHF Final Energy:  -388.42299240069934
    Total Energy =                       -388.4229924006995134
  Basis Set: CC-PVTZ
  Basis Set:
  Basis Set: CC-PVTZ
  Basis Set:
  @DF-RHF Final Energy:  -388.42312391917488
    Total Energy =                       -388.4231239191743725
  Basis Set: CC-PVTZ
  Basis Set:
  Basis Set: CC-PVTZ
  Basis Set:
  @DF-RHF Final Energy:  -388.42312081819716
    Total Energy =                       -388.4231208181973898
  Basis Set: CC-PVTZ
  Basis Set:
  Basis Set: CC-PVTZ
  Basis Set:
  @DF-RHF Final Energy:  -388.42312917045092
    Total Energy =                       -388.4231291704503519
  Basis Set: CC-PVTZ
  Basis Set:
  Basis Set: CC-PVTZ
  Basis Set:
  @DF-RHF Final Energy:  -388.42313053229697
    Total Energy =                       -388.4231305322962271
  Basis Set: CC-PVTZ
  Basis Set:
  Charge       = 0
  Multiplicity = 1
  Basis Set: CC-PVTZ
  Basis Set:

    Orbital Energies (a.u.)
    -----------------------

    Doubly Occupied:

       1A    -20.545212     2A    -11.265079     3A    -11.217903
       4A    -11.214597     5A    -11.214392     6A    -11.213301
       7A    -11.213277     8A    -11.212635     9A    -11.207820
      10A     -1.363201    11A     -1.095710    12A     -1.061473
      13A     -1.012383    14A     -0.949897    15A     -0.888701
      16A     -0.821810    17A     -0.803420    18A     -0.778604
      19A     -0.695279    20A     -0.652820    21A     -0.642348
      22A     -0.613806    23A     -0.596198    24A     -0.584562
      25A     -0.578580    26A     -0.556947    27A     -0.541913
      28A     -0.535623    29A     -0.510493    30A     -0.493602
      31A     -0.488020    32A     -0.470708    33A     -0.467027
      34A     -0.459013    35A     -0.453798    36A     -0.441625
      37A     -0.427062

  @DF-RHF Final Energy:  -388.42313086070646

   => Energetics <=

    Nuclear Repulsion Energy =            463.3979120725686016
    One-Electron Energy =               -1445.0644065560204581
    Two-Electron Energy =                 593.2433636227449369
    DFT Exchange-Correlation Energy =       0.0000000000000000
    Empirical Dispersion Energy =           0.0000000000000000
    PCM Polarization Energy =               0.0000000000000000
    EFP Energy =                            0.0000000000000000
    Total Energy =                       -388.4231308607069195
    Molecular point group: c1
  Basis Set: CC-PVTZ
  Basis Set:

  -Total Gradient:
     Atom            X                  Y                   Z
    ------   -----------------  -----------------  -----------------
       1       -0.000026562907     0.000001883413     0.000031517670
       2        0.000046458551    -0.000063491804    -0.000029664263
       3       -0.000023504147     0.000008251466     0.000017333503
       4        0.000595540568     0.003339648850     0.000005678094
       5        0.000028248457     0.000027180231    -0.000015592368
       6        0.000001484675     0.000014601168     0.000020161991
       7       -0.000414435796    -0.002721912239     0.000281488363
       8       -0.000427392008    -0.002185271674    -0.000087090429
       9        0.000003734601     0.000005685239     0.000000735368
      10        0.000200792452     0.001581538474    -0.000220370658
      11        0.000008349801    -0.000000501776     0.000003460389
      12        0.000005177135    -0.000002422856     0.000007995436
      13        0.000007034371     0.000000890102    -0.000008220279
      14       -0.000004870918     0.000000909289    -0.000006490401
      15       -0.000009270487    -0.000002606631    -0.000005827551
      16        0.000005875765    -0.000002798895     0.000007207582
      17        0.000002810936     0.000001647767    -0.000000945325
      18        0.000001127741    -0.000003921534     0.000001343999
      19       -0.000000941408     0.000001076813    -0.000004427275
      20       -0.000000912318    -0.000002636139     0.000002088560
      21        0.000005684426     0.000001546519     0.000002694210
      22       -0.000001206389    -0.000000650981    -0.000002535213
      23       -0.000003937964    -0.000000139532    -0.000000634548
      24        0.000001235553     0.000001002500     0.000000200927
      25        0.000000177237     0.000001299417    -0.000000918990
      26       -0.000001687500     0.000000205982     0.000001224132
      27        0.000000989567    -0.000001013168    -0.000000412928

  **** Optimization is complete! (in 7 steps) ****
    Final optimized geometry and variables:
    Molecular point group: c1

    Geometry (in Angstrom), charge = 0, multiplicity = 1:

    H            2.520381437313     1.404278400383     0.092754134413
    O            3.289040166481     1.013712407507    -0.279532892442
    C            3.448138595294    -0.297682158078     0.193331631229
    C            2.402725196351    -1.260594919399    -0.346504671835
    H            4.431795278786    -0.609597496856    -0.130875616468
    H            3.446660439319    -0.312280453833     1.281535492781
    C            0.968472721243    -0.999748417291     0.154360185191
    H            2.430415242346    -1.227231954797    -1.430316601400
    H            2.705095939788    -2.267201569709    -0.072495677796
    C           -0.071587074095    -1.006225370608    -0.965882711342
    H            0.926909324833    -0.044184266687     0.668067026386
    H            0.699850121630    -1.741431834051     0.900038734367
    C           -1.522133577776    -0.856897684315    -0.505132570536
    H            0.167689870067    -0.216201874686    -1.673281382635
    H            0.019576395608    -1.939228863766    -1.515466625014
    C           -1.866365190323     0.492926896011     0.122223711237
    H           -2.169964594615    -1.013972938761    -1.363062581413
    H           -1.758048868587    -1.650896932071     0.199790447088
    C           -3.347477768320     0.632742493720     0.464354128194
    H           -1.581906280706     1.288944173544    -0.562800644166
    H           -1.283574474908     0.644321907624     1.025942472452
    C           -3.693383436073     1.976845469854     1.096343396637
    H           -3.938093954736     0.496452910843    -0.437316843960
    H           -3.636056459497    -0.167592072445     1.140402931101
    H           -3.446620363668     2.797401673738     0.430729715713
    H           -4.751006497398     2.043473026098     1.324293307636
    H           -3.146250890425     2.127342069976     2.021188545217

  Mulliken Charges: (a.u.)
   Center  Symbol    Alpha    Beta     Spin     Total
       1     H     0.39181  0.39181  0.00000  0.21638
       2     O     4.20587  4.20587  0.00000 -0.41174
       3     C     2.98009  2.98009  0.00000  0.03982
       4     C     3.09246  3.09246  0.00000 -0.18492
       5     H     0.44802  0.44802  0.00000  0.10396
       6     H     0.46981  0.46981  0.00000  0.06038
       7     C     3.10405  3.10405  0.00000 -0.20809
       8     H     0.45220  0.45220  0.00000  0.09560
       9     H     0.45152  0.45152  0.00000  0.09695
      10     C     3.09757  3.09757  0.00000 -0.19514
      11     H     0.46389  0.46389  0.00000  0.07221
      12     H     0.44729  0.44729  0.00000  0.10542
      13     C     3.09818  3.09818  0.00000 -0.19636
      14     H     0.45010  0.45010  0.00000  0.09979
      15     H     0.44625  0.44625  0.00000  0.10750
      16     C     3.08975  3.08975  0.00000 -0.17950
      17     H     0.44787  0.44787  0.00000  0.10426
      18     H     0.45370  0.45370  0.00000  0.09260
      19     C     3.08395  3.08395  0.00000 -0.16790
      20     H     0.45418  0.45418  0.00000  0.09163
      21     H     0.45482  0.45482  0.00000  0.09035
      22     C     3.14979  3.14979  0.00000 -0.29957
      23     H     0.45353  0.45353  0.00000  0.09294
      24     H     0.45444  0.45444  0.00000  0.09111
      25     H     0.45496  0.45496  0.00000  0.09008
      26     H     0.44805  0.44805  0.00000  0.10390
      27     H     0.45583  0.45583  0.00000  0.08834

   Total alpha = 37.00000, Total beta = 37.00000, Total charge = -0.00000

*** Psi4 exiting successfully. Buy a developer a beer!
