  ==> Input File <==

--------------------------------------------------------------------------
set {
	reference rhf
	basis cc-pvtz
}

set_num_threads( 4 )
memory 2 gb

molecule MOL {
0 1

O	 0.075677	 1.258489	 -0.056367
C	 0.029490	 0.077183	 0.000078
C	 -1.232113	 -0.748027	 0.000015
O	 1.105608	 -0.688307	 0.072370
C	 -2.501422	 0.088592	 -0.000052
H	 -1.188777	 -1.400384	 -0.865133
H	 -1.188857	 -1.400312	 0.865225
H	 -2.548170	 0.725504	 -0.873205
H	 -3.371613	 -0.556398	 -0.000040
H	 -2.548215	 0.725571	 0.873047
C	 2.362431	 -0.041804	 0.080919
H	 2.502752	 0.530754	 -0.823914
H	 3.099963	 -0.825340	 0.143716
H	 2.445872	 0.617878	 0.931861

	symmetry c1
}
set optking {
	frozen_dihedral = ("
		4 2 3 6
	")
}

ee = optimize('scf')
oeprop('DIPOLE', 'QUADRUPOLE', 'MULLIKEN_CHARGES')
f=open( 'psi4out.xyz', 'w' )
f.write( "14  " )
f.write( str(ee) + "\n" )
f.write( MOL.save_string_xyz() )
f.close()
--------------------------------------------------------------------------

    Molecular point group: c1
  Charge       = 0
  Multiplicity = 1
  Basis Set: CC-PVTZ
  Basis Set:
  @DF-RHF Final Energy:  -305.98770025354884
    Total Energy =                       -305.9877002535487236
    Molecular point group: c1
  Basis Set: CC-PVTZ
  Basis Set:
  Basis Set: CC-PVTZ
  Basis Set:
  @DF-RHF Final Energy:  -305.98769894307821
    Total Energy =                       -305.9876989430780441
  Basis Set: CC-PVTZ
  Basis Set:
  Basis Set: CC-PVTZ
  Basis Set:
  @DF-RHF Final Energy:  -305.98769567689936
    Total Energy =                       -305.9876956768989658
  Basis Set: CC-PVTZ
  Basis Set:
  Charge       = 0
  Multiplicity = 1
  Basis Set: CC-PVTZ
  Basis Set:

    Orbital Energies (a.u.)
    -----------------------

    Doubly Occupied:

       1A    -20.597193     2A    -20.534993     3A    -11.365213
       4A    -11.279138     5A    -11.237221     6A    -11.214838
       7A     -1.473108     8A     -1.366753     9A     -1.065450
      10A     -0.981252    11A     -0.878877    12A     -0.771040
      13A     -0.702939    14A     -0.686133    15A     -0.675548
      16A     -0.621741    17A     -0.604225    18A     -0.545734
      19A     -0.538552    20A     -0.523000    21A     -0.515975
      22A     -0.497331    23A     -0.461323    24A     -0.442666

  @DF-RHF Final Energy:  -305.98770495654537

   => Energetics <=

    Nuclear Repulsion Energy =            247.5730982905184874
    One-Electron Energy =                -907.9611282928319724
    Two-Electron Energy =                 354.4003250457684544
    DFT Exchange-Correlation Energy =       0.0000000000000000
    Empirical Dispersion Energy =           0.0000000000000000
    PCM Polarization Energy =               0.0000000000000000
    EFP Energy =                            0.0000000000000000
    Total Energy =                       -305.9877049565450307
    Molecular point group: c1
  Basis Set: CC-PVTZ
  Basis Set:

  -Total Gradient:
     Atom            X                  Y                   Z
    ------   -----------------  -----------------  -----------------
       1        0.000000546689    -0.000002821176    -0.000047300138
       2       -0.000017777961     0.000022797197    -0.000089828763
       3        0.000094841440    -0.000149008412     0.000119987821
       4        0.000001940886     0.000006932543     0.000105961906
       5        0.000011165433    -0.000009827655    -0.000007244176
       6       -0.000093530239     0.000139322916    -0.000088928966
       7        0.000006748635    -0.000010102032     0.000019957276
       8       -0.000009836618     0.000005190859    -0.000003523985
       9       -0.000001050855     0.000002036184    -0.000007643007
      10        0.000008702753    -0.000003580626    -0.000003255827
      11       -0.000002166145    -0.000000308187     0.000012479328
      12       -0.000001594981    -0.000000797181    -0.000003360156
      13       -0.000000288332    -0.000000228598    -0.000003786771
      14        0.000002299297     0.000000394172    -0.000003514541

  **** Optimization is complete! (in 4 steps) ****
    Final optimized geometry and variables:
    Molecular point group: c1

    Geometry (in Angstrom), charge = 0, multiplicity = 1:

    O            0.075301289719     1.258055364691    -0.069476127088
    C            0.029602748908     0.076747906518    -0.012365031629
    C           -1.231664533862    -0.748766851986    -0.014834853283
    O            1.106029232160    -0.688561564410     0.058065242059
    C           -2.500832009979     0.088153862577    -0.022023229239
    H           -1.184694994291    -1.397546840212    -0.882858272766
    H           -1.192684859262    -1.403410741227     0.848271889121
    H           -2.541125294809     0.726867326139    -0.893949194835
    H           -3.371122920797    -0.556642650773    -0.029020769771
    H           -2.553698573584     0.723259839554     0.852281756633
    C            2.362887843851    -0.042079809416     0.058356313034
    H            2.498599917310     0.527901753550    -0.848807507477
    H            3.100564788611    -0.825608800099     0.119441299464
    H            2.450810578837     0.619918829278     0.906992391287

  Mulliken Charges: (a.u.)
   Center  Symbol    Alpha    Beta     Spin     Total
       1     O     4.19633  4.19633  0.00000 -0.39265
       2     C     2.80250  2.80250  0.00000  0.39499
       3     C     3.09440  3.09440  0.00000 -0.18880
       4     O     4.14707  4.14707  0.00000 -0.29414
       5     C     3.13981  3.13981  0.00000 -0.27961
       6     H     0.44170  0.44170  0.00000  0.11660
       7     H     0.44077  0.44077  0.00000  0.11846
       8     H     0.44771  0.44771  0.00000  0.10458
       9     H     0.45035  0.45035  0.00000  0.09931
      10     H     0.44899  0.44899  0.00000  0.10202
      11     C     3.03626  3.03626  0.00000 -0.07253
      12     H     0.45435  0.45435  0.00000  0.09130
      13     H     0.44548  0.44548  0.00000  0.10903
      14     H     0.45428  0.45428  0.00000  0.09143

   Total alpha = 24.00000, Total beta = 24.00000, Total charge = -0.00000
