  ==> Input File <==

--------------------------------------------------------------------------
set {
	reference rhf
	basis cc-pvtz
}

set_num_threads( 4 )
memory 2 gb

molecule MOL {
0 1

H	 -1.835082	 1.385983	 0.000069
C	 -1.300516	 0.441153	 -0.000028
O	 -0.006604	 0.654344	 -0.000106
O	 -1.828920	 -0.612308	 0.000113
C	 0.445098	 1.987719	 0.218754
C	 1.954565	 1.976545	 0.173062
H	 0.077283	 2.328334	 1.176174
H	 0.027389	 2.627824	 -0.545280
H	 2.358697	 1.328878	 0.940640
H	 2.331353	 2.979119	 0.336554
H	 2.308557	 1.629845	 -0.789465

	symmetry c1
}
set optking {
	frozen_dihedral = ("
		5 3 2 4
	")
}

ee = optimize('scf')
oeprop('DIPOLE', 'QUADRUPOLE', 'MULLIKEN_CHARGES')
f=open( 'psi4out.xyz', 'w' )
f.write( "11  " )
f.write( str(ee) + "\n" )
f.write( MOL.save_string_xyz() )
f.close()
--------------------------------------------------------------------------

    Molecular point group: c1
  Charge       = 0
  Multiplicity = 1
  Basis Set: CC-PVTZ
  Basis Set:
  @DF-RHF Final Energy:  -266.92231657548922
    Total Energy =                       -266.9223165754892761
    Molecular point group: c1
  Basis Set: CC-PVTZ
  Basis Set:
  Basis Set: CC-PVTZ
  Basis Set:
  @DF-RHF Final Energy:  -266.92331560690434
    Total Energy =                       -266.9233156069041684
  Basis Set: CC-PVTZ
  Basis Set:
  Basis Set: CC-PVTZ
  Basis Set:
  @DF-RHF Final Energy:  -266.92338644397887
    Total Energy =                       -266.9233864439789272
  Basis Set: CC-PVTZ
  Basis Set:
  Basis Set: CC-PVTZ
  Basis Set:
  @DF-RHF Final Energy:  -266.92343781256113
    Total Energy =                       -266.9234378125610192
  Basis Set: CC-PVTZ
  Basis Set:
  Basis Set: CC-PVTZ
  Basis Set:
  @DF-RHF Final Energy:  -266.92349614390344
    Total Energy =                       -266.9234961439032077
  Basis Set: CC-PVTZ
  Basis Set:
  Charge       = 0
  Multiplicity = 1
  Basis Set: CC-PVTZ
  Basis Set:

    Orbital Energies (a.u.)
    -----------------------

    Doubly Occupied:

       1A    -20.605294     2A    -20.544277     3A    -11.371634
       4A    -11.304590     5A    -11.232075     6A     -1.476793
       7A     -1.383114     8A     -1.056680     9A     -0.889810
      10A     -0.848494    11A     -0.739964    12A     -0.698554
      13A     -0.671248    14A     -0.604072    15A     -0.577960
      16A     -0.565384    17A     -0.533018    18A     -0.522754
      19A     -0.460251    20A     -0.453399

  @DF-RHF Final Energy:  -266.92349657735332

   => Energetics <=

    Nuclear Repulsion Energy =            176.6652830972564630
    One-Electron Energy =                -714.0988267124969298
    Two-Electron Energy =                 270.5100470378870341
    DFT Exchange-Correlation Energy =       0.0000000000000000
    Empirical Dispersion Energy =           0.0000000000000000
    PCM Polarization Energy =               0.0000000000000000
    EFP Energy =                            0.0000000000000000
    Total Energy =                       -266.9234965773534896
    Molecular point group: c1
  Basis Set: CC-PVTZ
  Basis Set:

  -Total Gradient:
     Atom            X                  Y                   Z
    ------   -----------------  -----------------  -----------------
       1        0.000006993578    -0.000010307715     0.000010533492
       2        0.000163781183    -0.000242882144    -0.001672175445
       3        0.000100490522     0.000197918720    -0.001054863746
       4       -0.000193751220     0.000110412964     0.001521198357
       5       -0.000117761386    -0.000092206621     0.001181744543
       6        0.000022669460     0.000033815305     0.000012194343
       7        0.000009563818     0.000002385356     0.000001453044
       8        0.000021566943     0.000007126301     0.000005868491
       9       -0.000009218906    -0.000000148256    -0.000000626211
      10        0.000005755692    -0.000002060232    -0.000003380104
      11       -0.000010089685    -0.000004053684    -0.000001946764

  **** Optimization is complete! (in 6 steps) ****
    Final optimized geometry and variables:
    Molecular point group: c1

    Geometry (in Angstrom), charge = 0, multiplicity = 1:

    H           -1.741354551080     0.479161560948    -0.262657570829
    C           -1.165648897199    -0.437861970183    -0.127833629129
    O            0.130828076123    -0.238564940921     0.001737145292
    O           -1.659984237035    -1.501023992370    -0.101858514754
    C            0.592077997214     1.090530900334     0.170422876767
    C            2.098399631336     1.084853408787     0.058552838765
    H            0.280566768435     1.454852269181     1.142325492226
    H            0.153525665526     1.727834308770    -0.589292849053
    H            2.532832511958     0.445273042784     0.815383404973
    H            2.480860296395     2.089527542503     0.192840101011
    H            2.406512787551     0.723509211901    -0.913881284201

  Mulliken Charges: (a.u.)
   Center  Symbol    Alpha    Beta     Spin     Total
       1     H     0.47562  0.47562  0.00000  0.04877
       2     C     2.84572  2.84572  0.00000  0.30857
       3     O     4.12434  4.12434  0.00000 -0.24868
       4     O     4.17576  4.17576  0.00000 -0.35151
       5     C     2.97784  2.97784  0.00000  0.04431
       6     C     3.13317  3.13317  0.00000 -0.26633
       7     H     0.45707  0.45707  0.00000  0.08586
       8     H     0.46191  0.46191  0.00000  0.07618
       9     H     0.44566  0.44566  0.00000  0.10867
      10     H     0.45530  0.45530  0.00000  0.08939
      11     H     0.44761  0.44761  0.00000  0.10477

   Total alpha = 20.00000, Total beta = 20.00000, Total charge = -0.00000
