  ==> Input File <==

--------------------------------------------------------------------------
set {
	reference rhf
	basis 6-31G*
}

set_num_threads( 1 )
memory 2 gb

molecule MOL {
0 1

H	 -2.820809	 0.170741	 -0.002400
N	 -1.855091	 0.304026	 0.226942
C	 -1.132117	 0.869853	 -0.898337
H	 -1.474462	 -0.594947	 0.450726
C	 0.331961	 1.028067	 -0.545380
H	 -1.203680	 0.274984	 -1.809935
H	 -1.542759	 1.850929	 -1.116615
O	 0.874168	 -0.245412	 -0.342030
H	 0.860979	 1.535799	 -1.351598
H	 0.427830	 1.627487	 0.357249
C	 2.202317	 -0.244239	 0.074611
H	 2.711377	 -1.041390	 -0.449894
H	 2.692099	 0.699270	 -0.159667
H	 2.283185	 -0.418429	 1.145558

	symmetry c1
}
set optking {
	frozen_dihedral = ("
		8 5 3 6,
		6 3 2 4,
		11 8 5 3
	")
}

ee = energy('scf')
oeprop('DIPOLE', 'QUADRUPOLE', 'MULLIKEN_CHARGES')
f=open( 'psi4out.xyz', 'w' )
f.write( "14  " )
f.write( str(ee) + "\n" )
f.write( MOL.save_string_xyz() )
f.close()
--------------------------------------------------------------------------

    Molecular point group: c1

    Geometry (in Angstrom), charge = 0, multiplicity = 1:

       Center              X                  Y                   Z               Mass
    ------------   -----------------  -----------------  -----------------  -----------------
           H         -2.911127808473    -0.153132740357     0.286425628487     1.007825032070
           N         -1.945409808473    -0.019847740357     0.515767628487    14.003074004780
           C         -1.222435808473     0.545979259643    -0.609511371513    12.000000000000
           H         -1.564780808473    -0.918820740357     0.739551628487     1.007825032070
           C          0.241642191527     0.704193259643    -0.256554371513    12.000000000000
           H         -1.293998808473    -0.048889740357    -1.521109371513     1.007825032070
           H         -1.633077808473     1.527055259643    -0.827789371513     1.007825032070
           O          0.783849191527    -0.569285740357    -0.053204371513    15.994914619560
           H          0.770660191527     1.211925259643    -1.062772371513     1.007825032070
           H          0.337511191527     1.303613259643     0.646074628487     1.007825032070
           C          2.111998191527    -0.568112740357     0.363436628487    12.000000000000
           H          2.621058191527    -1.365263740357    -0.161068371513     1.007825032070
           H          2.601780191527     0.375396259643     0.129158628487     1.007825032070
           H          2.192866191527    -0.742302740357     1.434383628487     1.007825032070

  Charge       = 0
  Multiplicity = 1
  Basis Set: 6-31G*
  Basis Set:

    Orbital Energies (a.u.)
    -----------------------

    Doubly Occupied:

       1A    -20.555105     2A    -15.528266     3A    -11.266033
       4A    -11.265423     5A    -11.240487     6A     -1.380525
       7A     -1.173420     8A     -0.998541     9A     -0.907085
      10A     -0.815975    11A     -0.683545    12A     -0.672060
      13A     -0.644178    14A     -0.610203    15A     -0.605179
      16A     -0.539847    17A     -0.533810    18A     -0.494991
      19A     -0.474428    20A     -0.413302    21A     -0.379967

  @DF-RHF Final Energy:  -248.12208478142128

   => Energetics <=

    Nuclear Repulsion Energy =            194.6946176231364234
    One-Electron Energy =                -723.2686296205846475
    Two-Electron Energy =                 280.4519272160271726
    DFT Exchange-Correlation Energy =       0.0000000000000000
    Empirical Dispersion Energy =           0.0000000000000000
    PCM Polarization Energy =               0.0000000000000000
    EFP Energy =                            0.0000000000000000
    Total Energy =                       -248.1220847814210515

  Mulliken Charges: (a.u.)
   Center  Symbol    Alpha    Beta     Spin     Total
       1     H     0.33288  0.33288  0.00000  0.33425
       2     N     3.92528  3.92528  0.00000 -0.85056
       3     C     3.06899  3.06899  0.00000 -0.13799
       4     H     0.32367  0.32367  0.00000  0.35267
       5     C     2.99163  2.99163  0.00000  0.01674
       6     H     0.42670  0.42670  0.00000  0.14660
       7     H     0.42058  0.42058  0.00000  0.15884
       8     O     4.31112  4.31112  0.00000 -0.62224
       9     H     0.43041  0.43041  0.00000  0.13917
      10     H     0.42233  0.42233  0.00000  0.15533
      11     C     3.07686  3.07686  0.00000 -0.15372
      12     H     0.41686  0.41686  0.00000  0.16628
      13     H     0.42954  0.42954  0.00000  0.14092
      14     H     0.42315  0.42315  0.00000  0.15371

   Total alpha = 21.00000, Total beta = 21.00000, Total charge = -0.00000
