  ==> Input File <==

--------------------------------------------------------------------------
set {
	reference rhf
	basis 6-31G*
}

set_num_threads( 1 )
memory 2 gb

molecule MOL {
0 1

H	 -3.420663	 1.227371	 -1.044276
O	 -3.452007	 0.283848	 -0.965577
C	 -3.181085	 -0.079926	 0.364119
C	 -1.765924	 0.277073	 0.805136
H	 -3.327791	 -1.152017	 0.410903
H	 -3.905698	 0.375695	 1.036898
C	 -0.677594	 -0.417312	 -0.014550
H	 -1.637766	 1.358238	 0.744969
H	 -1.659588	 0.017670	 1.857098
C	 -0.539510	 0.147606	 -1.429816
H	 -0.891903	 -1.480505	 -0.063560
H	 0.273617	 -0.321605	 0.506440
C	 0.555781	 -0.548450	 -2.242177
H	 -1.495002	 0.057999	 -1.941113
H	 -0.321569	 1.213468	 -1.374637
C	 0.792774	 0.041371	 -3.637205
H	 0.316161	 -1.606465	 -2.336417
H	 1.488158	 -0.498187	 -1.683640
C	 -0.380140	 -0.124292	 -4.605314
H	 1.669720	 -0.435653	 -4.068137
H	 1.037817	 1.097546	 -3.544192
H	 -0.655818	 -1.170468	 -4.708537
H	 -0.120843	 0.246889	 -5.592141
H	 -1.259590	 0.418575	 -4.275121

	symmetry c1
}
set optking {
	frozen_dihedral = ("
		20 16 13 17,
		17 13 10 7,
		13 10 7 11,
		1 2 3 5,
		7 4 3 2
	")
}

ee = energy('scf')
oeprop('DIPOLE', 'QUADRUPOLE', 'MULLIKEN_CHARGES')
f=open( 'psi4out.xyz', 'w' )
f.write( "24  " )
f.write( str(ee) + "\n" )
f.write( MOL.save_string_xyz() )
f.close()
--------------------------------------------------------------------------

    Molecular point group: c1

    Geometry (in Angstrom), charge = 0, multiplicity = 1:

       Center              X                  Y                   Z               Mass
    ------------   -----------------  -----------------  -----------------  -----------------
           H         -2.287504087711     1.266671530138     0.426972196857     1.007825032070
           O         -2.318848087711     0.323148530138     0.505671196857    15.994914619560
           C         -2.047926087711    -0.040625469862     1.835367196857    12.000000000000
           C         -0.632765087711     0.316373530138     2.276384196857    12.000000000000
           H         -2.194632087711    -1.112716469862     1.882151196857     1.007825032070
           H         -2.772539087711     0.414995530138     2.508146196857     1.007825032070
           C          0.455564912289    -0.378011469862     1.456698196857    12.000000000000
           H         -0.504607087711     1.397538530138     2.216217196857     1.007825032070
           H         -0.526429087711     0.056970530138     3.328346196857     1.007825032070
           C          0.593648912289     0.186906530138     0.041432196857    12.000000000000
           H          0.241255912289    -1.441204469862     1.407688196857     1.007825032070
           H          1.406775912289    -0.282304469862     1.977688196857     1.007825032070
           C          1.688939912289    -0.509149469862    -0.770928803143    12.000000000000
           H         -0.361843087711     0.097299530138    -0.469864803143     1.007825032070
           H          0.811589912289     1.252768530138     0.096611196857     1.007825032070
           C          1.925932912289     0.080671530138    -2.165956803143    12.000000000000
           H          1.449319912289    -1.567164469862    -0.865168803143     1.007825032070
           H          2.621316912289    -0.458886469862    -0.212391803143     1.007825032070
           C          0.753018912289    -0.084991469862    -3.134065803143    12.000000000000
           H          2.802878912289    -0.396352469862    -2.596888803143     1.007825032070
           H          2.170975912289     1.136846530138    -2.072943803143     1.007825032070
           H          0.477340912289    -1.131167469862    -3.237288803143     1.007825032070
           H          1.012315912289     0.286189530138    -4.120892803143     1.007825032070
           H         -0.126431087711     0.457875530138    -2.803872803143     1.007825032070

  Charge       = 0
  Multiplicity = 1
  Basis Set: 6-31G*
  Basis Set:

    Orbital Energies (a.u.)
    -----------------------

    Doubly Occupied:

       1A    -20.556295     2A    -11.269476     3A    -11.218013
       4A    -11.211762     5A    -11.209468     6A    -11.205567
       7A    -11.201970     8A    -11.200031     9A     -1.364530
      10A     -1.084247    11A     -1.046068    12A     -0.981751
      13A     -0.912774    14A     -0.850884    15A     -0.797300
      16A     -0.771100    17A     -0.683465    18A     -0.649876
      19A     -0.633322    20A     -0.607145    21A     -0.600640
      22A     -0.575562    23A     -0.548659    24A     -0.534883
      25A     -0.523804    26A     -0.510458    27A     -0.492315
      28A     -0.483720    29A     -0.469419    30A     -0.455808
      31A     -0.452514    32A     -0.434819    33A     -0.411301

  @DF-RHF Final Energy:  -349.24294480098143

   => Energetics <=

    Nuclear Repulsion Energy =            398.9304593044091121
    One-Electron Energy =               -1264.4490581450329501
    Two-Electron Energy =                 516.2756540396421769
    DFT Exchange-Correlation Energy =       0.0000000000000000
    Empirical Dispersion Energy =           0.0000000000000000
    PCM Polarization Energy =               0.0000000000000000
    EFP Energy =                            0.0000000000000000
    Total Energy =                       -349.2429448009816042

  Mulliken Charges: (a.u.)
   Center  Symbol    Alpha    Beta     Spin     Total
       1     H     0.28267  0.28267  0.00000  0.43466
       2     O     4.36655  4.36655  0.00000 -0.73311
       3     C     2.99663  2.99663  0.00000  0.00674
       4     C     3.17188  3.17188  0.00000 -0.34376
       5     H     0.41583  0.41583  0.00000  0.16835
       6     H     0.42748  0.42748  0.00000  0.14505
       7     C     3.15178  3.15178  0.00000 -0.30355
       8     H     0.42719  0.42719  0.00000  0.14562
       9     H     0.41962  0.41962  0.00000  0.16076
      10     C     3.16562  3.16562  0.00000 -0.33125
      11     H     0.42220  0.42220  0.00000  0.15559
      12     H     0.42190  0.42190  0.00000  0.15621
      13     C     3.15128  3.15128  0.00000 -0.30256
      14     H     0.39383  0.39383  0.00000  0.21233
      15     H     0.43242  0.43242  0.00000  0.13515
      16     C     3.15173  3.15173  0.00000 -0.30347
      17     H     0.42499  0.42499  0.00000  0.15002
      18     H     0.42592  0.42592  0.00000  0.14815
      19     C     3.24052  3.24052  0.00000 -0.48105
      20     H     0.42245  0.42245  0.00000  0.15511
      21     H     0.42529  0.42529  0.00000  0.14942
      22     H     0.42185  0.42185  0.00000  0.15631
      23     H     0.42127  0.42127  0.00000  0.15747
      24     H     0.41910  0.41910  0.00000  0.16180

   Total alpha = 33.00000, Total beta = 33.00000, Total charge =  0.00000
