  ==> Input File <==

--------------------------------------------------------------------------
set {
	reference rhf
	basis cc-pvtz
}

set_num_threads( 4 )
memory 2 gb

molecule MOL {
0 1

O	 0.395927	 1.296676	 -0.000076
C	 0.503051	 0.114301	 -0.000074
C	 -0.701422	 -0.805636	 -0.000109
C	 1.858118	 -0.556123	 0.000212
C	 -1.290530	 -1.055724	 1.379198
H	 -1.443700	 -0.373601	 -0.666295
H	 -0.400697	 -1.739263	 -0.468453
H	 -1.612410	 -0.130047	 1.837177
H	 -2.144819	 -1.718362	 1.308803
H	 -0.560173	 -1.507819	 2.036784
H	 1.961106	 -1.191101	 -0.872843
H	 2.636688	 0.191085	 -0.000109
H	 1.961070	 -1.190284	 0.873873

	symmetry c1
}
set optking {
	frozen_dihedral = ("
		6 3 2 1
	")
}

ee = optimize('scf')
oeprop('DIPOLE', 'QUADRUPOLE', 'MULLIKEN_CHARGES')
f=open( 'psi4out.xyz', 'w' )
f.write( "13  " )
f.write( str(ee) + "\n" )
f.write( MOL.save_string_xyz() )
f.close()
--------------------------------------------------------------------------

    Molecular point group: c1
  Charge       = 0
  Multiplicity = 1
  Basis Set: CC-PVTZ
  Basis Set:
  @DF-RHF Final Energy:  -231.08043139268511
    Total Energy =                       -231.0804313926851137
    Molecular point group: c1
  Basis Set: CC-PVTZ
  Basis Set:
  Basis Set: CC-PVTZ
  Basis Set:
  @DF-RHF Final Energy:  -231.08088766948566
    Total Energy =                       -231.0808876694856622
  Basis Set: CC-PVTZ
  Basis Set:
  Basis Set: CC-PVTZ
  Basis Set:
  @DF-RHF Final Energy:  -231.08128579229188
    Total Energy =                       -231.0812857922917942
  Basis Set: CC-PVTZ
  Basis Set:
  Basis Set: CC-PVTZ
  Basis Set:
  @DF-RHF Final Energy:  -231.08138789446491
    Total Energy =                       -231.0813878944647399
  Basis Set: CC-PVTZ
  Basis Set:
  Basis Set: CC-PVTZ
  Basis Set:
  @DF-RHF Final Energy:  -231.08140268156441
    Total Energy =                       -231.0814026815645548
  Basis Set: CC-PVTZ
  Basis Set:
  Basis Set: CC-PVTZ
  Basis Set:
  @DF-RHF Final Energy:  -231.08140766403665
    Total Energy =                       -231.0814076640368171
  Basis Set: CC-PVTZ
  Basis Set:
  Basis Set: CC-PVTZ
  Basis Set:
  @DF-RHF Final Energy:  -231.08141003681783
    Total Energy =                       -231.0814100368178288
  Basis Set: CC-PVTZ
  Basis Set:
  Charge       = 0
  Multiplicity = 1
  Basis Set: CC-PVTZ
  Basis Set:

    Orbital Energies (a.u.)
    -----------------------

    Doubly Occupied:

       1A    -20.538019     2A    -11.320634     3A    -11.231683
       4A    -11.228176     5A    -11.225549     6A     -1.398377
       7A     -1.066114     8A     -0.999347     9A     -0.883139
      10A     -0.734965    11A     -0.657430    12A     -0.648961
      13A     -0.610242    14A     -0.593578    15A     -0.568226
      16A     -0.540419    17A     -0.528393    18A     -0.503476
      19A     -0.483942    20A     -0.402062

  @DF-RHF Final Energy:  -231.08141057956962

   => Energetics <=

    Nuclear Repulsion Energy =            177.3719546572203001
    One-Electron Energy =                -664.5812606691936253
    Two-Electron Energy =                 256.1278954324033634
    DFT Exchange-Correlation Energy =       0.0000000000000000
    Empirical Dispersion Energy =           0.0000000000000000
    PCM Polarization Energy =               0.0000000000000000
    EFP Energy =                            0.0000000000000000
    Total Energy =                       -231.0814105795699902
    Molecular point group: c1
  Basis Set: CC-PVTZ
  Basis Set:

  -Total Gradient:
     Atom            X                  Y                   Z
    ------   -----------------  -----------------  -----------------
       1        0.000007634585    -0.000016083032     0.000213015607
       2        0.000012054717     0.000001391564    -0.000330543984
       3       -0.000078301377     0.000122765775     0.000269464348
       4       -0.000005355957     0.000006761796     0.000008791144
       5       -0.000010247713    -0.000010255373     0.000019285631
       6        0.000075891333    -0.000102278752    -0.000163840324
       7       -0.000000491198     0.000000808739     0.000004744706
       8        0.000003327158    -0.000000827295    -0.000006714666
       9        0.000001092122     0.000001265150    -0.000001009959
      10       -0.000000911890     0.000002330492    -0.000001051360
      11        0.000000164086    -0.000007829107    -0.000008745399
      12        0.000000146816    -0.000001735724     0.000001489648
      13       -0.000005002681     0.000003685765    -0.000004885391

  **** Optimization is complete! (in 8 steps) ****
    Final optimized geometry and variables:
    Molecular point group: c1

    Geometry (in Angstrom), charge = 0, multiplicity = 1:

    O            0.206169763755     1.477017965565    -0.259573003970
    C            0.348270951142     0.298300280921    -0.291968501592
    C           -0.850252498061    -0.631569244314    -0.313237522978
    C            1.717887503553    -0.336602620866    -0.290660575020
    C           -1.427852515525    -0.807122979022     1.094303562842
    H           -1.595125034295    -0.189866330441    -0.962209871148
    H           -0.572083666428    -1.595973513476    -0.722545133525
    H           -1.734191012157     0.148181345141     1.499337992029
    H           -2.290712465096    -1.460516920456     1.069428690151
    H           -0.701404287067    -1.244180778849     1.770599042384
    H            1.882968925654    -0.834247213480    -1.240908482451
    H            2.476908022800     0.415415000817    -0.139648877290
    H            1.785187118899    -1.093837316568     0.482803654385

  Mulliken Charges: (a.u.)
   Center  Symbol    Alpha    Beta     Spin     Total
       1     O     4.17653  4.17653  0.00000 -0.35306
       2     C     2.85321  2.85321  0.00000  0.29358
       3     C     3.09823  3.09823  0.00000 -0.19645
       4     C     3.15381  3.15381  0.00000 -0.30762
       5     C     3.14808  3.14808  0.00000 -0.29616
       6     H     0.44006  0.44006  0.00000  0.11988
       7     H     0.45029  0.45029  0.00000  0.09942
       8     H     0.44237  0.44237  0.00000  0.11527
       9     H     0.44658  0.44658  0.00000  0.10684
      10     H     0.45507  0.45507  0.00000  0.08987
      11     H     0.44864  0.44864  0.00000  0.10272
      12     H     0.43627  0.43627  0.00000  0.12745
      13     H     0.45087  0.45087  0.00000  0.09826

   Total alpha = 20.00000, Total beta = 20.00000, Total charge =  0.00000
