  ==> Input File <==

--------------------------------------------------------------------------
set {
	reference rhf
	basis cc-pvtz
}

set_num_threads( 4 )
memory 2 gb

molecule MOL {
0 1

H	 3.294979	 -0.422341	 -0.030618
C	 2.236783	 -0.243085	 -0.023353
C	 1.434462	 -0.891881	 0.903295
C	 1.682527	 0.631637	 -0.936139
H	 1.872575	 -1.570239	 1.609469
C	 0.076505	 -0.664741	 0.916017
H	 2.305564	 1.131984	 -1.651648
C	 0.318561	 0.858729	 -0.922126
H	 -0.560013	 -1.156548	 1.624273
C	 -0.486398	 0.214248	 0.000000
H	 -0.119458	 1.538226	 -1.629656
C	 -1.946525	 0.470130	 0.000000
O	 -2.779618	 -0.371226	 0.000000
H	 -2.227127	 1.528393	 0.000000

	symmetry c1
}
set optking {
	frozen_dihedral = ("
		8 10 12 14
	")
}

ee = optimize('scf')
oeprop('DIPOLE', 'QUADRUPOLE', 'MULLIKEN_CHARGES')
f=open( 'psi4out.xyz', 'w' )
f.write( "14  " )
f.write( str(ee) + "\n" )
f.write( MOL.save_string_xyz() )
f.close()
--------------------------------------------------------------------------

    Molecular point group: c1
  Charge       = 0
  Multiplicity = 1
  Basis Set: CC-PVTZ
  Basis Set:
  @DF-RHF Final Energy:  -343.54250746059199
    Total Energy =                       -343.5425074605919917
    Molecular point group: c1
  Basis Set: CC-PVTZ
  Basis Set:
  Basis Set: CC-PVTZ
  Basis Set:
  @DF-RHF Final Energy:  -343.54041572750373
    Total Energy =                       -343.5404157275040689
  Basis Set: CC-PVTZ
  Basis Set:
  Basis Set: CC-PVTZ
  Basis Set:
  @DF-RHF Final Energy:  -343.54324859635040
    Total Energy =                       -343.5432485963506224
  Basis Set: CC-PVTZ
  Basis Set:
  Basis Set: CC-PVTZ
  Basis Set:
  @DF-RHF Final Energy:  -343.54331699542792
    Total Energy =                       -343.5433169954278583
  Basis Set: CC-PVTZ
  Basis Set:
  Charge       = 0
  Multiplicity = 1
  Basis Set: CC-PVTZ
  Basis Set:

    Orbital Energies (a.u.)
    -----------------------

    Doubly Occupied:

       1A    -20.558303     2A    -11.329768     3A    -11.249757
       4A    -11.247932     5A    -11.245756     6A    -11.245263
       7A    -11.242867     8A    -11.241460     9A     -1.413375
      10A     -1.175631    11A     -1.050050    12A     -1.034525
      13A     -0.891295    14A     -0.846421    15A     -0.796473
      16A     -0.725546    17A     -0.681217    18A     -0.657188
      19A     -0.634951    20A     -0.621531    21A     -0.605220
      22A     -0.549583    23A     -0.530597    24A     -0.512664
      25A     -0.507605    26A     -0.426393    27A     -0.353423
      28A     -0.351759

  @DF-RHF Final Energy:  -343.54331808825009

   => Energetics <=

    Nuclear Repulsion Energy =            323.8258943866142090
    One-Electron Energy =               -1107.2853140427394010
    Two-Electron Energy =                 439.9161015678748754
    DFT Exchange-Correlation Energy =       0.0000000000000000
    Empirical Dispersion Energy =           0.0000000000000000
    PCM Polarization Energy =               0.0000000000000000
    EFP Energy =                            0.0000000000000000
    Total Energy =                       -343.5433180882503166
    Molecular point group: c1
  Basis Set: CC-PVTZ
  Basis Set:

  -Total Gradient:
     Atom            X                  Y                   Z
    ------   -----------------  -----------------  -----------------
       1       -0.000005319407    -0.000022400291    -0.000012851856
       2        0.000027345709     0.000127025778    -0.000014528781
       3       -0.000068272256     0.000049771128     0.000104576584
       4        0.000059031361    -0.000137327198    -0.000062306899
       5        0.000003508225    -0.000014596882    -0.000015142489
       6        0.000048250831    -0.000140429543    -0.000075317022
       7        0.000001769111     0.000016382484     0.000005653352
       8       -0.000633365098    -0.004491003622    -0.003488993495
       9        0.000004163261     0.000056347228     0.000020646518
      10        0.000720927345     0.006726328344     0.007435257872
      11        0.000005411940    -0.000007224140     0.000006917004
      12       -0.000086098463    -0.002436581020    -0.010975357530
      13        0.000038309291    -0.000006239634    -0.000012282702
      14       -0.000115661853     0.000279947364     0.007083729445

  **** Optimization is complete! (in 5 steps) ****
    Final optimized geometry and variables:
    Molecular point group: c1

    Geometry (in Angstrom), charge = 0, multiplicity = 1:

    H            3.288067634068    -0.443913888868    -0.041555159351
    C            2.232642389766    -0.249899916456    -0.028591193386
    C            1.425287227713    -0.886974011695     0.897927439637
    C            1.682654831913     0.630341637489    -0.940301180724
    H            1.854269514599    -1.574624413903     1.600923920260
    C            0.066120031129    -0.650853373020     0.907420755418
    H            2.306202919465     1.113802624288    -1.667187529016
    C            0.325243282440     0.888341109396    -0.912588078787
    H           -0.572705960081    -1.161762579922     1.600730014739
    C           -0.483649862037     0.257190790586     0.016195355539
    H           -0.102846713284     1.580237116880    -1.614557979907
    C           -1.958398418154     0.466778378982    -0.021933467433
    O           -2.750828170314    -0.405817110401     0.073442481513
    H           -2.287617632977     1.510163719646    -0.069122277509

  Mulliken Charges: (a.u.)
   Center  Symbol    Alpha    Beta     Spin     Total
       1     H     0.42024  0.42024  0.00000  0.15952
       2     C     3.07644  3.07644  0.00000 -0.15287
       3     C     3.06636  3.06636  0.00000 -0.13272
       4     C     3.06988  3.06988  0.00000 -0.13975
       5     H     0.42048  0.42048  0.00000  0.15905
       6     C     3.08800  3.08800  0.00000 -0.17599
       7     H     0.42076  0.42076  0.00000  0.15847
       8     C     3.09226  3.09226  0.00000 -0.18453
       9     H     0.41419  0.41419  0.00000  0.17162
      10     C     2.96211  2.96211  0.00000  0.07578
      11     H     0.42376  0.42376  0.00000  0.15249
      12     C     2.92643  2.92643  0.00000  0.14715
      13     O     4.16338  4.16338  0.00000 -0.32675
      14     H     0.45573  0.45573  0.00000  0.08855

   Total alpha = 28.00000, Total beta = 28.00000, Total charge =  0.00000
