  ==> Input File <==

--------------------------------------------------------------------------
set {
	reference rhf
	basis 6-31G*
}

set_num_threads( 4 )
memory 2 gb

molecule MOL {
0 1

O	 1.214711	 1.306902	 -0.000018
C	 1.122059	 0.121804	 -0.000188
C	 -0.170150	 -0.657997	 -0.000612
O	 2.172624	 -0.688929	 0.000216
C	 -1.412532	 0.227344	 -0.000452
H	 -0.153702	 -1.313099	 -0.867402
H	 -0.153924	 -1.313811	 0.865644
C	 -2.336824	 -0.067674	 -1.182829
H	 -1.109823	 1.269672	 -0.021038
H	 -1.951485	 0.088359	 0.931597
C	 -3.584805	 0.814086	 -1.189704
H	 -1.791645	 0.072317	 -2.114096
H	 -2.635012	 -1.113895	 -1.158840
H	 -3.320596	 1.865966	 -1.247977
H	 -4.222563	 0.585065	 -2.037696
H	 -4.170293	 0.670822	 -0.286200
C	 3.452279	 -0.082609	 0.000533
H	 3.583069	 0.529321	 -0.880332
H	 4.163299	 -0.894027	 0.001117
H	 3.582335	 0.529955	 0.881077

	symmetry c1
}
set optking {
	frozen_dihedral = ("
		9 5 3 6
	")
}

ee = optimize('scf')
oeprop('DIPOLE', 'QUADRUPOLE', 'MULLIKEN_CHARGES')
f=open( 'psi4out.xyz', 'w' )
f.write( "20  " )
f.write( str(ee) + "\n" )
f.write( MOL.save_string_xyz() )
f.close()
--------------------------------------------------------------------------

    Molecular point group: c1
  Charge       = 0
  Multiplicity = 1
  Basis Set: 6-31G*
  Basis Set:
  @DF-RHF Final Energy:  -383.93673187272753
    Total Energy =                       -383.9367318727274778
    Molecular point group: c1
  Basis Set: 6-31G*
  Basis Set:
  Basis Set: 6-31G*
  Basis Set:
  @DF-RHF Final Energy:  -383.93700207197560
    Total Energy =                       -383.9370020719758259
  Basis Set: 6-31G*
  Basis Set:
  Basis Set: 6-31G*
  Basis Set:
  @DF-RHF Final Energy:  -383.93688686268297
    Total Energy =                       -383.9368868626828544
  Basis Set: 6-31G*
  Basis Set:
  Basis Set: 6-31G*
  Basis Set:
  @DF-RHF Final Energy:  -383.93710943105049
    Total Energy =                       -383.9371094310508852
  Basis Set: 6-31G*
  Basis Set:
  Basis Set: 6-31G*
  Basis Set:
  @DF-RHF Final Energy:  -383.93711193460950
    Total Energy =                       -383.9371119346095611
  Basis Set: 6-31G*
  Basis Set:
  Basis Set: 6-31G*
  Basis Set:
  @DF-RHF Final Energy:  -383.93711294240035
    Total Energy =                       -383.9371129424002902
  Basis Set: 6-31G*
  Basis Set:
  Charge       = 0
  Multiplicity = 1
  Basis Set: 6-31G*
  Basis Set:

    Orbital Energies (a.u.)
    -----------------------

    Doubly Occupied:

       1A    -20.604049     2A    -20.546439     3A    -11.373343
       4A    -11.281144     5A    -11.235500     6A    -11.219012
       7A    -11.217404     8A    -11.209335     9A     -1.470060
      10A     -1.363456    11A     -1.085710    12A     -1.023929
      13A     -0.968060    14A     -0.885921    15A     -0.804681
      16A     -0.767037    17A     -0.701165    18A     -0.681090
      19A     -0.672727    20A     -0.635542    21A     -0.602468
      22A     -0.591250    23A     -0.578943    24A     -0.545658
      25A     -0.529581    26A     -0.518754    27A     -0.507364
      28A     -0.477771    29A     -0.468532    30A     -0.463374
      31A     -0.457512    32A     -0.439480

  @DF-RHF Final Energy:  -383.93711344240216

   => Energetics <=

    Nuclear Repulsion Energy =            382.4684256708678731
    One-Electron Energy =               -1280.9584941249290750
    Two-Electron Energy =                 514.5529550116588098
    DFT Exchange-Correlation Energy =       0.0000000000000000
    Empirical Dispersion Energy =           0.0000000000000000
    PCM Polarization Energy =               0.0000000000000000
    EFP Energy =                            0.0000000000000000
    Total Energy =                       -383.9371134424023921
    Molecular point group: c1
  Basis Set: 6-31G*
  Basis Set:

  -Total Gradient:
     Atom            X                  Y                   Z
    ------   -----------------  -----------------  -----------------
       1       -0.000021908935    -0.000038236623    -0.000000289034
       2       -0.000059863262     0.000154362985     0.000010200552
       3        0.000187102149     0.000290338783    -0.000155957317
       4        0.000073462631    -0.000091133833    -0.000005951176
       5       -0.000037923066    -0.000053964007    -0.000363132279
       6       -0.000169954510    -0.000261252549     0.000186384871
       7        0.000010692989     0.000003927738     0.000009357190
       8        0.000014907038    -0.000003012113    -0.000026936326
       9        0.000016321077     0.000004246170     0.000346522171
      10        0.000006466684    -0.000001299403    -0.000009714602
      11        0.000006047993    -0.000005565439     0.000017166746
      12       -0.000008799130     0.000004732208    -0.000004073772
      13        0.000011193714     0.000002242298    -0.000008185549
      14        0.000003526577    -0.000005030124    -0.000003463132
      15       -0.000007035551    -0.000000484802     0.000004377874
      16       -0.000004116467     0.000001909962     0.000002647531
      17       -0.000020088713     0.000000843138     0.000001240099
      18        0.000000882330     0.000000163925    -0.000000253400
      19       -0.000001489745    -0.000003065816    -0.000000075810
      20        0.000000576193     0.000000277502     0.000000135364

  **** Optimization is complete! (in 7 steps) ****
    Final optimized geometry and variables:
    Molecular point group: c1

    Geometry (in Angstrom), charge = 0, multiplicity = 1:

    O            1.157129699252     1.185353782014     0.250251201842
    C            1.043707839740     0.002755677672     0.287527853210
    C           -0.254929380180    -0.771451098860     0.288873739464
    O            2.082254889156    -0.822624777926     0.328077147689
    C           -1.520686810806     0.101214809748     0.286600576171
    H           -0.222505774723    -1.426647938439    -0.577153653287
    H           -0.222670530563    -1.434378176476     1.147284994580
    C           -2.452831664669    -0.192693145297    -0.891346560378
    H           -1.232676579963     1.144926934590     0.267961421718
    H           -2.063876191099    -0.050444376852     1.215023758412
    C           -3.713715400001     0.669181686492    -0.874193303691
    H           -1.914448935980    -0.027622464410    -1.822270433349
    H           -2.733136022294    -1.244194895627    -0.881461411353
    H           -3.465323936674     1.725580569368    -0.917127239616
    H           -4.354852494138     0.444365737264    -1.720806978509
    H           -4.290499392006     0.502085684943     0.031195582196
    C            3.370891873586    -0.235749536717     0.323800968580
    H            3.521684819676     0.343718455008    -0.575627338595
    H            4.069188756023    -1.057322202429     0.360704903603
    H            3.499826869626     0.404299358541     1.184704861714

  Mulliken Charges: (a.u.)
   Center  Symbol    Alpha    Beta     Spin     Total
       1     O     4.28480  4.28480  0.00000 -0.56960
       2     C     2.61306  2.61306  0.00000  0.77389
       3     C     3.21002  3.21002  0.00000 -0.42003
       4     O     4.30528  4.30528  0.00000 -0.61055
       5     C     3.16080  3.16080  0.00000 -0.32160
       6     H     0.39777  0.39777  0.00000  0.20445
       7     H     0.39724  0.39724  0.00000  0.20552
       8     C     3.15557  3.15557  0.00000 -0.31113
       9     H     0.39420  0.39420  0.00000  0.21160
      10     H     0.41923  0.41923  0.00000  0.16153
      11     C     3.24059  3.24059  0.00000 -0.48118
      12     H     0.42071  0.42071  0.00000  0.15858
      13     H     0.42348  0.42348  0.00000  0.15304
      14     H     0.41846  0.41846  0.00000  0.16307
      15     H     0.41873  0.41873  0.00000  0.16254
      16     H     0.42153  0.42153  0.00000  0.15693
      17     C     3.09202  3.09202  0.00000 -0.18404
      18     H     0.40912  0.40912  0.00000  0.18177
      19     H     0.40845  0.40845  0.00000  0.18309
      20     H     0.40895  0.40895  0.00000  0.18211

   Total alpha = 32.00000, Total beta = 32.00000, Total charge = -0.00000
