  ==> Input File <==

--------------------------------------------------------------------------
set {
	reference rhf
	basis cc-pvtz
}

set_num_threads( 4 )
memory 2 gb

molecule MOL {
0 1

H	 -2.816458	 -0.841657	 -0.064679
N	 -1.878861	 -0.711874	 0.250184
C	 -1.341419	 0.551458	 -0.220231
H	 -1.333674	 -1.468530	 -0.105118
C	 0.082190	 0.731516	 0.254705
H	 -1.357065	 0.652078	 -1.304747
H	 -1.939897	 1.357530	 0.189797
O	 0.881195	 -0.248324	 -0.336237
H	 0.440901	 1.722476	 -0.020063
H	 0.119896	 0.643586	 1.338114
C	 0.200022	 -1.114223	 -1.182075
H	 0.913084	 -1.824448	 -1.575152
H	 -0.578317	 -1.658379	 -0.651248
H	 -0.257971	 -0.581371	 -2.012059

	symmetry c1
}
set optking {
	frozen_dihedral = ("
		11 8 5 3
	")
}

ee = optimize('scf')
oeprop('DIPOLE', 'QUADRUPOLE', 'MULLIKEN_CHARGES')
f=open( 'psi4out.xyz', 'w' )
f.write( "14  " )
f.write( str(ee) + "\n" )
f.write( MOL.save_string_xyz() )
f.close()
--------------------------------------------------------------------------

    Molecular point group: c1
  Charge       = 0
  Multiplicity = 1
  Basis Set: CC-PVTZ
  Basis Set:
  @DF-RHF Final Energy:  -248.13363584877249
    Total Energy =                       -248.1336358487722578
    Molecular point group: c1
  Basis Set: CC-PVTZ
  Basis Set:
  Basis Set: CC-PVTZ
  Basis Set:
  @DF-RHF Final Energy:  -248.19095894315001
    Total Energy =                       -248.1909589431502354
  Basis Set: CC-PVTZ
  Basis Set:
  Basis Set: CC-PVTZ
  Basis Set:
  @DF-RHF Final Energy:  -248.20486116330616
    Total Energy =                       -248.2048611633061910
  Basis Set: CC-PVTZ
  Basis Set:
  Basis Set: CC-PVTZ
  Basis Set:
  @DF-RHF Final Energy:  -248.20810602688331
    Total Energy =                       -248.2081060268832289
  Basis Set: CC-PVTZ
  Basis Set:
  @DF-RHF Final Energy:  -248.20973285081908
    Total Energy =                       -248.2097328508187388
  @DF-RHF Final Energy:  -248.21027665982470
    Total Energy =                       -248.2102766598248991
  @DF-RHF Final Energy:  -248.21045168982965
    Total Energy =                       -248.2104516898294833
  @DF-RHF Final Energy:  -248.21054540521729
    Total Energy =                       -248.2105454052174309
  @DF-RHF Final Energy:  -248.21061551238444
    Total Energy =                       -248.2106155123842086
  Basis Set: CC-PVTZ
  Basis Set:
  @DF-RHF Final Energy:  -248.21071130344990
    Total Energy =                       -248.2107113034498411
  Basis Set: CC-PVTZ
  Basis Set:
  Basis Set: CC-PVTZ
  Basis Set:
  @DF-RHF Final Energy:  -248.21075453138647
    Total Energy =                       -248.2107545313863284
  Basis Set: CC-PVTZ
  Basis Set:
  Basis Set: CC-PVTZ
  Basis Set:
  @DF-RHF Final Energy:  -248.21076131601788
    Total Energy =                       -248.2107613160181359
  Basis Set: CC-PVTZ
  Basis Set:
  Charge       = 0
  Multiplicity = 1
  Basis Set: CC-PVTZ
  Basis Set:

    Orbital Energies (a.u.)
    -----------------------

    Doubly Occupied:

       1A    -20.541620     2A    -15.534641     3A    -11.264781
       4A    -11.263181     5A    -11.249192     6A     -1.370795
       7A     -1.184755     8A     -1.003586     9A     -0.923690
      10A     -0.805102    11A     -0.687903    12A     -0.676302
      13A     -0.644280    14A     -0.614845    15A     -0.611127
      16A     -0.548490    17A     -0.536337    18A     -0.520951
      19A     -0.453724    20A     -0.408410    21A     -0.392446

  @DF-RHF Final Energy:  -248.21076175735047

   => Energetics <=

    Nuclear Repulsion Energy =            196.5783240955672397
    One-Electron Energy =                -727.1058493720682918
    Two-Electron Energy =                 282.3167635191505838
    DFT Exchange-Correlation Energy =       0.0000000000000000
    Empirical Dispersion Energy =           0.0000000000000000
    PCM Polarization Energy =               0.0000000000000000
    EFP Energy =                            0.0000000000000000
    Total Energy =                       -248.2107617573504399
    Molecular point group: c1
  Basis Set: CC-PVTZ
  Basis Set:

  -Total Gradient:
     Atom            X                  Y                   Z
    ------   -----------------  -----------------  -----------------
       1       -0.000009597090    -0.000008422733     0.000000646698
       2       -0.000004069166     0.000003799163     0.000025057056
       3        0.000070083694     0.000308675940    -0.000343501711
       4        0.000011498327    -0.000021110818    -0.000017379863
       5       -0.000175448705    -0.000607369077     0.000696084516
       6        0.000011404439    -0.000003014165     0.000012278029
       7        0.000004904993     0.000004783504    -0.000003631295
       8        0.000182330279     0.000636734399    -0.000757916216
       9       -0.000001447054     0.000001153686     0.000004618044
      10       -0.000000758976     0.000002825366     0.000000018728
      11       -0.000081432948    -0.000332943194     0.000405731079
      12        0.000006011652    -0.000006644783    -0.000014560934
      13       -0.000014580447     0.000014813644     0.000003753836
      14        0.000001101006     0.000006719068    -0.000011197967

  **** Optimization is complete! (in 13 steps) ****
    Final optimized geometry and variables:
    Molecular point group: c1

    Geometry (in Angstrom), charge = 0, multiplicity = 1:

    H           -2.708883298015    -0.249242464605     0.556387602158
    N           -1.724426788827    -0.356491084193     0.676757642197
    C           -1.008240100188     0.758600789613     0.078192684269
    H           -1.471987856926    -1.228792471170     0.267423844028
    C            0.457543260342     0.819837917442     0.480170326223
    H           -1.108024612384     0.811099086612    -1.004094629556
    H           -1.449925670198     1.668488193514     0.468130097632
    O            1.365764938096    -0.080090173726    -0.109775142935
    H            0.818174390218     1.817391973388     0.250171231815
    H            0.515671790870     0.683615173522     1.553172454889
    C            0.971677372603    -1.023867809870    -1.047421027262
    H            1.875885037304    -1.474297057746    -1.431713520993
    H            0.367977910245    -1.816006269497    -0.613211932103
    H            0.432678363457    -0.591135661421    -1.884031673009

  Mulliken Charges: (a.u.)
   Center  Symbol    Alpha    Beta     Spin     Total
       1     H     0.42789  0.42789  0.00000  0.14422
       2     N     3.68838  3.68838  0.00000 -0.37676
       3     C     3.06386  3.06386  0.00000 -0.12772
       4     H     0.42791  0.42791  0.00000  0.14419
       5     C     2.95767  2.95767  0.00000  0.08466
       6     H     0.45582  0.45582  0.00000  0.08837
       7     H     0.44647  0.44647  0.00000  0.10706
       8     O     4.18325  4.18325  0.00000 -0.36651
       9     H     0.46552  0.46552  0.00000  0.06896
      10     H     0.46205  0.46205  0.00000  0.07589
      11     C     3.03719  3.03719  0.00000 -0.07439
      12     H     0.43874  0.43874  0.00000  0.12253
      13     H     0.47519  0.47519  0.00000  0.04963
      14     H     0.47006  0.47006  0.00000  0.05987

   Total alpha = 21.00000, Total beta = 21.00000, Total charge = -0.00000
