                              Psi4 1.0.54 Driver

  ==> Input File <==

--------------------------------------------------------------------------
set {
	reference rhf
	basis cc-pvtz
}

set_num_threads( 4 )
memory 2 gb

molecule MOL {
0 1

H	 -2.390071	 1.102475	 1.683398
C	 -1.718825	 1.375466	 2.494440
O	 -0.413701	 0.984317	 2.227617
H	 -1.725991	 2.450020	 2.604760
H	 -2.090682	 0.927305	 3.414092
C	 -0.246578	 -0.386343	 2.069517
C	 1.179918	 -0.685228	 1.682061
H	 -0.475215	 -0.904269	 3.000886
H	 -0.913743	 -0.769289	 1.300313
O	 1.401606	 -0.295166	 0.366636
H	 1.851494	 -0.159955	 2.357712
H	 1.359369	 -1.754459	 1.793931
C	 2.714315	 -0.441627	 -0.061017
H	 2.765292	 -0.641548	 -1.128869
H	 3.305661	 0.447341	 0.150952
H	 3.143725	 -1.278506	 0.470147

	symmetry c1
}
set optking {
	frozen_dihedral = ("
		7 10 13 14
	")
}

ee,wfn = optimize('scf', return_wfn=True)
oeprop( wfn, 'DIPOLE', 'QUADRUPOLE', 'MULLIKEN_CHARGES')
f=open( 'psi4out.xyz', 'w' )
f.write( "16  " )
f.write( str(ee) + "\n" )
f.write( MOL.save_string_xyz() )
f.close()
--------------------------------------------------------------------------

    Molecular point group: c1
  Charge       = 0
  Multiplicity = 1
  Basis Set: CC-PVTZ
  Basis Set:
  @DF-RHF Final Energy:  -307.09516129113587
    Total Energy =                       -307.0951612911358666
    Molecular point group: c1
  Basis Set: CC-PVTZ
  Basis Set:
  Basis Set: CC-PVTZ
  Basis Set:
  @DF-RHF Final Energy:  -307.09595964495634
    Total Energy =                       -307.0959596449562810
  Basis Set: CC-PVTZ
  Basis Set:
  Basis Set: CC-PVTZ
  Basis Set:
  @DF-RHF Final Energy:  -307.09617790379093
    Total Energy =                       -307.0961779037908173
  Basis Set: CC-PVTZ
  Basis Set:
  Charge       = 0
  Multiplicity = 1
  Basis Set: CC-PVTZ
  Basis Set:

    Orbital Energies (a.u.)
    -----------------------

    Doubly Occupied:

       1A    -20.547671     2A    -20.546027     3A    -11.267625
       4A    -11.266765     5A    -11.261484     6A    -11.261327
       7A     -1.390636     8A     -1.373211     9A     -1.031893
      10A     -0.937167    11A     -0.892240    12A     -0.824247
      13A     -0.685843    14A     -0.682109    15A     -0.658810
      16A     -0.636923    17A     -0.632102    18A     -0.597254
      19A     -0.552482    20A     -0.538739    21A     -0.508228
      22A     -0.479269    23A     -0.464421    24A     -0.421896
      25A     -0.412526

  @DF-RHF Final Energy:  -307.09617899108383

   => Energetics <=

    Nuclear Repulsion Energy =            258.7713694068054906
    One-Electron Energy =                -931.9933093640071320
    Two-Electron Energy =                 366.1257609661178094
    DFT Exchange-Correlation Energy =       0.0000000000000000
    Empirical Dispersion Energy =           0.0000000000000000
    PCM Polarization Energy =               0.0000000000000000
    EFP Energy =                            0.0000000000000000
    Total Energy =                       -307.0961789910837751
    Molecular point group: c1
  Basis Set: CC-PVTZ
  Basis Set:

  -Total Gradient:
     Atom            X                  Y                   Z
    ------   -----------------  -----------------  -----------------
       1        0.000001734453    -0.000000679984    -0.000001449188
       2        0.000000916016    -0.000002228805     0.000006152804
       3        0.000000836034    -0.000003884263     0.000016263721
       4        0.000001615995    -0.000001565636    -0.000000672539
       5       -0.000003644797     0.000001324581     0.000000992401
       6       -0.000011141597     0.000039910603    -0.000119291874
       7       -0.000366557646    -0.002186464668    -0.000666864484
       8        0.000040375842     0.000001296270    -0.000011667157
       9       -0.000026393831    -0.000013961253    -0.000000967372
      10        0.000687385920     0.002394887824     0.001111219409
      11        0.000019848468     0.000001761149    -0.000018475192
      12        0.000004371596     0.000008216123    -0.000035676724
      13       -0.000189296695     0.002554592732    -0.000822988022
      14       -0.000149832318    -0.002805924594     0.000529353685
      15       -0.000007230664     0.000022536902    -0.000003844052
      16       -0.000002986776    -0.000009816982     0.000017914580

  **** Optimization is complete! (in 4 steps) ****
    Final optimized geometry and variables:
    Molecular point group: c1

    Geometry (in Angstrom), charge = 0, multiplicity = 1:

    H           -2.883539605165     0.975397383587     0.233981436910
    C           -2.214504915822     1.252357114807     1.045486034387
    O           -0.905793522658     0.874904915715     0.776591709647
    H           -2.232157257071     2.326421801856     1.159314094097
    H           -2.581346571991     0.797588931312     1.963926471857
    C           -0.725260440686    -0.493515479279     0.613974197720
    C            0.703394916184    -0.777445632253     0.223753474156
    H           -0.947069968214    -1.016522055396     1.544225301451
    H           -1.389658037922    -0.880826274244    -0.155441013860
    O            0.915361764482    -0.384568479350    -1.093073533641
    H            1.368839333185    -0.246386016773     0.900950239415
    H            0.893663208093    -1.844518728030     0.332093282788
    C            2.226539930651    -0.506255905170    -1.541911674518
    H            2.204666780518    -0.700186187312    -2.605489392131
    H            2.796271194839     0.397816849907    -1.348178221563
    H            2.735526177038    -1.341363843587    -1.066410808348

  Mulliken Charges: (a.u.)
   Center  Symbol    Alpha    Beta     Spin     Total
       1     H     0.47015  0.47015  0.00000  0.05970
       2     C     3.03201  3.03201  0.00000 -0.06403
       3     O     4.17052  4.17052  0.00000 -0.34105
       4     H     0.44639  0.44639  0.00000  0.10722
       5     H     0.47370  0.47370  0.00000  0.05261
       6     C     2.96184  2.96184  0.00000  0.07631
       7     C     2.95968  2.95968  0.00000  0.08063
       8     H     0.47609  0.47609  0.00000  0.04781
       9     H     0.47097  0.47097  0.00000  0.05806
      10     O     4.17297  4.17297  0.00000 -0.34594
      11     H     0.47135  0.47135  0.00000  0.05730
      12     H     0.47530  0.47530  0.00000  0.04939
      13     C     3.02957  3.02957  0.00000 -0.05915
      14     H     0.45115  0.45115  0.00000  0.09771
      15     H     0.46261  0.46261  0.00000  0.07477
      16     H     0.47568  0.47568  0.00000  0.04864

   Total alpha = 25.00000, Total beta = 25.00000, Total charge = -0.00000

*** Psi4 exiting successfully. Buy a developer a beer!
