  ==> Input File <==

--------------------------------------------------------------------------
set {
	reference rhf
	basis 6-31G*
}

set_num_threads( 1 )
memory 2 gb

molecule MOL {
0 1

H	 1.575581	 -0.127639	 -1.261684
O	 1.654024	 -0.625927	 -0.460906
C	 1.135793	 0.118896	 0.612333
C	 0.031547	 1.023609	 0.088541
H	 1.915668	 0.729681	 1.063582
H	 0.754543	 -0.542641	 1.387006
C	 -1.134819	 0.293262	 -0.585751
H	 0.474374	 1.714721	 -0.623187
H	 -0.338529	 1.620940	 0.920081
C	 -1.917817	 -0.639439	 0.339494
H	 -0.758119	 -0.268455	 -1.433105
H	 -1.813832	 1.041889	 -0.986690
H	 -2.777680	 -1.057197	 -0.174994
H	 -1.310268	 -1.471279	 0.680599
H	 -2.283753	 -0.111424	 1.216626

	symmetry c1
}
set optking {
	frozen_dihedral = ("
		8 4 7 11,
		2 3 4 8
	")
}

ee = energy('scf')
oeprop('DIPOLE', 'QUADRUPOLE', 'MULLIKEN_CHARGES')
f=open( 'psi4out.xyz', 'w' )
f.write( "15  " )
f.write( str(ee) + "\n" )
f.write( MOL.save_string_xyz() )
f.close()
--------------------------------------------------------------------------

    Molecular point group: c1

    Geometry (in Angstrom), charge = 0, multiplicity = 1:

       Center              X                  Y                   Z               Mass
    ------------   -----------------  -----------------  -----------------  -----------------
           H          1.585912572245    -0.142284579010    -1.246532140859     1.007825032070
           O          1.664355572245    -0.640572579010    -0.445754140859    15.994914619560
           C          1.146124572245     0.104250420990     0.627484859141    12.000000000000
           C          0.041878572245     1.008963420990     0.103692859141    12.000000000000
           H          1.925999572245     0.715035420990     1.078733859141     1.007825032070
           H          0.764874572245    -0.557286579010     1.402157859141     1.007825032070
           C         -1.124487427755     0.278616420990    -0.570599140859    12.000000000000
           H          0.484705572245     1.700075420990    -0.608035140859     1.007825032070
           H         -0.328197427755     1.606294420990     0.935232859141     1.007825032070
           C         -1.907485427755    -0.654084579010     0.354645859141    12.000000000000
           H         -0.747787427755    -0.283100579010    -1.417953140859     1.007825032070
           H         -1.803500427755     1.027243420990    -0.971538140859     1.007825032070
           H         -2.767348427755    -1.071842579010    -0.159842140859     1.007825032070
           H         -1.299936427755    -1.485924579010     0.695750859141     1.007825032070
           H         -2.273421427755    -0.126069579010     1.231777859141     1.007825032070

  Charge       = 0
  Multiplicity = 1
  Basis Set: 6-31G*
  Basis Set:

    Orbital Energies (a.u.)
    -----------------------

    Doubly Occupied:

       1A    -20.550987     2A    -11.268100     3A    -11.221724
       4A    -11.220486     5A    -11.210837     6A     -1.360175
       7A     -1.071198     8A     -0.973972     9A     -0.880876
      10A     -0.791098    11A     -0.666863    12A     -0.651025
      13A     -0.640385    14A     -0.584952    15A     -0.569011
      16A     -0.547768    17A     -0.503072    18A     -0.482087
      19A     -0.478026    20A     -0.455050    21A     -0.430090

  @DF-RHF Final Energy:  -232.14038739707641

   => Energetics <=

    Nuclear Repulsion Energy =            192.8266899597283270
    One-Electron Energy =                -696.8186103785421892
    Two-Electron Energy =                 271.8515330217364863
    DFT Exchange-Correlation Energy =       0.0000000000000000
    Empirical Dispersion Energy =           0.0000000000000000
    PCM Polarization Energy =               0.0000000000000000
    EFP Energy =                            0.0000000000000000
    Total Energy =                       -232.1403873970773475

  Mulliken Charges: (a.u.)
   Center  Symbol    Alpha    Beta     Spin     Total
       1     H     0.28003  0.28003  0.00000  0.43994
       2     O     4.37299  4.37299  0.00000 -0.74598
       3     C     2.98406  2.98406  0.00000  0.03188
       4     C     3.18668  3.18668  0.00000 -0.37337
       5     H     0.42643  0.42643  0.00000  0.14714
       6     H     0.41770  0.41770  0.00000  0.16461
       7     C     3.14955  3.14955  0.00000 -0.29909
       8     H     0.42368  0.42368  0.00000  0.15263
       9     H     0.42010  0.42010  0.00000  0.15981
      10     C     3.24402  3.24402  0.00000 -0.48805
      11     H     0.41997  0.41997  0.00000  0.16007
      12     H     0.42008  0.42008  0.00000  0.15983
      13     H     0.41761  0.41761  0.00000  0.16478
      14     H     0.41418  0.41418  0.00000  0.17164
      15     H     0.42293  0.42293  0.00000  0.15415

   Total alpha = 21.00000, Total beta = 21.00000, Total charge =  0.00000
