  ==> Input File <==

--------------------------------------------------------------------------
set {
	reference rhf
	basis 6-31G*
}

set_num_threads( 1 )
memory 2 gb

molecule MOL {
0 1

H	 -2.528070	 -0.435807	 -0.504577
N	 -1.852125	 0.165761	 -0.074816
C	 -0.563778	 -0.502042	 0.037919
H	 -2.207575	 0.398974	 0.832941
C	 0.575259	 0.508231	 -0.048326
H	 -0.482092	 -1.204004	 -0.786564
H	 -0.460411	 -1.085169	 0.956626
C	 1.954651	 -0.143624	 0.035137
H	 0.475158	 1.060484	 -0.977307
H	 0.469181	 1.234488	 0.755973
H	 2.103292	 -0.853109	 -0.774172
H	 2.742821	 0.599562	 -0.030094
H	 2.083613	 -0.679371	 0.971560

	symmetry c1
}
set optking {
	frozen_dihedral = ("
		6 3 5 9
	")
}

ee = energy('scf')
oeprop('DIPOLE', 'QUADRUPOLE', 'MULLIKEN_CHARGES')
f=open( 'psi4out.xyz', 'w' )
f.write( "13  " )
f.write( str(ee) + "\n" )
f.write( MOL.save_string_xyz() )
f.close()
--------------------------------------------------------------------------

    Molecular point group: c1

    Geometry (in Angstrom), charge = 0, multiplicity = 1:

       Center              X                  Y                   Z               Mass
    ------------   -----------------  -----------------  -----------------  -----------------
           H         -2.525890353937    -0.430736174523    -0.499447277643     1.007825032070
           N         -1.849945353937     0.170831825477    -0.069686277643    14.003074004780
           C         -0.561598353937    -0.496971174523     0.043048722357    12.000000000000
           H         -2.205395353937     0.404044825477     0.838070722357     1.007825032070
           C          0.577438646063     0.513301825477    -0.043196277643    12.000000000000
           H         -0.479912353937    -1.198933174523    -0.781434277643     1.007825032070
           H         -0.458231353937    -1.080098174523     0.961755722357     1.007825032070
           C          1.956830646063    -0.138553174523     0.040266722357    12.000000000000
           H          0.477337646063     1.065554825477    -0.972177277643     1.007825032070
           H          0.471360646063     1.239558825477     0.761102722357     1.007825032070
           H          2.105471646063    -0.848038174523    -0.769042277643     1.007825032070
           H          2.745000646063     0.604632825477    -0.024964277643     1.007825032070
           H          2.085792646063    -0.674300174523     0.976689722357     1.007825032070

  Charge       = 0
  Multiplicity = 1
  Basis Set: 6-31G*
  Basis Set:

    Orbital Energies (a.u.)
    -----------------------

    Doubly Occupied:

       1A    -15.532924     2A    -11.240372     3A    -11.206940
       4A    -11.206184     5A     -1.176782     6A     -1.032773
       7A     -0.897611     8A     -0.795042     9A     -0.671717
      10A     -0.618350    11A     -0.601144    12A     -0.570966
      13A     -0.520793    14A     -0.488471    15A     -0.482221
      16A     -0.464488    17A     -0.380867

  @DF-RHF Final Energy:  -173.28080839450601

   => Energetics <=

    Nuclear Repulsion Energy =            131.6665261846607393
    One-Electron Energy =                -494.1195127602943558
    Two-Electron Energy =                 189.1721781811275775
    DFT Exchange-Correlation Energy =       0.0000000000000000
    Empirical Dispersion Energy =           0.0000000000000000
    PCM Polarization Energy =               0.0000000000000000
    EFP Energy =                            0.0000000000000000
    Total Energy =                       -173.2808083945060673

  Mulliken Charges: (a.u.)
   Center  Symbol    Alpha    Beta     Spin     Total
       1     H     0.33161  0.33161  0.00000  0.33678
       2     N     3.92222  3.92222  0.00000 -0.84445
       3     C     3.06573  3.06573  0.00000 -0.13147
       4     H     0.33367  0.33367  0.00000  0.33267
       5     C     3.14206  3.14206  0.00000 -0.28413
       6     H     0.42338  0.42338  0.00000  0.15324
       7     H     0.43174  0.43174  0.00000  0.13651
       8     C     3.24526  3.24526  0.00000 -0.49051
       9     H     0.41520  0.41520  0.00000  0.16960
      10     H     0.42509  0.42509  0.00000  0.14982
      11     H     0.42265  0.42265  0.00000  0.15470
      12     H     0.41803  0.41803  0.00000  0.16394
      13     H     0.42335  0.42335  0.00000  0.15329

   Total alpha = 17.00000, Total beta = 17.00000, Total charge =  0.00000
