                              Psi4 1.0.54 Driver

  ==> Input File <==

--------------------------------------------------------------------------
set {
	reference rhf
	basis cc-pvtz
}

set_num_threads( 4 )
memory 2 gb

molecule MOL {
0 1

H	 -2.448367	 -0.006097	 0.894487
O	 -2.313989	 -0.142475	 -0.025864
C	 -0.943808	 -0.065018	 -0.330000
H	 -0.812293	 -0.225641	 -1.398673
C	 -0.231030	 -1.182113	 0.407592
C	 -0.353797	 1.300461	 0.050970
H	 -0.312800	 -0.992012	 1.473041
H	 -0.738841	 -2.119564	 0.220514
C	 1.246176	 -1.268044	 -0.015480
H	 -0.539537	 2.008579	 -0.751815
H	 -0.889989	 1.662858	 0.920677
C	 1.153605	 1.231851	 0.356834
H	 1.823096	 -1.684665	 0.802361
H	 1.352335	 -1.958223	 -0.845114
C	 1.826409	 0.100723	 -0.416008
H	 1.622968	 2.181508	 0.128734
H	 1.301983	 1.066493	 1.419367
H	 2.897299	 0.112407	 -0.249665
H	 1.683458	 0.265621	 -1.480024

	symmetry c1
}
set optking {
	frozen_dihedral = ("
		1 2 3 4
	")
}

ee,wfn = optimize('scf', return_wfn=True)
oeprop( wfn, 'DIPOLE', 'QUADRUPOLE', 'MULLIKEN_CHARGES')
f=open( 'psi4out.xyz', 'w' )
f.write( "19  " )
f.write( str(ee) + "\n" )
f.write( MOL.save_string_xyz() )
f.close()
--------------------------------------------------------------------------

    Molecular point group: c1
  Charge       = 0
  Multiplicity = 1
  Basis Set: CC-PVTZ
  Basis Set:
  @DF-RHF Final Energy:  -309.16145274918733
    Total Energy =                       -309.1614527491867648
    Molecular point group: c1
  Basis Set: CC-PVTZ
  Basis Set:
  Basis Set: CC-PVTZ
  Basis Set:
  @DF-RHF Final Energy:  -309.16298305554756
    Total Energy =                       -309.1629830555474996
  Basis Set: CC-PVTZ
  Basis Set:
  Basis Set: CC-PVTZ
  Basis Set:
  @DF-RHF Final Energy:  -309.16330513972878
    Total Energy =                       -309.1633051397290046
  Basis Set: CC-PVTZ
  Basis Set:
  Basis Set: CC-PVTZ
  Basis Set:
  @DF-RHF Final Energy:  -309.16330928139774
    Total Energy =                       -309.1633092813980852
  Basis Set: CC-PVTZ
  Basis Set:
  Charge       = 0
  Multiplicity = 1
  Basis Set: CC-PVTZ
  Basis Set:

    Orbital Energies (a.u.)
    -----------------------

    Doubly Occupied:

       1A    -20.542989     2A    -11.267313     3A    -11.216519
       4A    -11.216218     5A    -11.215076     6A    -11.212966
       7A    -11.211721     8A     -1.363496     9A     -1.111450
      10A     -1.005192    11A     -0.989653    12A     -0.848577
      13A     -0.840673    14A     -0.753492    15A     -0.674451
      16A     -0.665354    17A     -0.618942    18A     -0.598602
      19A     -0.581101    20A     -0.564116    21A     -0.532479
      22A     -0.521405    23A     -0.502478    24A     -0.493176
      25A     -0.466580    26A     -0.450738    27A     -0.432476
      28A     -0.409533

  @DF-RHF Final Energy:  -309.16330973670392

   => Energetics <=

    Nuclear Repulsion Energy =            331.8277881768530051
    One-Electron Energy =               -1077.3686599328698321
    Two-Electron Energy =                 436.3775620193131317
    DFT Exchange-Correlation Energy =       0.0000000000000000
    Empirical Dispersion Energy =           0.0000000000000000
    PCM Polarization Energy =               0.0000000000000000
    EFP Energy =                            0.0000000000000000
    Total Energy =                       -309.1633097367036953
    Molecular point group: c1
  Basis Set: CC-PVTZ
  Basis Set:

  -Total Gradient:
     Atom            X                  Y                   Z
    ------   -----------------  -----------------  -----------------
       1        0.000026169448    -0.000014326032    -0.000017894144
       2       -0.000018768479    -0.000010737555     0.000003198980
       3       -0.000003520349     0.000012490432     0.000043169924
       4        0.000014718322    -0.000015130476     0.000006966612
       5       -0.000022808897    -0.000006391474    -0.000022096618
       6        0.000037600239    -0.000011774932     0.000014518039
       7        0.000001225809    -0.000002936164    -0.000020488395
       8        0.000000273651    -0.000010033159     0.000009148000
       9       -0.000020789861    -0.000012094969     0.000048949953
      10        0.000014489311     0.000023348214    -0.000007370452
      11        0.000010541162    -0.000007783074    -0.000009037763
      12       -0.000014230244     0.000033776253    -0.000030722321
      13        0.000012069856    -0.000024823695    -0.000001423195
      14       -0.000012163845     0.000004122538    -0.000000316294
      15       -0.000009831046     0.000022349668    -0.000025037961
      16        0.000000783042     0.000013994565     0.000014407200
      17       -0.000010881662     0.000000879708    -0.000001719717
      18       -0.000012366673    -0.000002581167     0.000002157212
      19        0.000007490222     0.000007651321    -0.000006409060

  **** Optimization is complete! (in 5 steps) ****
    Final optimized geometry and variables:
    Molecular point group: c1

    Geometry (in Angstrom), charge = 0, multiplicity = 1:

    H           -2.516935447693     0.054317416141     0.835425901839
    O           -2.338185952758    -0.090179641974    -0.076767316755
    C           -0.952178336300    -0.066019988072    -0.300659881221
    H           -0.850814515401    -0.239411663341    -1.365138294508
    C           -0.223399687713    -1.180481242098     0.435698448074
    C           -0.346983306718     1.300489983231     0.047754509351
    H           -0.274627378978    -0.983118031331     1.504719791485
    H           -0.736335302429    -2.119315431967     0.268727686048
    C            1.246209541056    -1.275434295629    -0.014417039719
    H           -0.562979889214     1.996051164063    -0.755037451711
    H           -0.852423353005     1.685909581161     0.928734147985
    C            1.168053401016     1.230657206236     0.312879451326
    H            1.842240726150    -1.671985795152     0.799781058816
    H            1.333864824869    -1.985044089875    -0.829461244616
    C            1.814110618914     0.084172611520    -0.460070956735
    H            1.633888834557     2.174519909273     0.055650564023
    H            1.349008451841     1.082077976182     1.373281608467
    H            2.889834556513     0.096323743058    -0.329024814657
    H            1.636343666916     0.228981015256    -1.521546509869

  Mulliken Charges: (a.u.)
   Center  Symbol    Alpha    Beta     Spin     Total
       1     H     0.39575  0.39575  0.00000  0.20850
       2     O     4.20700  4.20700  0.00000 -0.41400
       3     C     2.93762  2.93762  0.00000  0.12476
       4     H     0.44111  0.44111  0.00000  0.11777
       5     C     3.10558  3.10558  0.00000 -0.21117
       6     C     3.11185  3.11185  0.00000 -0.22369
       7     H     0.46079  0.46079  0.00000  0.07842
       8     H     0.43943  0.43943  0.00000  0.12115
       9     C     3.11261  3.11261  0.00000 -0.22522
      10     H     0.44578  0.44578  0.00000  0.10844
      11     H     0.45436  0.45436  0.00000  0.09128
      12     C     3.10042  3.10042  0.00000 -0.20084
      13     H     0.44770  0.44770  0.00000  0.10459
      14     H     0.44581  0.44581  0.00000  0.10838
      15     C     3.10214  3.10214  0.00000 -0.20428
      16     H     0.44178  0.44178  0.00000  0.11644
      17     H     0.45452  0.45452  0.00000  0.09096
      18     H     0.44268  0.44268  0.00000  0.11465
      19     H     0.45307  0.45307  0.00000  0.09386

   Total alpha = 28.00000, Total beta = 28.00000, Total charge = -0.00000

*** Psi4 exiting successfully. Buy a developer a beer!
