  ==> Input File <==

--------------------------------------------------------------------------
set {
	reference rhf
	basis 6-31G*
}

set_num_threads( 4 )
memory 2 gb

molecule MOL {
0 1

O	 1.846825	 1.296220	 0.000415
C	 1.705091	 0.115954	 0.001797
C	 0.381791	 -0.609817	 0.001258
O	 2.721346	 -0.737485	 -0.000216
C	 -0.823008	 0.326187	 0.001381
H	 0.371250	 -1.265087	 -0.865474
H	 0.370908	 -1.265746	 0.867490
C	 -1.481300	 0.425078	 -1.375548
H	 -0.510305	 1.311469	 0.332478
H	 -1.546299	 -0.021986	 0.732090
C	 -2.691275	 1.360751	 -1.393810
H	 -0.749995	 0.771269	 -2.104480
H	 -1.790497	 -0.566398	 -1.703044
C	 -3.349330	 1.458205	 -2.769571
H	 -2.383539	 2.352299	 -1.069352
H	 -3.423084	 1.015743	 -0.666786
H	 -2.651473	 1.833841	 -3.512610
H	 -4.203374	 2.128040	 -2.750091
H	 -3.698891	 0.486496	 -3.107060
C	 4.024888	 -0.184556	 -0.001949
H	 4.179030	 0.422472	 -0.882452
H	 4.701782	 -1.024608	 -0.003642
H	 4.181981	 0.421185	 0.878906

	symmetry c1
}
set optking {
	frozen_dihedral = ("
		9 5 3 6
	")
}

ee = optimize('scf')
oeprop('DIPOLE', 'QUADRUPOLE', 'MULLIKEN_CHARGES')
f=open( 'psi4out.xyz', 'w' )
f.write( "23  " )
f.write( str(ee) + "\n" )
f.write( MOL.save_string_xyz() )
f.close()
--------------------------------------------------------------------------

    Molecular point group: c1
  Charge       = 0
  Multiplicity = 1
  Basis Set: 6-31G*
  Basis Set:
  @DF-RHF Final Energy:  -422.97254379644022
    Total Energy =                       -422.9725437964398225
    Molecular point group: c1
  Basis Set: 6-31G*
  Basis Set:
  Basis Set: 6-31G*
  Basis Set:
  @DF-RHF Final Energy:  -422.97291308859985
    Total Energy =                       -422.9729130885997392
  Basis Set: 6-31G*
  Basis Set:
  Basis Set: 6-31G*
  Basis Set:
  @DF-RHF Final Energy:  -422.97276749277199
    Total Energy =                       -422.9727674927713679
  Basis Set: 6-31G*
  Basis Set:
  Basis Set: 6-31G*
  Basis Set:
  @DF-RHF Final Energy:  -422.97300411915097
    Total Energy =                       -422.9730041191506871
  Basis Set: 6-31G*
  Basis Set:
  @DF-RHF Final Energy:  -422.97301140666224
    Total Energy =                       -422.9730114066619535
  Basis Set: 6-31G*
  Basis Set:
  @DF-RHF Final Energy:  -422.97301510485613
    Total Energy =                       -422.9730151048559037
  Basis Set: 6-31G*
  Basis Set:
  Basis Set: 6-31G*
  Basis Set:
  @DF-RHF Final Energy:  -422.97301766636446
    Total Energy =                       -422.9730176663646262
  Basis Set: 6-31G*
  Basis Set:
  Basis Set: 6-31G*
  Basis Set:
  @DF-RHF Final Energy:  -422.97301930059865
    Total Energy =                       -422.9730193005996171
  Basis Set: 6-31G*
  Basis Set:
  Charge       = 0
  Multiplicity = 1
  Basis Set: 6-31G*
  Basis Set:

    Orbital Energies (a.u.)
    -----------------------

    Doubly Occupied:

       1A    -20.604217     2A    -20.546311     3A    -11.372950
       4A    -11.281258     5A    -11.235529     6A    -11.217748
       7A    -11.214462     8A    -11.213619     9A    -11.207271
      10A     -1.470084    11A     -1.363392    12A     -1.090360
      13A     -1.041622    14A     -0.986163    15A     -0.930454
      16A     -0.843501    17A     -0.793586    18A     -0.766558
      19A     -0.701807    20A     -0.681034    21A     -0.672165
      22A     -0.640618    23A     -0.612897    24A     -0.598832
      25A     -0.569883    26A     -0.556215    27A     -0.554207
      28A     -0.530976    29A     -0.522920    30A     -0.498805
      31A     -0.489687    32A     -0.465948    33A     -0.463883
      34A     -0.456428    35A     -0.451429    36A     -0.438422

  @DF-RHF Final Energy:  -422.97301960064476

   => Energetics <=

    Nuclear Repulsion Energy =            458.2432200455756401
    One-Electron Energy =               -1484.2619959947187454
    Two-Electron Energy =                 603.0457563484978891
    DFT Exchange-Correlation Energy =       0.0000000000000000
    Empirical Dispersion Energy =           0.0000000000000000
    PCM Polarization Energy =               0.0000000000000000
    EFP Energy =                            0.0000000000000000
    Total Energy =                       -422.9730196006453298
    Molecular point group: c1
  Basis Set: 6-31G*
  Basis Set:

  -Total Gradient:
     Atom            X                  Y                   Z
    ------   -----------------  -----------------  -----------------
       1       -0.000030343639    -0.000007098032     0.000002555765
       2        0.000031825031     0.000009830167     0.000020435410
       3       -0.002145311519    -0.002862524598     0.001513675347
       4        0.000041018553    -0.000030469026     0.000001164417
       5       -0.000252139223    -0.000362572100     0.003382140587
       6        0.001818525926     0.002400678484    -0.001804596515
       7        0.000011047049     0.000000203203     0.000001954836
       8       -0.000066814980    -0.000060526585     0.000023804091
       9        0.000623136936     0.000850715004    -0.003150750721
      10        0.000010695079     0.000047647110     0.000012707958
      11       -0.000007424263    -0.000001417575    -0.000010981583
      12        0.000006345975    -0.000001061854     0.000002173869
      13        0.000006313611     0.000008741078     0.000012249083
      14       -0.000018596758     0.000001525977    -0.000000155657
      15        0.000003355662    -0.000002984148     0.000001103072
      16        0.000001721614     0.000004626876    -0.000002256943
      17        0.000000390768     0.000000798164     0.000003574046
      18       -0.000003328052    -0.000000467594    -0.000006039457
      19       -0.000001401163    -0.000001170835    -0.000004960549
      20       -0.000017465500     0.000012638393     0.000003489897
      21        0.000000296376    -0.000000399930    -0.000003545973
      22       -0.000014374508    -0.000006991106     0.000000246110
      23        0.000002527021     0.000000278926     0.000002012908

  **** Optimization is complete! (in 9 steps) ****
    Final optimized geometry and variables:
    Molecular point group: c1

    Geometry (in Angstrom), charge = 0, multiplicity = 1:

    O            1.533370668694     0.904786498892     0.488651794082
    C            1.399310369144    -0.271333924801     0.599692165663
    C            0.083594466206    -1.015761600011     0.655848102591
    O            2.422715713151    -1.112491010467     0.675269907026
    C           -1.146115228183    -0.097149235955     0.647715034282
    H            0.090178942595    -1.673620629042    -0.209138277602
    H            0.114514912944    -1.658163550275     1.528927627592
    C           -1.782481736496     0.031839184597    -0.739177258568
    H           -0.850449318792     0.891121265285     0.977463695638
    H           -1.884103892596    -0.472731902853     1.350023666044
    C           -2.984631415854     0.976238495378    -0.761103008185
    H           -1.031781606834     0.389803699261    -1.441321843573
    H           -2.091041809723    -0.951678754896    -1.091074241287
    C           -3.619543440744     1.101942896167    -2.145560693438
    H           -2.673965159467     1.959521620795    -0.415658445530
    H           -3.731752499315     0.624839637685    -0.052183415102
    H           -2.906122413212     1.484291495306    -2.870002856435
    H           -4.468442675069     1.778427418393    -2.128995710762
    H           -3.971256510075     0.138923238853    -2.505241362116
    C            3.721899184458    -0.552350677815     0.615455991260
    H            3.868891846552    -0.032583747838    -0.320363159512
    H            4.405207536328    -1.383628522380     0.692842727532
    H            3.876532066269     0.136956655482     1.432979403457

  Mulliken Charges: (a.u.)
   Center  Symbol    Alpha    Beta     Spin     Total
       1     O     4.28594  4.28594  0.00000 -0.57188
       2     C     2.61117  2.61117  0.00000  0.77766
       3     C     3.20891  3.20891  0.00000 -0.41781
       4     O     4.30598  4.30598  0.00000 -0.61196
       5     C     3.16026  3.16026  0.00000 -0.32052
       6     H     0.39862  0.39862  0.00000  0.20277
       7     H     0.39704  0.39704  0.00000  0.20592
       8     C     3.15464  3.15464  0.00000 -0.30927
       9     H     0.39845  0.39845  0.00000  0.20311
      10     H     0.41891  0.41891  0.00000  0.16217
      11     C     3.15270  3.15270  0.00000 -0.30539
      12     H     0.41817  0.41817  0.00000  0.16366
      13     H     0.42549  0.42549  0.00000  0.14903
      14     C     3.23947  3.23947  0.00000 -0.47894
      15     H     0.41929  0.41929  0.00000  0.16141
      16     H     0.42388  0.42388  0.00000  0.15225
      17     H     0.42068  0.42068  0.00000  0.15864
      18     H     0.41918  0.41918  0.00000  0.16165
      19     H     0.42261  0.42261  0.00000  0.15479
      20     C     3.09215  3.09215  0.00000 -0.18431
      21     H     0.40917  0.40917  0.00000  0.18166
      22     H     0.40842  0.40842  0.00000  0.18316
      23     H     0.40889  0.40889  0.00000  0.18221

   Total alpha = 36.00000, Total beta = 36.00000, Total charge = -0.00000
