  ==> Input File <==

--------------------------------------------------------------------------
set {
	reference rhf
	basis cc-pvtz
}

set_num_threads( 4 )
memory 2 gb

molecule MOL {
0 1

H	 -3.144994	 -1.202467	 -0.018751
O	 -2.321472	 -0.864941	 -0.318626
C	 -2.021813	 0.336996	 0.342658
C	 -0.669613	 0.837286	 -0.127252
H	 -2.780861	 1.084746	 0.127159
H	 -2.006390	 0.184138	 1.420053
C	 0.490865	 -0.082543	 0.241244
H	 -0.708709	 0.967192	 -1.204587
H	 -0.507562	 1.822272	 0.303070
C	 1.839800	 0.429565	 -0.255472
H	 0.305636	 -1.070211	 -0.165276
H	 0.527397	 -0.195943	 1.322876
C	 2.024730	 0.263988	 -1.760188
H	 1.942091	 1.479363	 0.005610
H	 2.639085	 -0.092300	 0.264614
H	 1.260560	 0.804108	 -2.309034
H	 2.990052	 0.638274	 -2.081695
H	 1.961836	 -0.779850	 -2.049828

	symmetry c1
}
set optking {
	frozen_dihedral = ("
		14 10 7 11
	")
}

ee = optimize('scf')
oeprop('DIPOLE', 'QUADRUPOLE', 'MULLIKEN_CHARGES')
f=open( 'psi4out.xyz', 'w' )
f.write( "18  " )
f.write( str(ee) + "\n" )
f.write( MOL.save_string_xyz() )
f.close()
--------------------------------------------------------------------------

    Molecular point group: c1
  Charge       = 0
  Multiplicity = 1
  Basis Set: CC-PVTZ
  Basis Set:
  @DF-RHF Final Energy:  -271.28470759317190
    Total Energy =                       -271.2847075931721861
    Molecular point group: c1
  Basis Set: CC-PVTZ
  Basis Set:
  Basis Set: CC-PVTZ
  Basis Set:
  @DF-RHF Final Energy:  -271.28488428555875
    Total Energy =                       -271.2848842855587463
  Basis Set: CC-PVTZ
  Basis Set:
  Basis Set: CC-PVTZ
  Basis Set:
  @DF-RHF Final Energy:  -271.28494368103151
    Total Energy =                       -271.2849436810315069
  Basis Set: CC-PVTZ
  Basis Set:
  Basis Set: CC-PVTZ
  Basis Set:
  @DF-RHF Final Energy:  -271.28494527512959
    Total Energy =                       -271.2849452751294166
  Basis Set: CC-PVTZ
  Basis Set:
  Charge       = 0
  Multiplicity = 1
  Basis Set: CC-PVTZ
  Basis Set:

    Orbital Energies (a.u.)
    -----------------------

    Doubly Occupied:

       1A    -20.546247     2A    -11.265878     3A    -11.210050
       4A    -11.209394     5A    -11.205241     6A    -11.201575
       7A     -1.364108     8A     -1.075964     9A     -1.007500
      10A     -0.914880    11A     -0.827910    12A     -0.774999
      13A     -0.707505    14A     -0.642849    15A     -0.614901
      16A     -0.603742    17A     -0.566658    18A     -0.558021
      19A     -0.521191    20A     -0.502147    21A     -0.495562
      22A     -0.464430    23A     -0.455966    24A     -0.450055
      25A     -0.430298

  @DF-RHF Final Energy:  -271.28494551803652

   => Energetics <=

    Nuclear Repulsion Energy =            252.1531993008547374
    One-Electron Energy =                -867.6421494610289074
    Two-Electron Energy =                 344.2040046421376474
    DFT Exchange-Correlation Energy =       0.0000000000000000
    Empirical Dispersion Energy =           0.0000000000000000
    PCM Polarization Energy =               0.0000000000000000
    EFP Energy =                            0.0000000000000000
    Total Energy =                       -271.2849455180365794
    Molecular point group: c1
  Basis Set: CC-PVTZ
  Basis Set:

  -Total Gradient:
     Atom            X                  Y                   Z
    ------   -----------------  -----------------  -----------------
       1        0.000001004157     0.000000712285     0.000001065370
       2        0.000013045713    -0.000005271439     0.000007553979
       3       -0.000024496311     0.000012436228    -0.000025876319
       4        0.000016697702    -0.000008849330     0.000039049015
       5       -0.000009544609     0.000006019764     0.000006776512
       6        0.000007344128    -0.000001274110    -0.000008326270
       7        0.000603380268    -0.000605508273     0.001036689983
       8        0.000001485532    -0.000006293365     0.000003039833
       9       -0.000005297784     0.000009852043    -0.000001981446
      10        0.000540970463    -0.000294213708     0.001189458017
      11       -0.000594285366     0.000548144383    -0.001074705060
      12       -0.000004532834     0.000003307168    -0.000005182940
      13        0.000010177769    -0.000011695032     0.000016181037
      14       -0.000560411839     0.000350396107    -0.001169536181
      15        0.000006042136     0.000001645701    -0.000008384106
      16       -0.000005057742     0.000001068847     0.000008972913
      17        0.000006195433     0.000000384474    -0.000007133284
      18       -0.000002716817    -0.000000861745    -0.000007661052

  **** Optimization is complete! (in 5 steps) ****
    Final optimized geometry and variables:
    Molecular point group: c1

    Geometry (in Angstrom), charge = 0, multiplicity = 1:

    H           -2.984578068853    -1.338099565334     0.326148826004
    O           -2.167097852970    -0.995756697897     0.015625248740
    C           -1.861238009459     0.203063363745     0.679789758026
    C           -0.519691215056     0.712774361812     0.189030114280
    H           -2.627459305167     0.948681340297     0.482963006468
    H           -1.825947669073     0.042730944046     1.755608967050
    C            0.649960568667    -0.202760898286     0.547878970734
    H           -0.583185104866     0.845499574080    -0.885305399920
    H           -0.356294996298     1.697141016259     0.620464199546
    C            2.008311508024     0.302227740506     0.054757264403
    H            0.459971749908    -1.189105298161     0.140226484161
    H            0.683968085342    -0.311007895354     1.628706541536
    C            2.229167283307     0.136262345604    -1.447448882501
    H            2.120013163312     1.351786349134     0.315055176006
    H            2.793304273989    -0.230697125962     0.581691496598
    H            1.503133617698     0.693612048789    -2.027448371424
    H            3.214053563210     0.487496976441    -1.734257412115
    H            2.151849464463    -0.906166921218    -1.737687464919

  Mulliken Charges: (a.u.)
   Center  Symbol    Alpha    Beta     Spin     Total
       1     H     0.39576  0.39576  0.00000  0.20849
       2     O     4.19857  4.19857  0.00000 -0.39714
       3     C     2.97360  2.97360  0.00000  0.05281
       4     C     3.09228  3.09228  0.00000 -0.18456
       5     H     0.46522  0.46522  0.00000  0.06957
       6     H     0.47298  0.47298  0.00000  0.05405
       7     C     3.09300  3.09300  0.00000 -0.18600
       8     H     0.45149  0.45149  0.00000  0.09702
       9     H     0.45430  0.45430  0.00000  0.09140
      10     C     3.08997  3.08997  0.00000 -0.17993
      11     H     0.44596  0.44596  0.00000  0.10808
      12     H     0.45384  0.45384  0.00000  0.09232
      13     C     3.14893  3.14893  0.00000 -0.29785
      14     H     0.45762  0.45762  0.00000  0.08475
      15     H     0.44903  0.44903  0.00000  0.10195
      16     H     0.45481  0.45481  0.00000  0.09038
      17     H     0.44872  0.44872  0.00000  0.10255
      18     H     0.45393  0.45393  0.00000  0.09214

   Total alpha = 25.00000, Total beta = 25.00000, Total charge = -0.00000
