  ==> Input File <==

--------------------------------------------------------------------------
set {
	reference rhf
	basis 6-31G*
}

set_num_threads( 1 )
memory 2 gb

molecule MOL {
0 1

H	 -3.420663	 1.227371	 -1.044276
O	 -3.452007	 0.283848	 -0.965577
C	 -3.181085	 -0.079926	 0.364119
C	 -1.765924	 0.277073	 0.805136
H	 -3.327791	 -1.152017	 0.410903
H	 -3.905698	 0.375695	 1.036898
C	 -1.377677	 -0.324186	 2.156531
H	 -1.062210	 -0.052846	 0.040348
H	 -1.683248	 1.361880	 0.844893
C	 0.051733	 0.021462	 2.579017
H	 -1.496856	 -1.402488	 2.114450
H	 -2.073692	 0.030234	 2.915045
C	 0.431064	 -0.578937	 3.935378
H	 0.740747	 -0.326289	 1.813021
H	 0.164742	 1.104022	 2.622577
C	 1.823423	 -0.187404	 4.443505
H	 0.361821	 -1.664229	 3.880229
H	 -0.305539	 -0.266039	 4.672485
C	 2.981968	 -0.722993	 3.600104
H	 1.934509	 -0.555018	 5.460761
H	 1.892209	 0.896921	 4.504412
H	 2.931995	 -1.805000	 3.511207
H	 3.936426	 -0.473518	 4.053547
H	 2.980666	 -0.308243	 2.597536

	symmetry c1
}
set optking {
	frozen_dihedral = ("
		20 16 13 17,
		17 13 10 7,
		13 10 7 11,
		11 7 4 3,
		1 2 3 5
	")
}

ee = energy('scf')
oeprop('DIPOLE', 'QUADRUPOLE', 'MULLIKEN_CHARGES')
f=open( 'psi4out.xyz', 'w' )
f.write( "24  " )
f.write( str(ee) + "\n" )
f.write( MOL.save_string_xyz() )
f.close()
--------------------------------------------------------------------------

    Molecular point group: c1

    Geometry (in Angstrom), charge = 0, multiplicity = 1:

       Center              X                  Y                   Z               Mass
    ------------   -----------------  -----------------  -----------------  -----------------
           H         -2.817809931175     1.379213093764    -3.101660860924     1.007825032070
           O         -2.849153931175     0.435690093764    -3.022961860924    15.994914619560
           C         -2.578231931175     0.071916093764    -1.693265860924    12.000000000000
           C         -1.163070931175     0.428915093764    -1.252248860924    12.000000000000
           H         -2.724937931175    -1.000174906236    -1.646481860924     1.007825032070
           H         -3.302844931175     0.527537093764    -1.020486860924     1.007825032070
           C         -0.774823931175    -0.172343906236     0.099146139076    12.000000000000
           H         -0.459356931175     0.098996093764    -2.017036860924     1.007825032070
           H         -1.080394931175     1.513722093764    -1.212491860924     1.007825032070
           C          0.654586068825     0.173304093764     0.521632139076    12.000000000000
           H         -0.894002931175    -1.250645906236     0.057065139076     1.007825032070
           H         -1.470838931175     0.182076093764     0.857660139076     1.007825032070
           C          1.033917068825    -0.427094906236     1.877993139076    12.000000000000
           H          1.343600068825    -0.174446906236    -0.244363860924     1.007825032070
           H          0.767595068825     1.255864093764     0.565192139076     1.007825032070
           C          2.426276068825    -0.035561906236     2.386120139076    12.000000000000
           H          0.964674068825    -1.512386906236     1.822844139076     1.007825032070
           H          0.297314068825    -0.114196906236     2.615100139076     1.007825032070
           C          3.584821068825    -0.571150906236     1.542719139076    12.000000000000
           H          2.537362068825    -0.403175906236     3.403376139076     1.007825032070
           H          2.495062068825     1.048763093764     2.447027139076     1.007825032070
           H          3.534848068825    -1.653157906236     1.453822139076     1.007825032070
           H          4.539279068825    -0.321675906236     1.996162139076     1.007825032070
           H          3.583519068825    -0.156400906236     0.540151139076     1.007825032070

  Charge       = 0
  Multiplicity = 1
  Basis Set: 6-31G*
  Basis Set:

    Orbital Energies (a.u.)
    -----------------------

    Doubly Occupied:

       1A    -20.552511     2A    -11.266826     3A    -11.219489
       4A    -11.216526     5A    -11.216403     6A    -11.216213
       7A    -11.214917     8A    -11.208921     9A     -1.358732
      10A     -1.092771    11A     -1.051382    12A     -0.986555
      13A     -0.914699    14A     -0.850802    15A     -0.805286
      16A     -0.779237    17A     -0.692708    18A     -0.650681
      19A     -0.625355    20A     -0.605805    21A     -0.604795
      22A     -0.588154    23A     -0.560689    24A     -0.534229
      25A     -0.525813    26A     -0.515630    27A     -0.487095
      28A     -0.483301    29A     -0.469744    30A     -0.462103
      31A     -0.458142    32A     -0.454263    33A     -0.419867

  @DF-RHF Final Energy:  -349.24709846941181

   => Energetics <=

    Nuclear Repulsion Energy =            379.7006702596141281
    One-Electron Energy =               -1225.7162941769556710
    Two-Electron Energy =                 496.7685254479290506
    DFT Exchange-Correlation Energy =       0.0000000000000000
    Empirical Dispersion Energy =           0.0000000000000000
    PCM Polarization Energy =               0.0000000000000000
    EFP Energy =                            0.0000000000000000
    Total Energy =                       -349.2470984694125491

  Mulliken Charges: (a.u.)
   Center  Symbol    Alpha    Beta     Spin     Total
       1     H     0.28343  0.28343  0.00000  0.43314
       2     O     4.37047  4.37047  0.00000 -0.74093
       3     C     2.98812  2.98812  0.00000  0.02376
       4     C     3.16911  3.16911  0.00000 -0.33823
       5     H     0.41710  0.41710  0.00000  0.16580
       6     H     0.43153  0.43153  0.00000  0.13694
       7     C     3.15879  3.15879  0.00000 -0.31758
       8     H     0.41426  0.41426  0.00000  0.17148
       9     H     0.42844  0.42844  0.00000  0.14312
      10     C     3.15321  3.15321  0.00000 -0.30641
      11     H     0.42038  0.42038  0.00000  0.15925
      12     H     0.42343  0.42343  0.00000  0.15313
      13     C     3.15262  3.15262  0.00000 -0.30524
      14     H     0.41995  0.41995  0.00000  0.16011
      15     H     0.42388  0.42388  0.00000  0.15224
      16     C     3.15245  3.15245  0.00000 -0.30490
      17     H     0.42376  0.42376  0.00000  0.15248
      18     H     0.42244  0.42244  0.00000  0.15512
      19     C     3.24130  3.24130  0.00000 -0.48259
      20     H     0.42078  0.42078  0.00000  0.15845
      21     H     0.42349  0.42349  0.00000  0.15302
      22     H     0.42201  0.42201  0.00000  0.15597
      23     H     0.41910  0.41910  0.00000  0.16180
      24     H     0.41996  0.41996  0.00000  0.16008

   Total alpha = 33.00000, Total beta = 33.00000, Total charge = -0.00000
