                              Psi4 1.0.54 Driver

  ==> Input File <==

--------------------------------------------------------------------------
set {
	reference rhf
	basis cc-pvtz
}

set_num_threads( 4 )
memory 2 gb

molecule MOL {
0 1

H	 -2.161400	 -0.233804	 1.020358
O	 -2.041679	 -0.058866	 0.103463
C	 -0.959304	 0.780994	 -0.094939
C	 0.354905	 0.037902	 -0.006215
H	 -0.985899	 1.279578	 -1.057596
H	 -0.969809	 1.529522	 0.682889
F	 0.412060	 -0.931028	 -0.902708
F	 1.359641	 0.856111	 -0.239961
F	 0.545380	 -0.506387	 1.171682

	symmetry c1
}
set optking {
	frozen_dihedral = ("
		1 2 3 5
	")
}

ee,wfn = optimize('scf', return_wfn=True)
oeprop( wfn, 'DIPOLE', 'QUADRUPOLE', 'MULLIKEN_CHARGES')
f=open( 'psi4out.xyz', 'w' )
f.write( "9  " )
f.write( str(ee) + "\n" )
f.write( MOL.save_string_xyz() )
f.close()
--------------------------------------------------------------------------

    Molecular point group: c1
  Charge       = 0
  Multiplicity = 1
  Basis Set: CC-PVTZ
  Basis Set:
  @DF-RHF Final Energy:  -450.84515901436646
    Total Energy =                       -450.8451590143664021
    Molecular point group: c1
  Basis Set: CC-PVTZ
  Basis Set:
  Basis Set: CC-PVTZ
  Basis Set:
  @DF-RHF Final Energy:  -450.83397524349897
    Total Energy =                       -450.8339752434991397
  Basis Set: CC-PVTZ
  Basis Set:
  Basis Set: CC-PVTZ
  Basis Set:
  @DF-RHF Final Energy:  -450.84675987036024
    Total Energy =                       -450.8467598703600743
  Basis Set: CC-PVTZ
  Basis Set:
  Basis Set: CC-PVTZ
  Basis Set:
  @DF-RHF Final Energy:  -450.84697861104240
    Total Energy =                       -450.8469786110423456
  Basis Set: CC-PVTZ
  Basis Set:
  Basis Set: CC-PVTZ
  Basis Set:
  @DF-RHF Final Energy:  -450.84699059998235
    Total Energy =                       -450.8469905999821776
  Basis Set: CC-PVTZ
  Basis Set:
  Charge       = 0
  Multiplicity = 1
  Basis Set: CC-PVTZ
  Basis Set:

    Orbital Energies (a.u.)
    -----------------------

    Doubly Occupied:

       1A    -26.337670     2A    -26.337316     3A    -26.333737
       4A    -20.583849     5A    -11.491772     6A    -11.310074
       7A     -1.745837     8A     -1.642865     9A     -1.640935
      10A     -1.407303    11A     -1.050088    12A     -0.928309
      13A     -0.836117    14A     -0.834587    15A     -0.807127
      16A     -0.735223    17A     -0.716970    18A     -0.704696
      19A     -0.670439    20A     -0.663550    21A     -0.647294
      22A     -0.633672    23A     -0.613427    24A     -0.535347
      25A     -0.484731

  @DF-RHF Final Energy:  -450.84699268803627

   => Energetics <=

    Nuclear Repulsion Energy =            277.5697175558634626
    One-Electron Energy =               -1177.4475518063179607
    Two-Electron Energy =                 449.0308415624184022
    DFT Exchange-Correlation Energy =       0.0000000000000000
    Empirical Dispersion Energy =           0.0000000000000000
    PCM Polarization Energy =               0.0000000000000000
    EFP Energy =                            0.0000000000000000
    Total Energy =                       -450.8469926880360958
    Molecular point group: c1
  Basis Set: CC-PVTZ
  Basis Set:

  -Total Gradient:
     Atom            X                  Y                   Z
    ------   -----------------  -----------------  -----------------
       1       -0.000796110073     0.000977105969     0.000494069975
       2        0.000936663908    -0.000973137133    -0.000419192754
       3        0.000500702764    -0.000719477828    -0.000826787403
       4        0.000152575121    -0.000107917873     0.000262110934
       5       -0.000521022793     0.000708446072     0.000735198794
       6       -0.000037249110    -0.000035902046     0.000020900717
       7       -0.000046879407    -0.000062361499    -0.000061503247
       8       -0.000015371387     0.000086817754    -0.000032369744
       9       -0.000173309028     0.000126426589    -0.000172427266

  **** Optimization is complete! (in 6 steps) ****
    Final optimized geometry and variables:
    Molecular point group: c1

    Geometry (in Angstrom), charge = 0, multiplicity = 1:

    H           -1.945388375780    -0.597575847595     1.280865633166
    O           -1.985898743865    -0.213790197969     0.423470911197
    C           -0.975777288066     0.718666612679     0.257253369368
    C            0.340825628373     0.059824391269    -0.087587608684
    H           -1.248129992625     1.374724749183    -0.556093127518
    H           -0.813281810001     1.322848852073     1.142576498866
    F            0.281379000728    -0.622087132501    -1.206326036595
    F            1.283881402876     0.970621551702    -0.220438384142
    F            0.720292428065    -0.771662947057     0.864015481209

  Mulliken Charges: (a.u.)
   Center  Symbol    Alpha    Beta     Spin     Total
       1     H     0.38625  0.38625  0.00000  0.22749
       2     O     4.19226  4.19226  0.00000 -0.38453
       3     C     2.99391  2.99391  0.00000  0.01219
       4     C     2.68186  2.68186  0.00000  0.63629
       5     H     0.44731  0.44731  0.00000  0.10537
       6     H     0.46123  0.46123  0.00000  0.07754
       7     F     4.60767  4.60767  0.00000 -0.21535
       8     F     4.61323  4.61323  0.00000 -0.22646
       9     F     4.61627  4.61627  0.00000 -0.23254

   Total alpha = 25.00000, Total beta = 25.00000, Total charge =  0.00000

*** Psi4 exiting successfully. Buy a developer a beer!
