  ==> Input File <==

--------------------------------------------------------------------------
set {
	reference rhf
	basis 6-31G*
}

set_num_threads( 4 )
memory 2 gb

molecule MOL {
0 1

O	 -2.042549	 -1.228399	 -0.269030
C	 -1.653912	 -0.146171	 0.050137
C	 -0.332303	 0.024011	 0.778412
C	 -2.438579	 1.106236	 -0.272369
C	 0.845713	 -0.001731	 -0.208243
H	 -0.323783	 0.953829	 1.340327
H	 -0.235459	 -0.796807	 1.480410
C	 1.205279	 -1.418193	 -0.659215
H	 1.718578	 0.461347	 0.248647
H	 0.587700	 0.604693	 -1.071273
C	 2.370625	 -1.446052	 -1.647345
H	 1.453600	 -2.022534	 0.210575
H	 0.333017	 -1.880682	 -1.115099
H	 3.268369	 -1.020471	 -1.208040
H	 2.138710	 -0.876429	 -2.542436
H	 2.601291	 -2.461980	 -1.951829
H	 -3.277823	 0.863061	 -0.908988
H	 -1.806773	 1.843019	 -0.759671
H	 -2.802853	 1.554979	 0.648059

	symmetry c1
}
set optking {
	frozen_dihedral = ("
		9 5 3 2
	")
}

ee = optimize('scf')
oeprop('DIPOLE', 'QUADRUPOLE', 'MULLIKEN_CHARGES')
f=open( 'psi4out.xyz', 'w' )
f.write( "19  " )
f.write( str(ee) + "\n" )
f.write( MOL.save_string_xyz() )
f.close()
--------------------------------------------------------------------------

    Molecular point group: c1
  Charge       = 0
  Multiplicity = 1
  Basis Set: 6-31G*
  Basis Set:
  @DF-RHF Final Energy:  -309.06334186173706
    Total Energy =                       -309.0633418617371717
    Molecular point group: c1
  Basis Set: 6-31G*
  Basis Set:
  Basis Set: 6-31G*
  Basis Set:
  @DF-RHF Final Energy:  -309.06371102011150
    Total Energy =                       -309.0637110201113273
  Basis Set: 6-31G*
  Basis Set:
  Basis Set: 6-31G*
  Basis Set:
  @DF-RHF Final Energy:  -309.06318144839997
    Total Energy =                       -309.0631814483999733
  Basis Set: 6-31G*
  Basis Set:
  Basis Set: 6-31G*
  Basis Set:
  @DF-RHF Final Energy:  -309.06381039529867
    Total Energy =                       -309.0638103952987308
  Basis Set: 6-31G*
  Basis Set:
  @DF-RHF Final Energy:  -309.06384588078595
    Total Energy =                       -309.0638458807859479
  Basis Set: 6-31G*
  Basis Set:
  @DF-RHF Final Energy:  -309.06385811612961
    Total Energy =                       -309.0638581161293814
  Basis Set: 6-31G*
  Basis Set:
  Basis Set: 6-31G*
  Basis Set:
  @DF-RHF Final Energy:  -309.06385990217228
    Total Energy =                       -309.0638599021723394
  Basis Set: 6-31G*
  Basis Set:
  Basis Set: 6-31G*
  Basis Set:
  @DF-RHF Final Energy:  -309.06386263263119
    Total Energy =                       -309.0638626326309009
  Basis Set: 6-31G*
  Basis Set:
  Charge       = 0
  Multiplicity = 1
  Basis Set: 6-31G*
  Basis Set:

    Orbital Energies (a.u.)
    -----------------------

    Doubly Occupied:

       1A    -20.548732     2A    -11.325190     3A    -11.232112
       4A    -11.230080     5A    -11.228528     6A    -11.217418
       7A    -11.211296     8A     -1.393862     9A     -1.089474
      10A     -1.027710    11A     -0.981781    12A     -0.888929
      13A     -0.806837    14A     -0.733617    15A     -0.660538
      16A     -0.641856    17A     -0.621270    18A     -0.607555
      19A     -0.584484    20A     -0.574306    21A     -0.551076
      22A     -0.536662    23A     -0.520192    24A     -0.495852
      25A     -0.479423    26A     -0.471777    27A     -0.462030
      28A     -0.397291

  @DF-RHF Final Energy:  -309.06386289531002

   => Energetics <=

    Nuclear Repulsion Energy =            306.8809133335417414
    One-Electron Energy =               -1026.8497972910465705
    Two-Electron Energy =                 410.9050210621950328
    DFT Exchange-Correlation Energy =       0.0000000000000000
    Empirical Dispersion Energy =           0.0000000000000000
    PCM Polarization Energy =               0.0000000000000000
    EFP Energy =                            0.0000000000000000
    Total Energy =                       -309.0638628953098532
    Molecular point group: c1
  Basis Set: 6-31G*
  Basis Set:

  -Total Gradient:
     Atom            X                  Y                   Z
    ------   -----------------  -----------------  -----------------
       1       -0.000002504060    -0.000000337243     0.000002754543
       2       -0.000118618308     0.001433713150    -0.000154312659
       3        0.000045072602    -0.001568598718     0.000020719928
       4       -0.000028270831    -0.000004031955     0.000039343664
       5        0.000644174270    -0.001600529223     0.000791668928
       6       -0.000008576890     0.000002648747     0.000001180136
       7       -0.000008013110     0.000002960923     0.000004434612
       8        0.000009841195    -0.000018965171    -0.000010288112
       9       -0.000566037202     0.001747742523    -0.000677669639
      10        0.000009484363    -0.000006349146     0.000003131863
      11       -0.000002997317     0.000002159396    -0.000004599704
      12        0.000000884980     0.000004721037     0.000001616708
      13        0.000003791007     0.000003191524     0.000002826560
      14        0.000001198883     0.000000638057    -0.000000534735
      15        0.000001771843     0.000001432570    -0.000000604809
      16       -0.000003471550    -0.000001091018     0.000002581228
      17        0.000006041026    -0.000005806117    -0.000003753576
      18        0.000007229724    -0.000003175880    -0.000009454167
      19        0.000008999377     0.000009676545    -0.000009040771

  **** Optimization is complete! (in 9 steps) ****
    Final optimized geometry and variables:
    Molecular point group: c1

    Geometry (in Angstrom), charge = 0, multiplicity = 1:

    O           -1.853642629220    -0.789354036535     0.231071415366
    C           -1.371031326859     0.286191217847     0.420110356824
    C           -0.036986934275     0.445520738640     1.126344370556
    C           -2.061423128821     1.551718958692    -0.042799259023
    C            1.142500867159     0.435066689877     0.132284139655
    H           -0.033788748964     1.381439603931     1.677853641106
    H            0.068666864284    -0.365272970092     1.837804404218
    C            1.510978284994    -0.962085692546    -0.369681102845
    H            2.002160225828     0.894857798000     0.612142734851
    H            0.908641079637     1.074726560537    -0.717339356353
    C            2.654772839990    -0.938011358596    -1.382719404374
    H            1.792423742218    -1.579698497803     0.479890828758
    H            0.638890525010    -1.432878532788    -0.811718895580
    H            3.551230559651    -0.497018129931    -0.955443275351
    H            2.389100643077    -0.358713191828    -2.262659209546
    H            2.904998802764    -1.941313356648    -1.712283159612
    H           -2.891101135984     1.302362667472    -0.689521633123
    H           -1.372711428456     2.210758343766    -0.561755302284
    H           -2.434260270053     2.093815895213     0.822438151868

  Mulliken Charges: (a.u.)
   Center  Symbol    Alpha    Beta     Spin     Total
       1     O     4.26107  4.26107  0.00000 -0.52214
       2     C     2.73816  2.73816  0.00000  0.52369
       3     C     3.20260  3.20260  0.00000 -0.40520
       4     C     3.28912  3.28912  0.00000 -0.57825
       5     C     3.16308  3.16308  0.00000 -0.32617
       6     H     0.41439  0.41439  0.00000  0.17121
       7     H     0.40013  0.40013  0.00000  0.19974
       8     C     3.15422  3.15422  0.00000 -0.30843
       9     H     0.41476  0.41476  0.00000  0.17049
      10     H     0.42073  0.42073  0.00000  0.15854
      11     C     3.24105  3.24105  0.00000 -0.48210
      12     H     0.42065  0.42065  0.00000  0.15870
      13     H     0.40634  0.40634  0.00000  0.18731
      14     H     0.42250  0.42250  0.00000  0.15499
      15     H     0.42182  0.42182  0.00000  0.15636
      16     H     0.41652  0.41652  0.00000  0.16697
      17     H     0.39695  0.39695  0.00000  0.20610
      18     H     0.40983  0.40983  0.00000  0.18034
      19     H     0.40608  0.40608  0.00000  0.18785

   Total alpha = 28.00000, Total beta = 28.00000, Total charge = -0.00000
