  ==> Input File <==

--------------------------------------------------------------------------
set {
	reference rhf
	basis 6-31G*
}

set_num_threads( 4 )
memory 2 gb

molecule MOL {
0 1

O	 3.005175	 1.122908	 -0.691904
C	 2.843464	 0.164689	 -0.000222
C	 1.546494	 -0.624492	 -0.000609
C	 3.931974	 -0.329345	 0.930494
C	 0.291004	 0.242674	 0.000989
H	 1.557904	 -1.283758	 -0.867573
H	 1.558622	 -1.285963	 0.864672
C	 -0.994322	 -0.586602	 0.000262
H	 0.309117	 0.896430	 -0.865270
H	 0.309661	 0.894078	 0.869017
C	 -2.259874	 0.272531	 0.000494
H	 -1.004862	 -1.240012	 -0.870939
H	 -1.005220	 -1.241071	 0.870675
C	 -3.549786	 -0.549746	 -0.000374
H	 -2.250389	 0.926680	 -0.869574
H	 -2.250838	 0.925513	 0.871430
C	 -4.809590	 0.315458	 -0.000369
H	 -3.560515	 -1.202009	 -0.871156
H	 -3.561123	 -1.202955	 0.869711
H	 -4.844746	 0.956611	 -0.876632
H	 -5.706986	 -0.295590	 -0.001609
H	 -4.845960	 0.954827	 0.877144
H	 4.203638	 -1.352276	 0.686714
H	 4.802479	 0.305847	 0.843399
H	 3.581759	 -0.325321	 1.958584

	symmetry c1
}
set optking {
	frozen_dihedral = ("
		1 2 3 6
	")
}

ee = optimize('scf')
oeprop('DIPOLE', 'QUADRUPOLE', 'MULLIKEN_CHARGES')
f=open( 'psi4out.xyz', 'w' )
f.write( "25  " )
f.write( str(ee) + "\n" )
f.write( MOL.save_string_xyz() )
f.close()
--------------------------------------------------------------------------

    Molecular point group: c1
  Charge       = 0
  Multiplicity = 1
  Basis Set: 6-31G*
  Basis Set:
  @DF-RHF Final Energy:  -387.13463602942653
    Total Energy =                       -387.1346360294268152
    Molecular point group: c1
  Basis Set: 6-31G*
  Basis Set:
  Basis Set: 6-31G*
  Basis Set:
  @DF-RHF Final Energy:  -387.13459701613800
    Total Energy =                       -387.1345970161382866
  Basis Set: 6-31G*
  Basis Set:
  Basis Set: 6-31G*
  Basis Set:
  @DF-RHF Final Energy:  -387.13408320543368
    Total Energy =                       -387.1340832054339671
  Basis Set: 6-31G*
  Basis Set:
  Basis Set: 6-31G*
  Basis Set:
  @DF-RHF Final Energy:  -387.13523975981440
    Total Energy =                       -387.1352397598146808
  Basis Set: 6-31G*
  Basis Set:
  Basis Set: 6-31G*
  Basis Set:
  @DF-RHF Final Energy:  -387.13524517348105
    Total Energy =                       -387.1352451734818487
  Basis Set: 6-31G*
  Basis Set:
  Basis Set: 6-31G*
  Basis Set:
  @DF-RHF Final Energy:  -387.13524631214062
    Total Energy =                       -387.1352463121409073
  Basis Set: 6-31G*
  Basis Set:
  Charge       = 0
  Multiplicity = 1
  Basis Set: 6-31G*
  Basis Set:

    Orbital Energies (a.u.)
    -----------------------

    Doubly Occupied:

       1A    -20.548559     2A    -11.326015     3A    -11.230809
       4A    -11.228608     5A    -11.220592     6A    -11.218102
       7A    -11.216178     8A    -11.214712     9A    -11.208973
      10A     -1.394526    11A     -1.094635    12A     -1.056413
      13A     -1.014339    14A     -0.969889    15A     -0.891259
      16A     -0.814794    17A     -0.791991    18A     -0.730604
      19A     -0.663997    20A     -0.649279    21A     -0.634725
      22A     -0.617096    23A     -0.598509    24A     -0.585034
      25A     -0.567643    26A     -0.560684    27A     -0.540257
      28A     -0.531124    29A     -0.512076    30A     -0.492202
      31A     -0.486927    32A     -0.473329    33A     -0.464733
      34A     -0.463669    35A     -0.450764    36A     -0.397173

  @DF-RHF Final Energy:  -387.13524674784531

   => Energetics <=

    Nuclear Repulsion Energy =            438.3273203080090639
    One-Electron Energy =               -1393.2046937796344537
    Two-Electron Energy =                 567.7421267237801885
    DFT Exchange-Correlation Energy =       0.0000000000000000
    Empirical Dispersion Energy =           0.0000000000000000
    PCM Polarization Energy =               0.0000000000000000
    EFP Energy =                            0.0000000000000000
    Total Energy =                       -387.1352467478451445
    Molecular point group: c1
  Basis Set: 6-31G*
  Basis Set:

  -Total Gradient:
     Atom            X                  Y                   Z
    ------   -----------------  -----------------  -----------------
       1        0.000460395411    -0.000723595412    -0.001023936745
       2       -0.000742260276     0.001189695941     0.001293286311
       3        0.000937237164    -0.001476483201     0.000408706151
       4       -0.000025510944     0.000008206373    -0.000054330218
       5       -0.000029013038     0.000030808989     0.000080639979
       6       -0.000618524904     0.000936220391    -0.000683985673
       7        0.000019158068     0.000020257355     0.000005789079
       8        0.000015010437     0.000000302164    -0.000047954584
       9        0.000005107302    -0.000009325481     0.000018212916
      10        0.000005866563     0.000004531963    -0.000034649055
      11       -0.000004085228    -0.000001822743     0.000005968335
      12       -0.000018737976    -0.000012076127    -0.000008662756
      13        0.000011513343     0.000006624335    -0.000011120992
      14       -0.000003903798     0.000003284354     0.000008570078
      15       -0.000004337470    -0.000004200935     0.000000751270
      16        0.000006311683     0.000005050477    -0.000001793250
      17       -0.000000911569    -0.000002180713     0.000000061519
      18        0.000001445377     0.000000222909     0.000001057791
      19       -0.000002310404    -0.000001452152     0.000001809081
      20        0.000000161374     0.000001222725    -0.000000473583
      21       -0.000001248483     0.000000153081    -0.000000708764
      22        0.000000399985    -0.000000814020    -0.000000829293
      23       -0.000018643379     0.000017534096     0.000004981003
      24        0.000004769074     0.000005278509     0.000023885176
      25        0.000002111693     0.000002557127     0.000014726227

  **** Optimization is complete! (in 7 steps) ****
    Final optimized geometry and variables:
    Molecular point group: c1

    Geometry (in Angstrom), charge = 0, multiplicity = 1:

    O            2.941818923180     1.120125537846    -0.710782997363
    C            2.843363456089     0.159153172783    -0.010355408092
    C            1.556607893952    -0.649896239987     0.045349934476
    C            4.001283456292    -0.330232688106     0.829987327451
    C            0.298910967263     0.222440243690     0.023269452013
    H            1.562439925891    -1.295108956273    -0.832214767681
    H            1.560267016096    -1.302453651900     0.913535483430
    C           -0.988693249474    -0.601944342777    -0.011090544678
    H            0.345542273340     0.877762046324    -0.838701436823
    H            0.294120140694     0.866765739947     0.899766992916
    C           -2.251114327436     0.261763968669    -0.024971377509
    H           -0.982251716578    -1.242902471670    -0.891271908669
    H           -1.018514983821    -1.267724036899     0.850085381331
    C           -3.543273888121    -0.556117144492    -0.063834535057
    H           -2.221284253561     0.927618437003    -0.885507469957
    H           -2.258565973392     0.902598609810     0.855144133575
    C           -4.800051314430     0.313346345388    -0.077393191636
    H           -3.537997873047    -1.195786932660    -0.943868248527
    H           -3.574467291374    -1.221560062913     0.796442393991
    H           -4.815307535163     0.966617741687    -0.945192167129
    H           -5.699052995104    -0.294626887568    -0.105423382209
    H           -4.852427027042     0.940590958685     0.808059589940
    H            4.205314518807    -1.376772353453     0.621826013918
    H            4.882514011492     0.262632218494     0.628364691654
    H            3.747864866102    -0.257095990938     1.884298020708

  Mulliken Charges: (a.u.)
   Center  Symbol    Alpha    Beta     Spin     Total
       1     O     4.26346  4.26346  0.00000 -0.52693
       2     C     2.73387  2.73387  0.00000  0.53225
       3     C     3.20819  3.20819  0.00000 -0.41638
       4     C     3.28840  3.28840  0.00000 -0.57679
       5     C     3.15425  3.15425  0.00000 -0.30849
       6     H     0.40361  0.40361  0.00000  0.19278
       7     H     0.41489  0.41489  0.00000  0.17023
       8     C     3.15324  3.15324  0.00000 -0.30648
       9     H     0.40293  0.40293  0.00000  0.19415
      10     H     0.42001  0.42001  0.00000  0.15997
      11     C     3.15110  3.15110  0.00000 -0.30220
      12     H     0.42301  0.42301  0.00000  0.15397
      13     H     0.42478  0.42478  0.00000  0.15044
      14     C     3.15163  3.15163  0.00000 -0.30326
      15     H     0.42154  0.42154  0.00000  0.15692
      16     H     0.42340  0.42340  0.00000  0.15320
      17     C     3.23939  3.23939  0.00000 -0.47878
      18     H     0.42294  0.42294  0.00000  0.15412
      19     H     0.42360  0.42360  0.00000  0.15281
      20     H     0.42106  0.42106  0.00000  0.15788
      21     H     0.41932  0.41932  0.00000  0.16136
      22     H     0.42166  0.42166  0.00000  0.15669
      23     H     0.40898  0.40898  0.00000  0.18203
      24     H     0.39715  0.39715  0.00000  0.20569
      25     H     0.40759  0.40759  0.00000  0.18483

   Total alpha = 36.00000, Total beta = 36.00000, Total charge =  0.00000
