  ==> Input File <==

--------------------------------------------------------------------------
set {
	reference rhf
	basis cc-pvtz
}

set_num_threads( 4 )
memory 2 gb

molecule MOL {
0 1

O	 0.395927	 1.296676	 -0.000076
C	 0.503051	 0.114301	 -0.000074
C	 -0.701422	 -0.805636	 -0.000109
C	 1.858118	 -0.556123	 0.000212
C	 -1.947845	 -0.195026	 -0.621129
H	 -0.417044	 -1.717808	 -0.518286
H	 -0.886678	 -1.103025	 1.028813
H	 -1.772518	 0.079717	 -1.652635
H	 -2.768576	 -0.901606	 -0.589497
H	 -2.246332	 0.699949	 -0.091829
H	 1.961106	 -1.191101	 -0.872843
H	 2.636688	 0.191085	 -0.000109
H	 1.961070	 -1.190284	 0.873873

	symmetry c1
}
set optking {
	frozen_dihedral = ("
		6 3 2 1
	")
}

ee = optimize('scf')
oeprop('DIPOLE', 'QUADRUPOLE', 'MULLIKEN_CHARGES')
f=open( 'psi4out.xyz', 'w' )
f.write( "13  " )
f.write( str(ee) + "\n" )
f.write( MOL.save_string_xyz() )
f.close()
--------------------------------------------------------------------------

    Molecular point group: c1
  Charge       = 0
  Multiplicity = 1
  Basis Set: CC-PVTZ
  Basis Set:
  @DF-RHF Final Energy:  -231.08256042157382
    Total Energy =                       -231.0825604215737030
    Molecular point group: c1
  Basis Set: CC-PVTZ
  Basis Set:
  Basis Set: CC-PVTZ
  Basis Set:
  @DF-RHF Final Energy:  -231.08149234947550
    Total Energy =                       -231.0814923494754112
  Basis Set: CC-PVTZ
  Basis Set:
  Basis Set: CC-PVTZ
  Basis Set:
  @DF-RHF Final Energy:  -231.08284222611587
    Total Energy =                       -231.0828422261161563
  Basis Set: CC-PVTZ
  Basis Set:
  Basis Set: CC-PVTZ
  Basis Set:
  @DF-RHF Final Energy:  -231.08297607012216
    Total Energy =                       -231.0829760701221289
  Basis Set: CC-PVTZ
  Basis Set:
  Basis Set: CC-PVTZ
  Basis Set:
  @DF-RHF Final Energy:  -231.08299369561328
    Total Energy =                       -231.0829936956133110
  Basis Set: CC-PVTZ
  Basis Set:
  Basis Set: CC-PVTZ
  Basis Set:
  @DF-RHF Final Energy:  -231.08300270835440
    Total Energy =                       -231.0830027083542291
  Basis Set: CC-PVTZ
  Basis Set:
  Charge       = 0
  Multiplicity = 1
  Basis Set: CC-PVTZ
  Basis Set:

    Orbital Energies (a.u.)
    -----------------------

    Doubly Occupied:

       1A    -20.538930     2A    -11.321422     3A    -11.233495
       4A    -11.227902     5A    -11.214148     6A     -1.399493
       7A     -1.062950     8A     -1.001575     9A     -0.879801
      10A     -0.731440    11A     -0.660513    12A     -0.642361
      13A     -0.621687    14A     -0.585567    15A     -0.572294
      16A     -0.525059    17A     -0.518240    18A     -0.507488
      19A     -0.486084    20A     -0.404116

  @DF-RHF Final Energy:  -231.08300293517220

   => Energetics <=

    Nuclear Repulsion Energy =            177.2324120237949501
    One-Electron Energy =                -664.3617024179998225
    Two-Electron Energy =                 256.0462874590326692
    DFT Exchange-Correlation Energy =       0.0000000000000000
    Empirical Dispersion Energy =           0.0000000000000000
    PCM Polarization Energy =               0.0000000000000000
    EFP Energy =                            0.0000000000000000
    Total Energy =                       -231.0830029351722033
    Molecular point group: c1
  Basis Set: CC-PVTZ
  Basis Set:

  -Total Gradient:
     Atom            X                  Y                   Z
    ------   -----------------  -----------------  -----------------
       1       -0.000013481127     0.000039827134     0.001530888637
       2        0.000127762169    -0.000178129426    -0.001851861091
       3       -0.000567718533     0.000691344448    -0.001003896104
       4       -0.000009197396     0.000014567988     0.000003187667
       5        0.000003357910     0.000002075719     0.000002463956
       6        0.000459704971    -0.000554294360     0.001324941745
       7        0.000000239468     0.000002546387    -0.000001428681
       8       -0.000000966643    -0.000000337849    -0.000003299888
       9        0.000004564955    -0.000000266576     0.000000640988
      10       -0.000001883308     0.000003944955     0.000000755793
      11       -0.000002112491    -0.000005805307    -0.000003413087
      12        0.000000309747    -0.000009428069    -0.000000521662
      13       -0.000000579722    -0.000006045043     0.000001541728

  **** Optimization is complete! (in 7 steps) ****
    Final optimized geometry and variables:
    Molecular point group: c1

    Geometry (in Angstrom), charge = 0, multiplicity = 1:

    O            0.376079638064     1.317975307608     0.067127634701
    C            0.489392642680     0.136659526354     0.104837004172
    C           -0.715431025029    -0.783766851758     0.133336485276
    C            1.844664835218    -0.526994638554     0.167504492626
    C           -1.977104867110    -0.170730062701    -0.456076527451
    H           -0.462044081733    -1.722074176015    -0.348725140930
    H           -0.871761116984    -1.031221501492     1.181891763218
    H           -1.842962494370     0.060299144838    -1.505880417584
    H           -2.809054453979    -0.858516765354    -0.365285002837
    H           -2.231447070022     0.747988500247     0.052645576619
    H            2.029843443493    -1.052819402279    -0.763564190564
    H            2.613599130733     0.214592303006     0.320150406222
    H            1.873510937694    -1.262788116019     0.963489575536

  Mulliken Charges: (a.u.)
   Center  Symbol    Alpha    Beta     Spin     Total
       1     O     4.17200  4.17200  0.00000 -0.34399
       2     C     2.86051  2.86051  0.00000  0.27898
       3     C     3.10098  3.10098  0.00000 -0.20195
       4     C     3.15116  3.15116  0.00000 -0.30232
       5     C     3.14252  3.14252  0.00000 -0.28504
       6     H     0.44642  0.44642  0.00000  0.10717
       7     H     0.44578  0.44578  0.00000  0.10843
       8     H     0.45246  0.45246  0.00000  0.09508
       9     H     0.45021  0.45021  0.00000  0.09957
      10     H     0.44217  0.44217  0.00000  0.11566
      11     H     0.44897  0.44897  0.00000  0.10207
      12     H     0.43608  0.43608  0.00000  0.12785
      13     H     0.45075  0.45075  0.00000  0.09850

   Total alpha = 20.00000, Total beta = 20.00000, Total charge = -0.00000
