  ==> Input File <==

--------------------------------------------------------------------------
set {
	reference rhf
	basis 6-31G*
}

set_num_threads( 4 )
memory 2 gb

molecule MOL {
0 1

H	 2.591676	 2.013956	 0.335017
O	 3.341076	 1.666752	 -0.126416
C	 3.569581	 0.339145	 0.272707
C	 2.539767	 -0.640285	 -0.279495
H	 4.553106	 0.084646	 -0.100901
H	 3.608576	 0.269204	 1.359154
C	 2.500821	 -1.982457	 0.455303
H	 1.560048	 -0.171671	 -0.235701
H	 2.763452	 -0.810220	 -1.331376
C	 1.495869	 -2.962576	 -0.156461
H	 2.251408	 -1.811172	 1.498768
H	 3.493505	 -2.432657	 0.439839
C	 1.477866	 -4.353032	 0.489021
H	 0.498272	 -2.529916	 -0.106926
H	 1.723961	 -3.076983	 -1.214093
C	 0.982375	 -4.384784	 1.937455
H	 0.839762	 -4.999541	 -0.109866
H	 2.476222	 -4.785111	 0.439717
C	 0.882381	 -5.803366	 2.502310
H	 0.005124	 -3.907299	 1.993124
H	 1.643785	 -3.800022	 2.572193
C	 0.394134	 -5.837498	 3.950107
H	 0.210216	 -6.391508	 1.881207
H	 1.855734	 -6.285452	 2.438568
H	 -0.592213	 -5.391485	 4.041836
H	 0.332029	 -6.856010	 4.320797
H	 1.065947	 -5.288350	 4.603917

	symmetry c1
}
set optking {
	frozen_dihedral = ("
		8 4 3 2
	")
}

ee = optimize('scf')
oeprop('DIPOLE', 'QUADRUPOLE', 'MULLIKEN_CHARGES')
f=open( 'psi4out.xyz', 'w' )
f.write( "27  " )
f.write( str(ee) + "\n" )
f.write( MOL.save_string_xyz() )
f.close()
--------------------------------------------------------------------------

    Molecular point group: c1
  Charge       = 0
  Multiplicity = 1
  Basis Set: 6-31G*
  Basis Set:
  @DF-RHF Final Energy:  -388.28022749379215
    Total Energy =                       -388.2802274937919265
    Molecular point group: c1
  Basis Set: 6-31G*
  Basis Set:
  Basis Set: 6-31G*
  Basis Set:
  @DF-RHF Final Energy:  -388.28055860969312
    Total Energy =                       -388.2805586096935713
  Basis Set: 6-31G*
  Basis Set:
  Basis Set: 6-31G*
  Basis Set:
  @DF-RHF Final Energy:  -388.28059901900133
    Total Energy =                       -388.2805990190012153
  Basis Set: 6-31G*
  Basis Set:
  Basis Set: 6-31G*
  Basis Set:
  @DF-RHF Final Energy:  -388.28058966770107
    Total Energy =                       -388.2805896677010651
  Basis Set: 6-31G*
  Basis Set:
  Basis Set: 6-31G*
  Basis Set:
  @DF-RHF Final Energy:  -388.28060172976910
    Total Energy =                       -388.2806017297693870
  Basis Set: 6-31G*
  Basis Set:
  Basis Set: 6-31G*
  Basis Set:
  @DF-RHF Final Energy:  -388.28060274185509
    Total Energy =                       -388.2806027418556596
  Basis Set: 6-31G*
  Basis Set:
  Charge       = 0
  Multiplicity = 1
  Basis Set: 6-31G*
  Basis Set:

    Orbital Energies (a.u.)
    -----------------------

    Doubly Occupied:

       1A    -20.551776     2A    -11.266976     3A    -11.219655
       4A    -11.217212     5A    -11.216700     6A    -11.216003
       7A    -11.215427     8A    -11.214181     9A    -11.209498
      10A     -1.359055    11A     -1.095606    12A     -1.062455
      13A     -1.011522    14A     -0.945493    15A     -0.884043
      16A     -0.824188    17A     -0.805228    18A     -0.778740
      19A     -0.690475    20A     -0.648409    21A     -0.643533
      22A     -0.607581    23A     -0.605709    24A     -0.586191
      25A     -0.572551    26A     -0.554278    27A     -0.545836
      28A     -0.521251    29A     -0.510809    30A     -0.499577
      31A     -0.482629    32A     -0.476309    33A     -0.463990
      34A     -0.460559    35A     -0.453614    36A     -0.443792
      37A     -0.421171

  @DF-RHF Final Energy:  -388.28060353098999

   => Energetics <=

    Nuclear Repulsion Energy =            453.3817640731924712
    One-Electron Energy =               -1424.7606883722530711
    Two-Electron Energy =                 583.0983207680704936
    DFT Exchange-Correlation Energy =       0.0000000000000000
    Empirical Dispersion Energy =           0.0000000000000000
    PCM Polarization Energy =               0.0000000000000000
    EFP Energy =                            0.0000000000000000
    Total Energy =                       -388.2806035309901063
    Molecular point group: c1
  Basis Set: 6-31G*
  Basis Set:

  -Total Gradient:
     Atom            X                  Y                   Z
    ------   -----------------  -----------------  -----------------
       1        0.000029539680    -0.000049418579     0.000012464399
       2       -0.001846110076     0.000522733988     0.002503552122
       3        0.002623905744    -0.000320543540    -0.004231485599
       4       -0.001499279020    -0.001604932447     0.005397384507
       5       -0.000014606357     0.000039853664     0.000003293072
       6        0.000037126497    -0.000022085955     0.000008251768
       7        0.000036771612    -0.000016173065     0.000026762792
       8        0.000677128912     0.001483793273    -0.003741420373
       9       -0.000043180819     0.000000180215     0.000013195012
      10        0.000014627280     0.000005551201    -0.000016085073
      11        0.000015436415     0.000003340295     0.000008561378
      12       -0.000013002225    -0.000028468116     0.000020041877
      13        0.000003406336    -0.000001798917    -0.000007808694
      14       -0.000004161228    -0.000003451766    -0.000000453831
      15       -0.000008209483    -0.000000509912    -0.000002076478
      16       -0.000003467771    -0.000001505240    -0.000000010052
      17       -0.000002415341    -0.000001040977     0.000001762347
      18       -0.000005360213    -0.000004803289     0.000000344935
      19        0.000005347741     0.000001668346     0.000003413684
      20       -0.000004505907    -0.000003858246    -0.000000885443
      21       -0.000001882731     0.000000607169     0.000000612432
      22        0.000002829983    -0.000000335171     0.000000442969
      23       -0.000000239222     0.000002468293     0.000001114874
      24        0.000000247858    -0.000001493363    -0.000000986912
      25       -0.000000160172     0.000000436551    -0.000000747784
      26       -0.000000120367     0.000000078967     0.000000034040
      27        0.000000332872    -0.000000293387     0.000000728030

  **** Optimization is complete! (in 7 steps) ****
    Final optimized geometry and variables:
    Molecular point group: c1

    Geometry (in Angstrom), charge = 0, multiplicity = 1:

    H            0.622107167756     4.556740146828    -0.784943637835
    O            1.448267417561     4.247710212845    -1.128906105810
    C            1.651545458976     2.921462315946    -0.716848682005
    C            0.607977200655     1.958713724564    -1.281765123087
    H            2.642657026565     2.649113975857    -1.055351776824
    H            1.658544865988     2.865984884704     0.371548153272
    C            0.564206700730     0.616684726387    -0.551208458909
    H           -0.367740225182     2.442556193124    -1.256885222366
    H            0.817573111251     1.799650425400    -2.336960363028
    C           -0.442834894203    -0.360552042713    -1.163684062360
    H            0.327128991864     0.789881740070     0.495310114716
    H            1.555447394772     0.164999755974    -0.568902065108
    C           -0.458774007729    -1.753008362588    -0.522521310392
    H           -1.440869753048     0.071463233445    -1.110009445586
    H           -0.218269053393    -0.471686930582    -2.222213846516
    C           -0.949257017329    -1.789443437153     0.927456448843
    H           -1.098526927143    -2.397899360395    -1.121396558544
    H            0.539586353989    -2.184278341200    -0.576314798152
    C           -1.044762238616    -3.209722251967     1.488841864735
    H           -1.927557205694    -1.314246358123     0.987538583312
    H           -0.286626871921    -1.205216434950     1.561266819288
    C           -1.528898881933    -3.248657067483     2.937888474025
    H           -1.717313228116    -3.797780334835     0.868055857184
    H           -0.070516921700    -3.689366316217     1.421307356891
    H           -2.516115247752    -2.805258544245     3.033478184117
    H           -1.587669876384    -4.268236123794     3.306160115528
    H           -0.856470773864    -2.699630390903     3.591142205553

  Mulliken Charges: (a.u.)
   Center  Symbol    Alpha    Beta     Spin     Total
       1     H     0.28332  0.28332  0.00000  0.43336
       2     O     4.37106  4.37106  0.00000 -0.74212
       3     C     2.98905  2.98905  0.00000  0.02190
       4     C     3.16722  3.16722  0.00000 -0.33443
       5     H     0.41529  0.41529  0.00000  0.16943
       6     H     0.43221  0.43221  0.00000  0.13557
       7     C     3.16165  3.16165  0.00000 -0.32331
       8     H     0.42709  0.42709  0.00000  0.14582
       9     H     0.41550  0.41550  0.00000  0.16899
      10     C     3.15268  3.15268  0.00000 -0.30536
      11     H     0.42064  0.42064  0.00000  0.15872
      12     H     0.42232  0.42232  0.00000  0.15536
      13     C     3.15348  3.15348  0.00000 -0.30697
      14     H     0.42355  0.42355  0.00000  0.15289
      15     H     0.42049  0.42049  0.00000  0.15901
      16     C     3.15270  3.15270  0.00000 -0.30539
      17     H     0.42132  0.42132  0.00000  0.15736
      18     H     0.42362  0.42362  0.00000  0.15276
      19     C     3.15120  3.15120  0.00000 -0.30240
      20     H     0.42480  0.42480  0.00000  0.15041
      21     H     0.42254  0.42254  0.00000  0.15493
      22     C     3.23919  3.23919  0.00000 -0.47838
      23     H     0.42296  0.42296  0.00000  0.15407
      24     H     0.42292  0.42292  0.00000  0.15417
      25     H     0.42195  0.42195  0.00000  0.15610
      26     H     0.41918  0.41918  0.00000  0.16165
      27     H     0.42207  0.42207  0.00000  0.15586

   Total alpha = 37.00000, Total beta = 37.00000, Total charge =  0.00000
