  ==> Input File <==

--------------------------------------------------------------------------
set {
	reference rhf
	basis 6-31G*
}

set_num_threads( 4 )
memory 2 gb

molecule MOL {
0 1

H	 2.591676	 2.013956	 0.335017
O	 3.341076	 1.666752	 -0.126416
C	 3.569581	 0.339145	 0.272707
C	 4.410819	 -0.451622	 -0.723152
H	 4.088357	 0.401957	 1.220653
H	 2.624920	 -0.172041	 0.454598
C	 3.744958	 -0.640708	 -2.088342
H	 5.363753	 0.055762	 -0.849022
H	 4.625309	 -1.426007	 -0.287336
C	 4.590444	 -1.483986	 -3.046910
H	 3.556508	 0.333111	 -2.531657
H	 2.773931	 -1.117747	 -1.954626
C	 3.931495	 -1.775806	 -4.400043
H	 5.545972	 -0.989206	 -3.211247
H	 4.819444	 -2.431674	 -2.564056
C	 3.720998	 -0.549337	 -5.292200
H	 4.552352	 -2.491297	 -4.935230
H	 2.975384	 -2.270224	 -4.235003
C	 3.159042	 -0.904186	 -6.670505
H	 4.669215	 -0.027956	 -5.415308
H	 3.047143	 0.153906	 -4.808805
C	 2.941943	 0.318911	 -7.560766
H	 3.835253	 -1.596414	 -7.167543
H	 2.216339	 -1.433798	 -6.549236
H	 3.873419	 0.852401	 -7.727995
H	 2.545236	 0.034634	 -8.530532
H	 2.240815	 1.014449	 -7.107984

	symmetry c1
}
set optking {
	frozen_dihedral = ("
		4 3 2 1
	")
}

ee = optimize('scf')
oeprop('DIPOLE', 'QUADRUPOLE', 'MULLIKEN_CHARGES')
f=open( 'psi4out.xyz', 'w' )
f.write( "27  " )
f.write( str(ee) + "\n" )
f.write( MOL.save_string_xyz() )
f.close()
--------------------------------------------------------------------------

    Molecular point group: c1
  Charge       = 0
  Multiplicity = 1
  Basis Set: 6-31G*
  Basis Set:
  @DF-RHF Final Energy:  -388.28021902177085
    Total Energy =                       -388.2802190217719271
    Molecular point group: c1
  Basis Set: 6-31G*
  Basis Set:
  Basis Set: 6-31G*
  Basis Set:
  @DF-RHF Final Energy:  -388.28162982587673
    Total Energy =                       -388.2816298258774168
  Basis Set: 6-31G*
  Basis Set:
  Basis Set: 6-31G*
  Basis Set:
  @DF-RHF Final Energy:  -388.28200014329235
    Total Energy =                       -388.2820001432924073
  Basis Set: 6-31G*
  Basis Set:
  Basis Set: 6-31G*
  Basis Set:
  @DF-RHF Final Energy:  -388.28200454297934
    Total Energy =                       -388.2820045429791662
  Basis Set: 6-31G*
  Basis Set:
  @DF-RHF Final Energy:  -388.28200790237713
    Total Energy =                       -388.2820079023770177
  Basis Set: 6-31G*
  Basis Set:
  @DF-RHF Final Energy:  -388.28201709533283
    Total Energy =                       -388.2820170953330035
  Basis Set: 6-31G*
  Basis Set:
  Basis Set: 6-31G*
  Basis Set:
  @DF-RHF Final Energy:  -388.28201597360436
    Total Energy =                       -388.2820159736043024
  Basis Set: 6-31G*
  Basis Set:
  Basis Set: 6-31G*
  Basis Set:
  @DF-RHF Final Energy:  -388.28201781262732
    Total Energy =                       -388.2820178126276005
  Basis Set: 6-31G*
  Basis Set:
  Charge       = 0
  Multiplicity = 1
  Basis Set: 6-31G*
  Basis Set:

    Orbital Energies (a.u.)
    -----------------------

    Doubly Occupied:

       1A    -20.552857     2A    -11.267995     3A    -11.211638
       4A    -11.211022     5A    -11.209432     6A    -11.208860
       7A    -11.207580     8A    -11.206316     9A    -11.205004
      10A     -1.359354    11A     -1.088086    12A     -1.056239
      13A     -1.007837    14A     -0.942972    15A     -0.879667
      16A     -0.811200    17A     -0.794209    18A     -0.770816
      19A     -0.705718    20A     -0.644287    21A     -0.632276
      22A     -0.620396    23A     -0.586742    24A     -0.577866
      25A     -0.573594    26A     -0.546414    27A     -0.536768
      28A     -0.515948    29A     -0.506843    30A     -0.486121
      31A     -0.476695    32A     -0.474261    33A     -0.460047
      34A     -0.452863    35A     -0.445526    36A     -0.439505
      37A     -0.421786

  @DF-RHF Final Energy:  -388.28201778462619

   => Energetics <=

    Nuclear Repulsion Energy =            460.1291705594950372
    One-Electron Energy =               -1438.6329093686713350
    Two-Electron Energy =                 590.2217210245495380
    DFT Exchange-Correlation Energy =       0.0000000000000000
    Empirical Dispersion Energy =           0.0000000000000000
    PCM Polarization Energy =               0.0000000000000000
    EFP Energy =                            0.0000000000000000
    Total Energy =                       -388.2820177846267597
    Molecular point group: c1
  Basis Set: 6-31G*
  Basis Set:

  -Total Gradient:
     Atom            X                  Y                   Z
    ------   -----------------  -----------------  -----------------
       1       -0.000792733971    -0.000446191437    -0.000981516324
       2        0.000728022547     0.000461128583     0.001061274355
       3        0.000762072197     0.000203573283     0.000325681899
       4       -0.000692113124    -0.000223904336    -0.000407287982
       5       -0.000002104667     0.000008691215     0.000002663798
       6        0.000000546421     0.000002335934    -0.000000390160
       7       -0.000002011866    -0.000014003775     0.000004998418
       8       -0.000001487247     0.000000332700     0.000005315858
       9       -0.000001676359    -0.000003248286    -0.000005353891
      10        0.000006360849     0.000008227563    -0.000008599172
      11       -0.000004616002     0.000003632921    -0.000004479434
      12       -0.000000069567    -0.000002036995     0.000006164918
      13        0.000001979711     0.000005295014    -0.000003845526
      14        0.000003852137    -0.000000295221     0.000005334619
      15       -0.000003281872     0.000000240002    -0.000004535910
      16       -0.000001276549    -0.000005993781     0.000001291001
      17       -0.000004815546    -0.000000882229    -0.000003252710
      18       -0.000002451743     0.000003483544     0.000004754611
      19        0.000008618308    -0.000001052103    -0.000003656752
      20        0.000000368718    -0.000000569267     0.000004280085
      21       -0.000002867261     0.000000244271     0.000001222502
      22       -0.000002508382     0.000000268354     0.000000537136
      23        0.000001118607    -0.000000107648    -0.000001610228
      24        0.000002315552     0.000000430659     0.000000742740
      25       -0.000000135036    -0.000001386837    -0.000000704035
      26       -0.000001433569     0.000000335579     0.000000567271
      27        0.000000327717     0.000001452289     0.000000402907

  **** Optimization is complete! (in 9 steps) ****
    Final optimized geometry and variables:
    Molecular point group: c1

    Geometry (in Angstrom), charge = 0, multiplicity = 1:

    H           -1.010097511726     2.423955089409     3.411832294722
    O           -0.268690483533     1.994417178082     3.011063202278
    C           -0.145813581353     0.685921379194     3.512010171285
    C            0.689643708290    -0.136278692625     2.545054326422
    H            0.327440619034     0.702183827534     4.491705799712
    H           -1.126957366931     0.228469386913     3.630020739898
    C            0.033969901948    -0.321740002329     1.175827364678
    H            1.654485964279     0.350868141770     2.428536115555
    H            0.880076439247    -1.106772361987     2.999767981441
    C            0.903413761063    -1.135924207537     0.213931395457
    H           -0.179813547012     0.655043590796     0.758497330808
    H           -0.924759570585    -0.824249914253     1.303227343926
    C            0.254228693451    -1.430982616447    -1.143294367361
    H            1.846724014880    -0.616066656007     0.054486712805
    H            1.156735918294    -2.083179266177     0.686566004922
    C            0.015076147284    -0.200223316522    -2.022023878653
    H            0.892130309168    -2.126151578897    -1.685628131201
    H           -0.690318707913    -1.949234336539    -0.984350172143
    C           -0.542150199677    -0.552547716187    -3.402883423049
    H            0.951775281115     0.342439748656    -2.141585941732
    H           -0.671673475563     0.482930037637    -1.528868287871
    C           -0.785916787785     0.674855740128    -4.280303766585
    H            0.146685187841    -1.226003145878    -3.908589439955
    H           -1.473888544015    -1.102204817390    -3.285450539762
    H            0.134426685522     1.228351507872    -4.444288502158
    H           -1.179631683283     0.392845146645    -5.252098717759
    H           -1.499086397772     1.351773293849    -3.818291758581

  Mulliken Charges: (a.u.)
   Center  Symbol    Alpha    Beta     Spin     Total
       1     H     0.28026  0.28026  0.00000  0.43947
       2     O     4.37024  4.37024  0.00000 -0.74048
       3     C     2.99745  2.99745  0.00000  0.00510
       4     C     3.15951  3.15951  0.00000 -0.31902
       5     H     0.42742  0.42742  0.00000  0.14515
       6     H     0.43327  0.43327  0.00000  0.13346
       7     C     3.15709  3.15709  0.00000 -0.31418
       8     H     0.41462  0.41462  0.00000  0.17076
       9     H     0.42439  0.42439  0.00000  0.15122
      10     C     3.15332  3.15332  0.00000 -0.30664
      11     H     0.40584  0.40584  0.00000  0.18832
      12     H     0.42877  0.42877  0.00000  0.14246
      13     C     3.15278  3.15278  0.00000 -0.30557
      14     H     0.42314  0.42314  0.00000  0.15373
      15     H     0.42429  0.42429  0.00000  0.15143
      16     C     3.15256  3.15256  0.00000 -0.30511
      17     H     0.42296  0.42296  0.00000  0.15408
      18     H     0.42512  0.42512  0.00000  0.14977
      19     C     3.15102  3.15102  0.00000 -0.30203
      20     H     0.42424  0.42424  0.00000  0.15153
      21     H     0.42099  0.42099  0.00000  0.15801
      22     C     3.23895  3.23895  0.00000 -0.47790
      23     H     0.42380  0.42380  0.00000  0.15240
      24     H     0.42390  0.42390  0.00000  0.15221
      25     H     0.42183  0.42183  0.00000  0.15635
      26     H     0.42028  0.42028  0.00000  0.15944
      27     H     0.42198  0.42198  0.00000  0.15605

   Total alpha = 37.00000, Total beta = 37.00000, Total charge =  0.00000
