                              Psi4 1.0.54 Driver

  ==> Input File <==

--------------------------------------------------------------------------
set {
	reference rhf
	basis cc-pvtz
}

set_num_threads( 4 )
memory 2 gb

molecule MOL {
0 1

H	 1.130023	 -1.242328	 -0.083109
O	 1.292517	 -0.483084	 -0.613766
C	 0.706474	 0.636793	 -0.025501
C	 -0.793473	 0.591216	 0.050087
H	 1.007692	 1.489700	 -0.622257
H	 1.103840	 0.802397	 0.974187
C	 -1.534243	 -0.493009	 -0.013340
H	 -1.266611	 1.552628	 0.164437
H	 -1.101195	 -1.466332	 -0.144046
H	 -2.604242	 -0.437780	 0.050785

	symmetry c1
}
set optking {
	frozen_dihedral = ("
		5 3 4 7
	")
}

ee,wfn = optimize('scf', return_wfn=True)
oeprop( wfn, 'DIPOLE', 'QUADRUPOLE', 'MULLIKEN_CHARGES')
f=open( 'psi4out.xyz', 'w' )
f.write( "10  " )
f.write( str(ee) + "\n" )
f.write( MOL.save_string_xyz() )
f.close()
--------------------------------------------------------------------------

    Molecular point group: c1
  Charge       = 0
  Multiplicity = 1
  Basis Set: CC-PVTZ
  Basis Set:
  @DF-RHF Final Energy:  -191.99624445595072
    Total Energy =                       -191.9962444559507162
    Molecular point group: c1
  Basis Set: CC-PVTZ
  Basis Set:
  Basis Set: CC-PVTZ
  Basis Set:
  @DF-RHF Final Energy:  -191.99671995878319
    Total Energy =                       -191.9967199587831601
  Basis Set: CC-PVTZ
  Basis Set:
  Basis Set: CC-PVTZ
  Basis Set:
  @DF-RHF Final Energy:  -191.99685707918329
    Total Energy =                       -191.9968570791833713
  Basis Set: CC-PVTZ
  Basis Set:
  Basis Set: CC-PVTZ
  Basis Set:
  @DF-RHF Final Energy:  -191.99686631995075
    Total Energy =                       -191.9968663199507830
  Basis Set: CC-PVTZ
  Basis Set:
  Basis Set: CC-PVTZ
  Basis Set:
  @DF-RHF Final Energy:  -191.99686846868633
    Total Energy =                       -191.9968684686863298
  Basis Set: CC-PVTZ
  Basis Set:
  Charge       = 0
  Multiplicity = 1
  Basis Set: CC-PVTZ
  Basis Set:

    Orbital Energies (a.u.)
    -----------------------

    Doubly Occupied:

       1A    -20.555423     2A    -11.278688     3A    -11.230223
       4A    -11.216711     5A     -1.375775     6A     -1.062522
       7A     -0.932980     8A     -0.769655     9A     -0.698612
      10A     -0.664790    11A     -0.623062    12A     -0.573249
      13A     -0.530985    14A     -0.507224    15A     -0.449921
      16A     -0.368503

  @DF-RHF Final Energy:  -191.99686868820177

   => Energetics <=

    Nuclear Repulsion Energy =            119.2948985792619112
    One-Electron Energy =                -496.9068915416553409
    Two-Electron Energy =                 185.6151242741914302
    DFT Exchange-Correlation Energy =       0.0000000000000000
    Empirical Dispersion Energy =           0.0000000000000000
    PCM Polarization Energy =               0.0000000000000000
    EFP Energy =                            0.0000000000000000
    Total Energy =                       -191.9968686882019711
    Molecular point group: c1
  Basis Set: CC-PVTZ
  Basis Set:

  -Total Gradient:
     Atom            X                  Y                   Z
    ------   -----------------  -----------------  -----------------
       1       -0.000003418935     0.000005951198    -0.000008854910
       2       -0.000041242792     0.000065348408     0.000037493492
       3       -0.000033340798    -0.003276350311    -0.002283413061
       4       -0.000331680404     0.001181713273    -0.005327179953
       5        0.000142049660     0.002407969668     0.003487272620
       6        0.000014938043     0.000013396678     0.000025447512
       7        0.000246305475    -0.000388758262     0.004038853088
       8        0.000004266593     0.000000608322     0.000016216330
       9        0.000007719486    -0.000006408613     0.000009937988
      10       -0.000005596329    -0.000003470359     0.000004226894

  **** Optimization is complete! (in 6 steps) ****
    Final optimized geometry and variables:
    Molecular point group: c1

    Geometry (in Angstrom), charge = 0, multiplicity = 1:

    H            1.262247957416    -1.244100430801     0.180312174433
    O            1.307520299005    -0.532107026867    -0.431074711692
    C            0.714313339374     0.604322439007     0.113516065265
    C           -0.786178749508     0.565773340532     0.200652331158
    H            1.020439552399     1.454681483764    -0.482796764722
    H            1.102575951990     0.799869789680     1.112823888582
    C           -1.537462834617    -0.510873940188     0.141724443570
    H           -1.245554310090     1.519336591611     0.402996673189
    H           -1.126856913810    -1.481543859762    -0.063877274601
    H           -2.602152521128    -0.452560423264     0.263771856961

  Mulliken Charges: (a.u.)
   Center  Symbol    Alpha    Beta     Spin     Total
       1     H     0.39067  0.39067  0.00000  0.21867
       2     O     4.19776  4.19776  0.00000 -0.39551
       3     C     2.95180  2.95180  0.00000  0.09641
       4     C     3.07366  3.07366  0.00000 -0.14732
       5     H     0.45419  0.45419  0.00000  0.09162
       6     H     0.47080  0.47080  0.00000  0.05840
       7     C     3.17912  3.17912  0.00000 -0.35824
       8     H     0.42271  0.42271  0.00000  0.15458
       9     H     0.43160  0.43160  0.00000  0.13679
      10     H     0.42770  0.42770  0.00000  0.14460

   Total alpha = 16.00000, Total beta = 16.00000, Total charge = -0.00000

*** Psi4 exiting successfully. Buy a developer a beer!
