  ==> Input File <==

--------------------------------------------------------------------------
set {
	reference rhf
	basis 6-31G*
}

set_num_threads( 4 )
memory 2 gb

molecule MOL {
0 1

O	 -0.988096	 -1.408613	 0.050699
C	 -0.676749	 -0.249230	 -0.009274
C	 -1.746085	 0.827156	 -0.009539
N	 0.623947	 0.147590	 -0.102813
H	 -1.701500	 1.431508	 -0.908902
H	 -2.703425	 0.330732	 0.036390
H	 -1.647323	 1.487769	 0.845106
C	 0.912593	 1.565244	 -0.196719
C	 1.715290	 -0.731615	 -0.460885
H	 1.807064	 1.790255	 0.373639
H	 0.084981	 2.126676	 0.200512
H	 1.079281	 1.866993	 -1.228506
H	 2.618360	 -0.395294	 0.034485
H	 1.528359	 -1.745577	 -0.144860
H	 1.901444	 -0.732210	 -1.533340

	symmetry c1
}
set optking {
	frozen_dihedral = ("
		8 4 2 3
	")
}

ee = optimize('scf')
oeprop('DIPOLE', 'QUADRUPOLE', 'MULLIKEN_CHARGES')
f=open( 'psi4out.xyz', 'w' )
f.write( "15  " )
f.write( str(ee) + "\n" )
f.write( MOL.save_string_xyz() )
f.close()
--------------------------------------------------------------------------

    Molecular point group: c1
  Charge       = 0
  Multiplicity = 1
  Basis Set: 6-31G*
  Basis Set:
  @DF-RHF Final Energy:  -286.02433048856051
    Total Energy =                       -286.0243304885604516
    Molecular point group: c1
  Basis Set: 6-31G*
  Basis Set:
  Basis Set: 6-31G*
  Basis Set:
  @DF-RHF Final Energy:  -286.02590189400246
    Total Energy =                       -286.0259018940025157
  Basis Set: 6-31G*
  Basis Set:
  Basis Set: 6-31G*
  Basis Set:
  @DF-RHF Final Energy:  -286.02895569977250
    Total Energy =                       -286.0289556997727232
  Basis Set: 6-31G*
  Basis Set:
  Basis Set: 6-31G*
  Basis Set:
  @DF-RHF Final Energy:  -286.02927500869356
    Total Energy =                       -286.0292750086936167
  Basis Set: 6-31G*
  Basis Set:
  @DF-RHF Final Energy:  -286.02934632561119
    Total Energy =                       -286.0293463256111295
  @DF-RHF Final Energy:  -286.02939812721718
    Total Energy =                       -286.0293981272173482
  @DF-RHF Final Energy:  -286.02942313816521
    Total Energy =                       -286.0294231381651571
  @DF-RHF Final Energy:  -286.02944172534109
    Total Energy =                       -286.0294417253410302
  @DF-RHF Final Energy:  -286.02949227620536
    Total Energy =                       -286.0294922762053602
  @DF-RHF Final Energy:  -286.02961314300489
    Total Energy =                       -286.0296131430049513
  Basis Set: 6-31G*
  Basis Set:
  @DF-RHF Final Energy:  -286.02967321890287
    Total Energy =                       -286.0296732189028717
  Basis Set: 6-31G*
  Basis Set:
  Basis Set: 6-31G*
  Basis Set:
  @DF-RHF Final Energy:  -286.02968160942044
    Total Energy =                       -286.0296816094203223
  Basis Set: 6-31G*
  Basis Set:
  Basis Set: 6-31G*
  Basis Set:
  @DF-RHF Final Energy:  -286.02968345447954
    Total Energy =                       -286.0296834544795388
  Basis Set: 6-31G*
  Basis Set:
  Charge       = 0
  Multiplicity = 1
  Basis Set: 6-31G*
  Basis Set:

    Orbital Energies (a.u.)
    -----------------------

    Doubly Occupied:

       1A    -20.512028     2A    -15.584699     3A    -11.342005
       4A    -11.266736     5A    -11.247742     6A    -11.228236
       7A     -1.382715     8A     -1.244053     9A     -1.014178
      10A     -0.973195    11A     -0.920424    12A     -0.738653
      13A     -0.681190    14A     -0.659489    15A     -0.651433
      16A     -0.590182    17A     -0.575554    18A     -0.566454
      19A     -0.560944    20A     -0.547556    21A     -0.529860
      22A     -0.503972    23A     -0.408801    24A     -0.365037

  @DF-RHF Final Energy:  -286.02968391295428

   => Energetics <=

    Nuclear Repulsion Energy =            252.2099559849787909
    One-Electron Energy =                -888.2890069810273417
    Two-Electron Energy =                 350.0493670830942392
    DFT Exchange-Correlation Energy =       0.0000000000000000
    Empirical Dispersion Energy =           0.0000000000000000
    PCM Polarization Energy =               0.0000000000000000
    EFP Energy =                            0.0000000000000000
    Total Energy =                       -286.0296839129542832
    Molecular point group: c1
  Basis Set: 6-31G*
  Basis Set:

  -Total Gradient:
     Atom            X                  Y                   Z
    ------   -----------------  -----------------  -----------------
       1        0.000024526630     0.000005608737     0.000019277766
       2        0.000074513378     0.000008633826     0.000755615216
       3       -0.000045199301    -0.000007721256    -0.000371729497
       4       -0.000083401102    -0.000012120380    -0.000815113989
       5        0.000008423900     0.000012571380     0.000002061593
       6        0.000002409458    -0.000000740286    -0.000009426093
       7       -0.000010492359    -0.000005858840     0.000003145696
       8        0.000043983733     0.000004559467     0.000384065497
       9        0.000008776712     0.000001055172     0.000012163981
      10        0.000019486795    -0.000006700948    -0.000025153181
      11        0.000011764111    -0.000003828871     0.000042491991
      12       -0.000033778964     0.000010413581    -0.000005416993
      13       -0.000007232133    -0.000003477748     0.000003811063
      14       -0.000008745320     0.000000621460     0.000001763067
      15       -0.000005035536    -0.000003015291     0.000002443882

  **** Optimization is complete! (in 14 steps) ****
    Final optimized geometry and variables:
    Molecular point group: c1

    Geometry (in Angstrom), charge = 0, multiplicity = 1:

    O           -0.907228250863    -1.460360720707     0.163218261417
    C           -0.657916998844    -0.285200022116     0.107321265258
    C           -1.775897284759     0.732864648665     0.239532562185
    N            0.607935732976     0.178575509891    -0.076683257059
    H           -1.827337801402     1.388179971915    -0.622798531546
    H           -2.700931931087     0.183254400016     0.324070320183
    H           -1.650013294636     1.347913421615     1.124195817781
    C            0.985525866575     1.571087017280    -0.158177520826
    C            1.693250661470    -0.762576663589    -0.263166375449
    H            1.824364606651     1.762545116923     0.503522130455
    H            0.178996559758     2.222410311299     0.135345567060
    H            1.289049893221     1.835878768752    -1.168173250648
    H            2.447329329589    -0.626301310202     0.506793352840
    H            1.309360978830    -1.766154462290    -0.210384024146
    H            2.163956866447    -0.608992792983    -1.230559113737

  Mulliken Charges: (a.u.)
   Center  Symbol    Alpha    Beta     Spin     Total
       1     O     4.30647  4.30647  0.00000 -0.61294
       2     C     2.62215  2.62215  0.00000  0.75569
       3     C     3.29917  3.29917  0.00000 -0.59835
       4     N     3.82508  3.82508  0.00000 -0.65017
       5     H     0.40797  0.40797  0.00000  0.18406
       6     H     0.39003  0.39003  0.00000  0.21995
       7     H     0.40705  0.40705  0.00000  0.18590
       8     C     3.14076  3.14076  0.00000 -0.28152
       9     C     3.14643  3.14643  0.00000 -0.29286
      10     H     0.41263  0.41263  0.00000  0.17474
      11     H     0.40656  0.40656  0.00000  0.18688
      12     H     0.41483  0.41483  0.00000  0.17033
      13     H     0.41921  0.41921  0.00000  0.16158
      14     H     0.38178  0.38178  0.00000  0.23644
      15     H     0.41987  0.41987  0.00000  0.16026

   Total alpha = 24.00000, Total beta = 24.00000, Total charge =  0.00000
