                              Psi4 1.0.54 Driver

  ==> Input File <==

--------------------------------------------------------------------------
set {
	reference rhf
	basis cc-pvtz
}

set_num_threads( 4 )
memory 2 gb

molecule MOL {
0 1

H	 -1.983162	 -0.812527	 -0.457075
O	 -2.041679	 -0.058866	 0.103463
C	 -0.959304	 0.780994	 -0.094939
C	 0.354905	 0.037902	 -0.006215
H	 -0.985899	 1.279578	 -1.057596
H	 -0.969809	 1.529522	 0.682889
F	 0.412060	 -0.931028	 -0.902708
F	 1.359641	 0.856111	 -0.239961
F	 0.545380	 -0.506387	 1.171682

	symmetry c1
}
set optking {
	frozen_dihedral = ("
		1 2 3 5
	")
}

ee,wfn = optimize('scf', return_wfn=True)
oeprop( wfn, 'DIPOLE', 'QUADRUPOLE', 'MULLIKEN_CHARGES')
f=open( 'psi4out.xyz', 'w' )
f.write( "9  " )
f.write( str(ee) + "\n" )
f.write( MOL.save_string_xyz() )
f.close()
--------------------------------------------------------------------------

    Molecular point group: c1
  Charge       = 0
  Multiplicity = 1
  Basis Set: CC-PVTZ
  Basis Set:
  @DF-RHF Final Energy:  -450.84676934258073
    Total Energy =                       -450.8467693425806715
    Molecular point group: c1
  Basis Set: CC-PVTZ
  Basis Set:
  Basis Set: CC-PVTZ
  Basis Set:
  @DF-RHF Final Energy:  -450.84680318454650
    Total Energy =                       -450.8468031845466726
  Basis Set: CC-PVTZ
  Basis Set:
  Basis Set: CC-PVTZ
  Basis Set:
  @DF-RHF Final Energy:  -450.84680992493833
    Total Energy =                       -450.8468099249381567
  Basis Set: CC-PVTZ
  Basis Set:
  Charge       = 0
  Multiplicity = 1
  Basis Set: CC-PVTZ
  Basis Set:

    Orbital Energies (a.u.)
    -----------------------

    Doubly Occupied:

       1A    -26.342895     2A    -26.342025     3A    -26.338205
       4A    -20.583082     5A    -11.496768     6A    -11.309826
       7A     -1.750633     8A     -1.647941     9A     -1.645384
      10A     -1.406558    11A     -1.051636    12A     -0.931849
      13A     -0.840413    14A     -0.838890    15A     -0.816578
      16A     -0.729541    17A     -0.721526    18A     -0.700547
      19A     -0.674075    20A     -0.668997    21A     -0.652011
      22A     -0.633914    23A     -0.625295    24A     -0.531860
      25A     -0.484450

  @DF-RHF Final Energy:  -450.84681040504501

   => Energetics <=

    Nuclear Repulsion Energy =            277.8620857220481071
    One-Electron Energy =               -1177.8879927860482439
    Two-Electron Energy =                 449.1790966589550180
    DFT Exchange-Correlation Energy =       0.0000000000000000
    Empirical Dispersion Energy =           0.0000000000000000
    PCM Polarization Energy =               0.0000000000000000
    EFP Energy =                            0.0000000000000000
    Total Energy =                       -450.8468104050451757
    Molecular point group: c1
  Basis Set: CC-PVTZ
  Basis Set:

  -Total Gradient:
     Atom            X                  Y                   Z
    ------   -----------------  -----------------  -----------------
       1        0.000976995029    -0.000947426202     0.001338607946
       2       -0.001483339732     0.001540489541    -0.001433161576
       3        0.001385584919    -0.001890242075    -0.000636541795
       4       -0.000084418227    -0.000065999523     0.000042002456
       5       -0.000837686474     0.001269172674     0.000722345506
       6        0.000007723871     0.000003167648     0.000004437904
       7        0.000006912126     0.000047403995     0.000087285751
       8        0.000055981912     0.000061803137    -0.000047289347
       9       -0.000027753425    -0.000018369195    -0.000077686844

  **** Optimization is complete! (in 4 steps) ****
    Final optimized geometry and variables:
    Molecular point group: c1

    Geometry (in Angstrom), charge = 0, multiplicity = 1:

    H           -1.997354227640    -0.805337713221    -0.476811549601
    O           -2.047463123840    -0.058999627573     0.094940082558
    C           -0.961197408387     0.778480307077    -0.095254429471
    C            0.355023564922     0.041261331065    -0.006544420680
    H           -0.992606161843     1.290417105903    -1.050965328254
    H           -0.974665672677     1.521882064767     0.687853890530
    F            0.406987813561    -0.940567414207    -0.890680918354
    F            1.356348686321     0.856632058009    -0.256649320558
    F            0.553633660364    -0.490632491352     1.176254938134

  Mulliken Charges: (a.u.)
   Center  Symbol    Alpha    Beta     Spin     Total
       1     H     0.38661  0.38661  0.00000  0.22678
       2     O     4.19309  4.19309  0.00000 -0.38617
       3     C     2.98441  2.98441  0.00000  0.03117
       4     C     2.68626  2.68626  0.00000  0.62748
       5     H     0.46363  0.46363  0.00000  0.07274
       6     H     0.44987  0.44987  0.00000  0.10025
       7     F     4.61809  4.61809  0.00000 -0.23618
       8     F     4.61058  4.61058  0.00000 -0.22116
       9     F     4.60746  4.60746  0.00000 -0.21492

   Total alpha = 25.00000, Total beta = 25.00000, Total charge =  0.00000

*** Psi4 exiting successfully. Buy a developer a beer!
