  ==> Input File <==

--------------------------------------------------------------------------
set {
	reference rhf
	basis 6-31G*
}

set_num_threads( 1 )
memory 2 gb

molecule MOL {
0 1

H	 -0.583339	 -1.811947	 0.761511
C	 -1.546015	 -1.405587	 0.457754
O	 -1.392607	 -0.295399	 -0.366433
H	 -2.081703	 -2.157778	 -0.104730
H	 -2.116598	 -1.163866	 1.353541
C	 -0.719715	 0.768384	 0.229244
C	 0.719720	 0.768376	 -0.229267
H	 -1.185038	 1.714362	 -0.050570
H	 -0.750528	 0.687237	 1.313896
O	 1.392611	 -0.295398	 0.366430
H	 0.750534	 0.687200	 -1.313918
H	 1.185043	 1.714359	 0.050526
C	 2.706965	 -0.449871	 -0.062409
H	 2.756559	 -0.644779	 -1.131878
H	 3.305899	 0.433456	 0.155466
H	 3.125548	 -1.294566	 0.467107

	symmetry c1
}
set optking {
	frozen_dihedral = ("
		3 6 7 11,
		7 10 13 14
	")
}

ee = energy('scf')
oeprop('DIPOLE', 'QUADRUPOLE', 'MULLIKEN_CHARGES')
f=open( 'psi4out.xyz', 'w' )
f.write( "16  " )
f.write( str(ee) + "\n" )
f.write( MOL.save_string_xyz() )
f.close()
--------------------------------------------------------------------------

    Molecular point group: c1

    Geometry (in Angstrom), charge = 0, multiplicity = 1:

       Center              X                  Y                   Z               Mass
    ------------   -----------------  -----------------  -----------------  -----------------
           H         -0.787322265889    -1.644020527881     0.692046745455     1.007825032070
           C         -1.749998265889    -1.237660527881     0.388289745455    12.000000000000
           O         -1.596590265889    -0.127472527881    -0.435897254545    15.994914619560
           H         -2.285686265889    -1.989851527881    -0.174194254545     1.007825032070
           H         -2.320581265889    -0.995939527881     1.284076745455     1.007825032070
           C         -0.923698265889     0.936310472119     0.159779745455    12.000000000000
           C          0.515736734111     0.936302472119    -0.298731254545    12.000000000000
           H         -1.389021265889     1.882288472119    -0.120034254545     1.007825032070
           H         -0.954511265889     0.855163472119     1.244431745455     1.007825032070
           O          1.188627734111    -0.127471527881     0.296965745455    15.994914619560
           H          0.546550734111     0.855126472119    -1.383382254545     1.007825032070
           H          0.981059734111     1.882285472119    -0.018938254545     1.007825032070
           C          2.502981734111    -0.281944527881    -0.131873254545    12.000000000000
           H          2.552575734111    -0.476852527881    -1.201342254545     1.007825032070
           H          3.101915734111     0.601382472119     0.086001745455     1.007825032070
           H          2.921564734111    -1.126639527881     0.397642745455     1.007825032070

  Charge       = 0
  Multiplicity = 1
  Basis Set: 6-31G*
  Basis Set:

    Orbital Energies (a.u.)
    -----------------------

    Doubly Occupied:

       1A    -20.559985     2A    -20.549178     3A    -11.268091
       4A    -11.267703     5A    -11.266655     6A    -11.254193
       7A     -1.391931     8A     -1.369771     9A     -1.028419
      10A     -0.940473    11A     -0.888645    12A     -0.823585
      13A     -0.687173    14A     -0.680425    15A     -0.658724
      16A     -0.632379    17A     -0.624443    18A     -0.598891
      19A     -0.548949    20A     -0.530302    21A     -0.516671
      22A     -0.479217    23A     -0.468347    24A     -0.421841
      25A     -0.400939

  @DF-RHF Final Energy:  -306.97589055575406

   => Energetics <=

    Nuclear Repulsion Energy =            264.7891125754680388
    One-Electron Energy =                -943.8163336600392768
    Two-Electron Energy =                 372.0513305288170613
    DFT Exchange-Correlation Energy =       0.0000000000000000
    Empirical Dispersion Energy =           0.0000000000000000
    PCM Polarization Energy =               0.0000000000000000
    EFP Energy =                            0.0000000000000000
    Total Energy =                       -306.9758905557541766

  Mulliken Charges: (a.u.)
   Center  Symbol    Alpha    Beta     Spin     Total
       1     H     0.41357  0.41357  0.00000  0.17286
       2     C     3.08565  3.08565  0.00000 -0.17131
       3     O     4.30376  4.30376  0.00000 -0.60752
       4     H     0.41636  0.41636  0.00000  0.16728
       5     H     0.43229  0.43229  0.00000  0.13542
       6     C     3.00525  3.00525  0.00000 -0.01050
       7     C     2.99100  2.99100  0.00000  0.01799
       8     H     0.41787  0.41787  0.00000  0.16427
       9     H     0.42200  0.42200  0.00000  0.15600
      10     O     4.30530  4.30530  0.00000 -0.61059
      11     H     0.42295  0.42295  0.00000  0.15410
      12     H     0.43529  0.43529  0.00000  0.12943
      13     C     3.07991  3.07991  0.00000 -0.15982
      14     H     0.42713  0.42713  0.00000  0.14575
      15     H     0.42978  0.42978  0.00000  0.14044
      16     H     0.41190  0.41190  0.00000  0.17621

   Total alpha = 25.00000, Total beta = 25.00000, Total charge =  0.00000
