  ==> Input File <==

--------------------------------------------------------------------------
set {
	reference rhf
	basis 6-31G*
}

set_num_threads( 4 )
memory 2 gb

molecule MOL {
0 1

H	 -3.420663	 1.227371	 -1.044276
O	 -3.452007	 0.283848	 -0.965577
C	 -3.181085	 -0.079926	 0.364119
C	 -1.765924	 0.277073	 0.805136
H	 -3.327791	 -1.152017	 0.410903
H	 -3.905698	 0.375695	 1.036898
C	 -0.677594	 -0.417312	 -0.014550
H	 -1.637766	 1.358238	 0.744969
H	 -1.659588	 0.017670	 1.857098
C	 0.738335	 -0.034840	 0.421385
H	 -0.814977	 -0.178223	 -1.064632
H	 -0.802730	 -1.495410	 0.071702
C	 0.953588	 1.480030	 0.475423
H	 0.938945	 -0.473594	 1.395895
H	 1.460067	 -0.474637	 -0.265845
C	 2.382898	 1.913025	 0.821464
H	 0.262843	 1.915917	 1.195542
H	 0.689552	 1.903555	 -0.491390
C	 2.833626	 1.545731	 2.236506
H	 2.454153	 2.991475	 0.702474
H	 3.073824	 1.482612	 0.099268
H	 2.153628	 1.952552	 2.980306
H	 3.822639	 1.944003	 2.441617
H	 2.879579	 0.471619	 2.382576

	symmetry c1
}
set optking {
	frozen_dihedral = ("
		13 10 7 11
	")
}

ee = optimize('scf')
oeprop('DIPOLE', 'QUADRUPOLE', 'MULLIKEN_CHARGES')
f=open( 'psi4out.xyz', 'w' )
f.write( "24  " )
f.write( str(ee) + "\n" )
f.write( MOL.save_string_xyz() )
f.close()
--------------------------------------------------------------------------

    Molecular point group: c1
  Charge       = 0
  Multiplicity = 1
  Basis Set: 6-31G*
  Basis Set:
  @DF-RHF Final Energy:  -349.24368453128091
    Total Energy =                       -349.2436845312809623
    Molecular point group: c1
  Basis Set: 6-31G*
  Basis Set:
  Basis Set: 6-31G*
  Basis Set:
  @DF-RHF Final Energy:  -349.24437058536267
    Total Energy =                       -349.2443705853627307
  Basis Set: 6-31G*
  Basis Set:
  Basis Set: 6-31G*
  Basis Set:
  @DF-RHF Final Energy:  -349.24527088899208
    Total Energy =                       -349.2452708889921951
  Basis Set: 6-31G*
  Basis Set:
  Basis Set: 6-31G*
  Basis Set:
  @DF-RHF Final Energy:  -349.24532707424078
    Total Energy =                       -349.2453270742408904
  Basis Set: 6-31G*
  Basis Set:
  Basis Set: 6-31G*
  Basis Set:
  @DF-RHF Final Energy:  -349.24532955018628
    Total Energy =                       -349.2453295501861135
  Basis Set: 6-31G*
  Basis Set:
  Basis Set: 6-31G*
  Basis Set:
  @DF-RHF Final Energy:  -349.24534095254967
    Total Energy =                       -349.2453409525495545
  Basis Set: 6-31G*
  Basis Set:
  Charge       = 0
  Multiplicity = 1
  Basis Set: 6-31G*
  Basis Set:

    Orbital Energies (a.u.)
    -----------------------

    Doubly Occupied:

       1A    -20.553352     2A    -11.267619     3A    -11.217222
       4A    -11.215181     5A    -11.213356     6A    -11.212687
       7A    -11.211705     8A    -11.208122     9A     -1.359978
      10A     -1.089214    11A     -1.047214    12A     -0.984412
      13A     -0.916696    14A     -0.854190    15A     -0.809344
      16A     -0.765732    17A     -0.677887    18A     -0.649950
      19A     -0.628324    20A     -0.618677    21A     -0.599068
      22A     -0.576559    23A     -0.571889    24A     -0.535410
      25A     -0.524894    26A     -0.509981    27A     -0.492432
      28A     -0.483039    29A     -0.472415    30A     -0.456448
      31A     -0.449913    32A     -0.441503    33A     -0.423021

  @DF-RHF Final Energy:  -349.24534177029722

   => Energetics <=

    Nuclear Repulsion Energy =            389.4479907914048340
    One-Electron Energy =               -1245.3117978782358932
    Two-Electron Energy =                 506.6184653165339569
    DFT Exchange-Correlation Energy =       0.0000000000000000
    Empirical Dispersion Energy =           0.0000000000000000
    PCM Polarization Energy =               0.0000000000000000
    EFP Energy =                            0.0000000000000000
    Total Energy =                       -349.2453417702970455
    Molecular point group: c1
  Basis Set: 6-31G*
  Basis Set:

  -Total Gradient:
     Atom            X                  Y                   Z
    ------   -----------------  -----------------  -----------------
       1       -0.000005129243     0.000016473947    -0.000017541378
       2       -0.000058702305     0.000056042650     0.000035720973
       3        0.000043477670    -0.000134636527    -0.000009675361
       4        0.000023045433     0.000094002626    -0.000026412461
       5       -0.000000018935    -0.000012702882     0.000005576614
       6        0.000010391212    -0.000000766316    -0.000009438793
       7       -0.001397702961     0.003153425166     0.001551010627
       8        0.000052327789     0.000033968160     0.000004158010
       9       -0.000022117299     0.000010960905    -0.000006413922
      10        0.001185108428    -0.000735543332    -0.002859447764
      11        0.000900404457    -0.002575416941    -0.000583998624
      12       -0.000009535062     0.000001064963    -0.000020341165
      13       -0.000734093168     0.000081272505     0.001967790434
      14        0.000019494133     0.000019721155     0.000002711859
      15       -0.000019838614    -0.000006919028    -0.000004607607
      16        0.000034558486    -0.000035457635    -0.000057524392
      17       -0.000064505940     0.000019120369    -0.000016533631
      18        0.000014376504    -0.000023142981     0.000003263731
      19        0.000007865584     0.000008871337     0.000023281350
      20       -0.000007289355    -0.000018951171     0.000030113853
      21        0.000025972310     0.000035180694    -0.000023069082
      22        0.000009100871     0.000007156424     0.000015563220
      23        0.000000496839    -0.000014170741     0.000007518981
      24       -0.000007686828     0.000020446657    -0.000011705472

  **** Optimization is complete! (in 7 steps) ****
    Final optimized geometry and variables:
    Molecular point group: c1

    Geometry (in Angstrom), charge = 0, multiplicity = 1:

    H           -3.213705496620     0.401808116754    -1.672964710378
    O           -3.172153657195    -0.533966456088    -1.531618916195
    C           -2.901114720918    -0.787081811563    -0.176584284148
    C           -1.531882082381    -0.280168738229     0.263656013364
    H           -2.956904229332    -1.862513640478    -0.062036893229
    H           -3.676709792504    -0.353433744248     0.452500052378
    C           -0.377444659436    -0.931951489003    -0.499413519418
    H           -1.504995547290     0.801311953778     0.144034125671
    H           -1.424143373886    -0.471471533751     1.330549254067
    C            1.025476170226    -0.561243525685    -0.000772945407
    H           -0.461921871652    -0.710669154960    -1.559055262668
    H           -0.485155914063    -2.012610152733    -0.422659643393
    C            1.311720835676     0.943509024252     0.055590901149
    H            1.170862151290    -0.992791657117     0.986948483258
    H            1.755845242289    -1.038461019214    -0.650920813827
    C            2.779284210904     1.295737899012     0.326732408589
    H            0.692136727160     1.410132327132     0.817618868026
    H            1.020179385884     1.393253157047    -0.892369978614
    C            3.292429808518     0.860560475778     1.700719105844
    H            2.897751473575     2.372770682536     0.235569291013
    H            3.403745188182     0.855422708575    -0.447895773427
    H            2.678685730584     1.275311521022     2.496115348797
    H            4.310629815655     1.202981116324     1.858080399690
    H            3.291720420364    -0.218694495295     1.810848121505

  Mulliken Charges: (a.u.)
   Center  Symbol    Alpha    Beta     Spin     Total
       1     H     0.28339  0.28339  0.00000  0.43323
       2     O     4.36833  4.36833  0.00000 -0.73666
       3     C     2.99628  2.99628  0.00000  0.00744
       4     C     3.17137  3.17137  0.00000 -0.34273
       5     H     0.41637  0.41637  0.00000  0.16727
       6     H     0.42821  0.42821  0.00000  0.14359
       7     C     3.15202  3.15202  0.00000 -0.30404
       8     H     0.42525  0.42525  0.00000  0.14949
       9     H     0.42285  0.42285  0.00000  0.15430
      10     C     3.15432  3.15432  0.00000 -0.30864
      11     H     0.41345  0.41345  0.00000  0.17309
      12     H     0.42219  0.42219  0.00000  0.15562
      13     C     3.15513  3.15513  0.00000 -0.31025
      14     H     0.42304  0.42304  0.00000  0.15393
      15     H     0.42138  0.42138  0.00000  0.15724
      16     C     3.15189  3.15189  0.00000 -0.30377
      17     H     0.42327  0.42327  0.00000  0.15345
      18     H     0.42360  0.42360  0.00000  0.15279
      19     C     3.24128  3.24128  0.00000 -0.48256
      20     H     0.42166  0.42166  0.00000  0.15669
      21     H     0.42303  0.42303  0.00000  0.15395
      22     H     0.42295  0.42295  0.00000  0.15410
      23     H     0.41933  0.41933  0.00000  0.16133
      24     H     0.41942  0.41942  0.00000  0.16116

   Total alpha = 33.00000, Total beta = 33.00000, Total charge =  0.00000
