  ==> Input File <==

--------------------------------------------------------------------------
set {
	reference rhf
	basis cc-pvtz
}

set_num_threads( 4 )
memory 2 gb

molecule MOL {
0 1

H	 -1.835082	 1.385983	 0.000069
C	 -1.300516	 0.441153	 -0.000028
O	 -0.006604	 0.654344	 -0.000106
O	 -1.828920	 -0.612308	 0.000113
C	 0.852093	 -0.482521	 -0.000161
C	 1.992347	 -0.199152	 0.948641
H	 1.204237	 -0.654155	 -1.007382
H	 0.283984	 -1.349337	 0.306180
H	 2.549746	 0.673156	 0.631852
H	 2.666181	 -1.047245	 0.971889
H	 1.624864	 -0.025492	 1.952019

	symmetry c1
}
set optking {
	frozen_dihedral = ("
		7 5 3 2
	")
}

ee = optimize('scf')
oeprop('DIPOLE', 'QUADRUPOLE', 'MULLIKEN_CHARGES')
f=open( 'psi4out.xyz', 'w' )
f.write( "11  " )
f.write( str(ee) + "\n" )
f.write( MOL.save_string_xyz() )
f.close()
--------------------------------------------------------------------------

    Molecular point group: c1
  Charge       = 0
  Multiplicity = 1
  Basis Set: CC-PVTZ
  Basis Set:
  @DF-RHF Final Energy:  -266.92981108698893
    Total Energy =                       -266.9298110869888774
    Molecular point group: c1
  Basis Set: CC-PVTZ
  Basis Set:
  Basis Set: CC-PVTZ
  Basis Set:
  @DF-RHF Final Energy:  -266.93005485001993
    Total Energy =                       -266.9300548500200989
  Basis Set: CC-PVTZ
  Basis Set:
  Basis Set: CC-PVTZ
  Basis Set:
  @DF-RHF Final Energy:  -266.93020251989674
    Total Energy =                       -266.9302025198967385
  Basis Set: CC-PVTZ
  Basis Set:
  Basis Set: CC-PVTZ
  Basis Set:
  @DF-RHF Final Energy:  -266.92994201082536
    Total Energy =                       -266.9299420108255845
  Basis Set: CC-PVTZ
  Basis Set:
  Basis Set: CC-PVTZ
  Basis Set:
  @DF-RHF Final Energy:  -266.93030064326695
    Total Energy =                       -266.9303006432670600
  Basis Set: CC-PVTZ
  Basis Set:
  Charge       = 0
  Multiplicity = 1
  Basis Set: CC-PVTZ
  Basis Set:

    Orbital Energies (a.u.)
    -----------------------

    Doubly Occupied:

       1A    -20.604937     2A    -20.544931     3A    -11.371059
       4A    -11.289068     5A    -11.225011     6A     -1.477447
       7A     -1.377659     8A     -1.053431     9A     -0.906600
      10A     -0.802776    11A     -0.745536    12A     -0.688505
      13A     -0.676882    14A     -0.604154    15A     -0.573438
      16A     -0.557383    17A     -0.530251    18A     -0.507215
      19A     -0.462202    20A     -0.456123

  @DF-RHF Final Energy:  -266.93030142963539

   => Energetics <=

    Nuclear Repulsion Energy =            179.6151148473724106
    One-Electron Energy =                -720.1816157713490156
    Two-Electron Energy =                 273.6361994943410991
    DFT Exchange-Correlation Energy =       0.0000000000000000
    Empirical Dispersion Energy =           0.0000000000000000
    PCM Polarization Energy =               0.0000000000000000
    EFP Energy =                            0.0000000000000000
    Total Energy =                       -266.9303014296355059
    Molecular point group: c1
  Basis Set: CC-PVTZ
  Basis Set:

  -Total Gradient:
     Atom            X                  Y                   Z
    ------   -----------------  -----------------  -----------------
       1        0.000017824487    -0.000002968912     0.000001233633
       2       -0.000022855556    -0.000043596513     0.001073908337
       3        0.000251413160     0.000193022097    -0.001535331727
       4        0.000008829674     0.000017271993     0.000001398534
       5       -0.001161136142    -0.000833422832     0.000257393916
       6       -0.000001133035    -0.000017081542    -0.000016042055
       7        0.000913282415     0.000723149756     0.000221655507
       8       -0.000003935502    -0.000033636788     0.000001240427
       9       -0.000004910075    -0.000001191918    -0.000001685738
      10        0.000012537482     0.000001898818     0.000005948213
      11       -0.000009916909    -0.000003444160    -0.000009719048

  **** Optimization is complete! (in 6 steps) ****
    Final optimized geometry and variables:
    Molecular point group: c1

    Geometry (in Angstrom), charge = 0, multiplicity = 1:

    H           -1.751493676437     1.452284994294    -0.190416748375
    C           -1.246043399236     0.491590678823    -0.200908693328
    O            0.053209514990     0.675230431519    -0.186290973705
    O           -1.810513904898    -0.542543115551    -0.222811303041
    C            0.923191733439    -0.454654889704    -0.165690096963
    C            2.077156305910    -0.152484421563     0.763486496718
    H            1.275330525464    -0.610512078022    -1.176578334862
    H            0.372567663056    -1.325462054572     0.148417082006
    H            2.602733580773     0.740148719062     0.449042807740
    H            2.775636814181    -0.981113813839     0.759200571033
    H            1.726716196345    -0.005371988991     1.777410705539

  Mulliken Charges: (a.u.)
   Center  Symbol    Alpha    Beta     Spin     Total
       1     H     0.45040  0.45040  0.00000  0.09919
       2     C     2.84132  2.84132  0.00000  0.31737
       3     O     4.14757  4.14757  0.00000 -0.29513
       4     O     4.19574  4.19574  0.00000 -0.39149
       5     C     2.97828  2.97828  0.00000  0.04344
       6     C     3.13240  3.13240  0.00000 -0.26480
       7     H     0.45416  0.45416  0.00000  0.09167
       8     H     0.44403  0.44403  0.00000  0.11195
       9     H     0.45042  0.45042  0.00000  0.09916
      10     H     0.45454  0.45454  0.00000  0.09092
      11     H     0.45114  0.45114  0.00000  0.09773

   Total alpha = 20.00000, Total beta = 20.00000, Total charge = -0.00000
