  ==> Input File <==

--------------------------------------------------------------------------
set {
	reference rhf
	basis 6-31G*
}

set_num_threads( 1 )
memory 2 gb

molecule MOL {
0 1

H	 -0.201265	 2.320272	 -0.882557
C	 0.353119	 2.051701	 0.024818
C	 0.692068	 0.589600	 0.160137
O	 0.643740	 2.889025	 0.816372
C	 -0.558097	 -0.297372	 0.091132
H	 1.225310	 0.449316	 1.093119
H	 1.365291	 0.327994	 -0.655439
C	 -1.850991	 0.512573	 -0.019058
H	 -0.476753	 -0.965681	 -0.762987
H	 -0.604799	 -0.930658	 0.975228
C	 -3.096943	 -0.368295	 -0.099594
H	 -1.800724	 1.150330	 -0.898172
H	 -1.931651	 1.177355	 0.838044
H	 -3.060452	 -1.020287	 -0.967456
H	 -3.996858	 0.233488	 -0.175704
H	 -3.191959	 -0.995686	 0.782074

	symmetry c1
}
set optking {
	frozen_dihedral = ("
		9 5 8 12,
		4 2 3 6
	")
}

ee = energy('scf')
oeprop('DIPOLE', 'QUADRUPOLE', 'MULLIKEN_CHARGES')
f=open( 'psi4out.xyz', 'w' )
f.write( "16  " )
f.write( str(ee) + "\n" )
f.write( MOL.save_string_xyz() )
f.close()
--------------------------------------------------------------------------

    Molecular point group: c1

    Geometry (in Angstrom), charge = 0, multiplicity = 1:

       Center              X                  Y                   Z               Mass
    ------------   -----------------  -----------------  -----------------  -----------------
           H          0.449420902658     1.416061015830    -1.048555938816     1.007825032070
           C          1.003804902658     1.147490015830    -0.141180938816    12.000000000000
           C          1.342753902658    -0.314610984170    -0.005861938816    12.000000000000
           O          1.294425902658     1.984814015830     0.650373061184    15.994914619560
           C          0.092588902658    -1.201582984170    -0.074866938816    12.000000000000
           H          1.875995902658    -0.454894984170     0.927120061184     1.007825032070
           H          2.015976902658    -0.576216984170    -0.821437938816     1.007825032070
           C         -1.200305097342    -0.391637984170    -0.185056938816    12.000000000000
           H          0.173932902658    -1.869891984170    -0.928985938816     1.007825032070
           H          0.045886902658    -1.834868984170     0.809229061184     1.007825032070
           C         -2.446257097342    -1.272505984170    -0.265592938816    12.000000000000
           H         -1.150038097342     0.246119015830    -1.064170938816     1.007825032070
           H         -1.280965097342     0.273144015830     0.672045061184     1.007825032070
           H         -2.409766097342    -1.924497984170    -1.133454938816     1.007825032070
           H         -3.346172097342    -0.670722984170    -0.341702938816     1.007825032070
           H         -2.541273097342    -1.899896984170     0.616075061184     1.007825032070

  Charge       = 0
  Multiplicity = 1
  Basis Set: 6-31G*
  Basis Set:

    Orbital Energies (a.u.)
    -----------------------

    Doubly Occupied:

       1A    -20.559889     2A    -11.324505     3A    -11.234364
       4A    -11.233183     5A    -11.229661     6A    -11.218627
       7A     -1.400505     8A     -1.099968     9A     -1.015042
      10A     -0.902529    11A     -0.841821    12A     -0.768434
      13A     -0.677544    14A     -0.644131    15A     -0.628466
      16A     -0.605046    17A     -0.582943    18A     -0.562288
      19A     -0.522964    20A     -0.509683    21A     -0.497897
      22A     -0.474880    23A     -0.468986    24A     -0.405255

  @DF-RHF Final Energy:  -270.00718448333515

   => Energetics <=

    Nuclear Repulsion Energy =            236.5830555683905914
    One-Electron Energy =                -834.3632821154299108
    Two-Electron Energy =                 327.7730420637042243
    DFT Exchange-Correlation Energy =       0.0000000000000000
    Empirical Dispersion Energy =           0.0000000000000000
    PCM Polarization Energy =               0.0000000000000000
    EFP Energy =                            0.0000000000000000
    Total Energy =                       -270.0071844833350951

  Mulliken Charges: (a.u.)
   Center  Symbol    Alpha    Beta     Spin     Total
       1     H     0.42847  0.42847  0.00000  0.14305
       2     C     2.83643  2.83643  0.00000  0.32714
       3     C     3.21055  3.21055  0.00000 -0.42111
       4     O     4.23853  4.23853  0.00000 -0.47707
       5     C     3.15762  3.15762  0.00000 -0.31524
       6     H     0.39703  0.39703  0.00000  0.20594
       7     H     0.40691  0.40691  0.00000  0.18619
       8     C     3.17260  3.17260  0.00000 -0.34520
       9     H     0.41619  0.41619  0.00000  0.16762
      10     H     0.41135  0.41135  0.00000  0.17730
      11     C     3.23747  3.23747  0.00000 -0.47494
      12     H     0.42037  0.42037  0.00000  0.15926
      13     H     0.41094  0.41094  0.00000  0.17811
      14     H     0.42041  0.42041  0.00000  0.15918
      15     H     0.41587  0.41587  0.00000  0.16826
      16     H     0.41925  0.41925  0.00000  0.16149

   Total alpha = 24.00000, Total beta = 24.00000, Total charge = -0.00000
