  ==> Input File <==

--------------------------------------------------------------------------
set {
	reference rhf
	basis cc-pvtz
}

set_num_threads( 4 )
memory 2 gb

molecule MOL {
0 1

H	 1.784131	 -0.873609	 0.782048
C	 0.924588	 -0.962157	 0.133932
O	 -0.000000	 0.000000	 0.518769
H	 1.245808	 -0.817021	 -0.895441
H	 0.517108	 -1.966627	 0.228037
C	 -1.165153	 0.000000	 -0.236961
H	 -1.229451	 0.882440	 -0.870223
H	 -2.002557	 0.000000	 0.445289
H	 -1.229451	 -0.882440	 -0.870223

	symmetry c1
}
set optking {
	frozen_dihedral = ("
		2 3 6 7
	")
}

ee = optimize('scf')
oeprop('DIPOLE', 'QUADRUPOLE', 'MULLIKEN_CHARGES')
f=open( 'psi4out.xyz', 'w' )
f.write( "9  " )
f.write( str(ee) + "\n" )
f.write( MOL.save_string_xyz() )
f.close()
--------------------------------------------------------------------------

    Molecular point group: c1
  Charge       = 0
  Multiplicity = 1
  Basis Set: CC-PVTZ
  Basis Set:
  @DF-RHF Final Energy:  -154.12338912219528
    Total Energy =                       -154.1233891221951922
    Molecular point group: c1
  Basis Set: CC-PVTZ
  Basis Set:
  Basis Set: CC-PVTZ
  Basis Set:
  @DF-RHF Final Energy:  -154.12366355972955
    Total Energy =                       -154.1236635597295503
  Basis Set: CC-PVTZ
  Basis Set:
  Basis Set: CC-PVTZ
  Basis Set:
  @DF-RHF Final Energy:  -154.12372793695755
    Total Energy =                       -154.1237279369575504
  Basis Set: CC-PVTZ
  Basis Set:
  Charge       = 0
  Multiplicity = 1
  Basis Set: CC-PVTZ
  Basis Set:

    Orbital Energies (a.u.)
    -----------------------

    Doubly Occupied:

       1A    -20.546846     2A    -11.263573     3A    -11.262652
       4A     -1.377950     5A     -0.975878     6A     -0.872526
       7A     -0.659071     8A     -0.654902     9A     -0.644860
      10A     -0.558225    11A     -0.528235    12A     -0.475499
      13A     -0.414940

  @DF-RHF Final Energy:  -154.12372845302320

   => Energetics <=

    Nuclear Repulsion Energy =             84.5870026506598691
    One-Electron Energy =                -376.9511480720245800
    Two-Electron Energy =                 138.2404169683415489
    DFT Exchange-Correlation Energy =       0.0000000000000000
    Empirical Dispersion Energy =           0.0000000000000000
    PCM Polarization Energy =               0.0000000000000000
    EFP Energy =                            0.0000000000000000
    Total Energy =                       -154.1237284530231477
    Molecular point group: c1
  Basis Set: CC-PVTZ
  Basis Set:

  -Total Gradient:
     Atom            X                  Y                   Z
    ------   -----------------  -----------------  -----------------
       1        0.000034273261    -0.000027903869    -0.000004229912
       2       -0.000398609176    -0.000857034142     0.000857256252
       3        0.000459182168     0.001394591769    -0.000932258011
       4       -0.000036394151     0.000005770718     0.000014920303
       5       -0.000036097015     0.000043799500    -0.000003477262
       6        0.000725633025    -0.001337670289    -0.001083664993
       7       -0.000734134191     0.000780248136     0.001165463771
       8       -0.000011073136    -0.000000850544    -0.000006639391
       9       -0.000002780785    -0.000000951278    -0.000007370756

  **** Optimization is complete! (in 4 steps) ****
    Final optimized geometry and variables:
    Molecular point group: c1

    Geometry (in Angstrom), charge = 0, multiplicity = 1:

    H            1.873637729295    -0.527468618303     0.665912976570
    C            1.021177660012    -0.631601609456     0.010083929860
    O            0.083191959538     0.323653384736     0.382568691817
    H            1.354331960758    -0.492038464481    -1.016056712492
    H            0.626144589844    -1.639815270494     0.110027013098
    C           -1.096880702530     0.336246360161    -0.360410084782
    H           -1.144384048924     1.226036072211    -0.979817753236
    H           -1.941862291848     0.350822087070     0.317339770094
    H           -1.186801549824    -0.537405537060    -0.997774546357

  Mulliken Charges: (a.u.)
   Center  Symbol    Alpha    Beta     Spin     Total
       1     H     0.44977  0.44977  0.00000  0.10046
       2     C     3.02083  3.02083  0.00000 -0.04167
       3     O     4.17253  4.17253  0.00000 -0.34507
       4     H     0.47329  0.47329  0.00000  0.05342
       5     H     0.47283  0.47283  0.00000  0.05433
       6     C     3.01666  3.01666  0.00000 -0.03332
       7     H     0.46237  0.46237  0.00000  0.07527
       8     H     0.45713  0.45713  0.00000  0.08573
       9     H     0.47458  0.47458  0.00000  0.05085

   Total alpha = 13.00000, Total beta = 13.00000, Total charge = -0.00000
