  ==> Input File <==

--------------------------------------------------------------------------
set {
	reference rhf
	basis cc-pvtz
}

set_num_threads( 4 )
memory 2 gb

molecule MOL {
0 1

H	 -0.232996	 -0.490787	 -2.043604
C	 -0.626191	 -1.074571	 -1.214461
O	 -1.401606	 -0.295183	 -0.366624
H	 -1.254673	 -1.859465	 -1.609226
H	 0.210390	 -1.528981	 -0.686703
C	 -0.718530	 0.758693	 0.228682
C	 0.718529	 0.758687	 -0.228709
H	 -1.176498	 1.708665	 -0.046615
H	 -0.748705	 0.673525	 1.312779
O	 1.401606	 -0.295166	 0.366636
H	 0.748705	 0.673477	 -1.312803
H	 1.176496	 1.708671	 0.046552
C	 2.714315	 -0.441627	 -0.061017
H	 2.765292	 -0.641548	 -1.128869
H	 3.305661	 0.447341	 0.150952
H	 3.143725	 -1.278506	 0.470147

	symmetry c1
}
set optking {
	frozen_dihedral = ("
		2 3 6 7
	")
}

ee = optimize('scf')
oeprop('DIPOLE', 'QUADRUPOLE', 'MULLIKEN_CHARGES')
f=open( 'psi4out.xyz', 'w' )
f.write( "16  " )
f.write( str(ee) + "\n" )
f.write( MOL.save_string_xyz() )
f.close()
--------------------------------------------------------------------------

    Molecular point group: c1
  Charge       = 0
  Multiplicity = 1
  Basis Set: CC-PVTZ
  Basis Set:
  @DF-RHF Final Energy:  -307.06861408284590
    Total Energy =                       -307.0686140828460111
    Molecular point group: c1
  Basis Set: CC-PVTZ
  Basis Set:
  Basis Set: CC-PVTZ
  Basis Set:
  @DF-RHF Final Energy:  -307.08147462554604
    Total Energy =                       -307.0814746255463206
  Basis Set: CC-PVTZ
  Basis Set:
  Basis Set: CC-PVTZ
  Basis Set:
  @DF-RHF Final Energy:  -307.08671106402636
    Total Energy =                       -307.0867110640263604
  Basis Set: CC-PVTZ
  Basis Set:
  Basis Set: CC-PVTZ
  Basis Set:
  @DF-RHF Final Energy:  -307.08779078228582
    Total Energy =                       -307.0877907822859925
  Basis Set: CC-PVTZ
  Basis Set:
  @DF-RHF Final Energy:  -307.08823672351849
    Total Energy =                       -307.0882367235185484
  Basis Set: CC-PVTZ
  Basis Set:
  @DF-RHF Final Energy:  -307.08849429085654
    Total Energy =                       -307.0884942908564312
  Basis Set: CC-PVTZ
  Basis Set:
  Basis Set: CC-PVTZ
  Basis Set:
  @DF-RHF Final Energy:  -307.08853733888196
    Total Energy =                       -307.0885373388819630
  Basis Set: CC-PVTZ
  Basis Set:
  Basis Set: CC-PVTZ
  Basis Set:
  @DF-RHF Final Energy:  -307.08854159798477
    Total Energy =                       -307.0885415979849995
  Basis Set: CC-PVTZ
  Basis Set:
  Charge       = 0
  Multiplicity = 1
  Basis Set: CC-PVTZ
  Basis Set:

    Orbital Energies (a.u.)
    -----------------------

    Doubly Occupied:

       1A    -20.557680     2A    -20.539409     3A    -11.275314
       4A    -11.269722     5A    -11.266944     6A    -11.254753
       7A     -1.394744     8A     -1.365882     9A     -1.031134
      10A     -0.951835    11A     -0.898872    12A     -0.811389
      13A     -0.695487    14A     -0.684053    15A     -0.658115
      16A     -0.637200    17A     -0.627630    18A     -0.591713
      19A     -0.559239    20A     -0.546788    21A     -0.517430
      22A     -0.494627    23A     -0.447589    24A     -0.427402
      25A     -0.405897

  @DF-RHF Final Energy:  -307.08854231989784

   => Energetics <=

    Nuclear Repulsion Energy =            264.3652837275400884
    One-Electron Energy =                -943.0859600157971272
    Two-Electron Energy =                 371.6321339683590281
    DFT Exchange-Correlation Energy =       0.0000000000000000
    Empirical Dispersion Energy =           0.0000000000000000
    PCM Polarization Energy =               0.0000000000000000
    EFP Energy =                            0.0000000000000000
    Total Energy =                       -307.0885423198979538
    Molecular point group: c1
  Basis Set: CC-PVTZ
  Basis Set:

  -Total Gradient:
     Atom            X                  Y                   Z
    ------   -----------------  -----------------  -----------------
       1       -0.000011398351     0.000014038536     0.000002918391
       2        0.000192176949    -0.000446514807     0.000441912710
       3       -0.000272509837     0.000754438429    -0.000906297931
       4       -0.000016082744     0.000002184563    -0.000005554256
       5       -0.000017813538     0.000022199738     0.000003344655
       6        0.000262816556    -0.000672939681     0.000871561370
       7       -0.000124313070     0.000313288425    -0.000341938652
       8        0.000010221870    -0.000026044464    -0.000003782275
       9        0.000004590121     0.000010689048     0.000007370234
      10        0.000013584877     0.000021971632    -0.000043686142
      11       -0.000006909356     0.000006498384    -0.000038889112
      12        0.000014905150    -0.000010277600    -0.000001886232
      13       -0.000063214218     0.000023614598     0.000024932099
      14        0.000012045145    -0.000003607709    -0.000000071189
      15        0.000008417171    -0.000007673813    -0.000004356283
      16       -0.000006516725    -0.000001865279    -0.000005577389

  **** Optimization is complete! (in 9 steps) ****
    Final optimized geometry and variables:
    Molecular point group: c1

    Geometry (in Angstrom), charge = 0, multiplicity = 1:

    H           -1.004038524883    -0.624810702871    -1.985889163862
    C           -1.325104642132    -1.092783687290    -1.059008442634
    O           -1.833112095983    -0.167719662696    -0.148987193778
    H           -2.136563442648    -1.767430530922    -1.291545212696
    H           -0.501363738905    -1.661739206970    -0.648560129433
    C           -1.019685103086     0.825030291187     0.411545686866
    C            0.438878190109     0.877526417706     0.007657906147
    H           -1.455596705493     1.786647911937     0.156241976599
    H           -1.062353426998     0.720341039332     1.489723522488
    O            1.143215292958    -0.184913870867     0.567819954007
    H            0.551938400841     0.883033295290    -1.074045771371
    H            0.835766289270     1.822904230126     0.375593773504
    C            2.502734262174    -0.187299027786     0.279263069790
    H            2.683598920243    -0.263925175362    -0.790685416647
    H            2.988128220956     0.714448913096     0.646043630167
    H            2.943381189846    -1.043245163862     0.768852152743

  Mulliken Charges: (a.u.)
   Center  Symbol    Alpha    Beta     Spin     Total
       1     H     0.47422  0.47422  0.00000  0.05155
       2     C     3.03828  3.03828  0.00000 -0.07656
       3     O     4.18384  4.18384  0.00000 -0.36769
       4     H     0.44288  0.44288  0.00000  0.11423
       5     H     0.46022  0.46022  0.00000  0.07956
       6     C     2.95184  2.95184  0.00000  0.09632
       7     C     3.00345  3.00345  0.00000 -0.00690
       8     H     0.46827  0.46827  0.00000  0.06346
       9     H     0.46319  0.46319  0.00000  0.07362
      10     O     4.17558  4.17558  0.00000 -0.35117
      11     H     0.46301  0.46301  0.00000  0.07399
      12     H     0.45651  0.45651  0.00000  0.08698
      13     C     3.03778  3.03778  0.00000 -0.07556
      14     H     0.46983  0.46983  0.00000  0.06034
      15     H     0.46679  0.46679  0.00000  0.06641
      16     H     0.44430  0.44430  0.00000  0.11140

   Total alpha = 25.00000, Total beta = 25.00000, Total charge = -0.00000
