  ==> Input File <==

--------------------------------------------------------------------------
set {
	reference rhf
	basis 6-31G*
}

set_num_threads( 4 )
memory 2 gb

molecule MOL {
0 1

H	 -0.952388	 2.304287	 0.777482
C	 -0.811296	 1.294193	 0.447015
C	 -1.913918	 0.478500	 0.027021
C	 0.411683	 0.749587	 0.413218
H	 -2.908760	 0.887263	 0.042724
C	 -1.712634	 -0.782218	 -0.382292
H	 1.288510	 1.292735	 0.710826
N	 0.640212	 -0.532897	 -0.000111
H	 -2.512162	 -1.421071	 -0.703191
C	 -0.381721	 -1.374590	 -0.419018
C	 2.010177	 -1.032049	 0.000042
O	 -0.158983	 -2.503351	 -0.780254
H	 2.187698	 -1.635381	 -0.882279
H	 2.677579	 -0.189247	 -0.001871
H	 2.188882	 -1.632203	 0.884288

	symmetry c1
}
set optking {
	frozen_dihedral = ("
		10 8 11 13
	")
}

ee = optimize('scf')
oeprop('DIPOLE', 'QUADRUPOLE', 'MULLIKEN_CHARGES')
f=open( 'psi4out.xyz', 'w' )
f.write( "15  " )
f.write( str(ee) + "\n" )
f.write( MOL.save_string_xyz() )
f.close()
--------------------------------------------------------------------------

    Molecular point group: c1
  Charge       = 0
  Multiplicity = 1
  Basis Set: 6-31G*
  Basis Set:
  @DF-RHF Final Energy:  -360.59593496354461
    Total Energy =                       -360.5959349635444369
    Molecular point group: c1
  Basis Set: 6-31G*
  Basis Set:
  Basis Set: 6-31G*
  Basis Set:
  @DF-RHF Final Energy:  -360.59640426584264
    Total Energy =                       -360.5964042658428639
  Basis Set: 6-31G*
  Basis Set:
  Basis Set: 6-31G*
  Basis Set:
  @DF-RHF Final Energy:  -360.59645974313491
    Total Energy =                       -360.5964597431351422
  Basis Set: 6-31G*
  Basis Set:
  Basis Set: 6-31G*
  Basis Set:
  @DF-RHF Final Energy:  -360.59643616216266
    Total Energy =                       -360.5964361621626608
  Basis Set: 6-31G*
  Basis Set:
  Charge       = 0
  Multiplicity = 1
  Basis Set: 6-31G*
  Basis Set:

    Orbital Energies (a.u.)
    -----------------------

    Doubly Occupied:

       1A    -20.508848     2A    -15.622260     3A    -11.341926
       4A    -11.297776     5A    -11.266250     6A    -11.260378
       7A    -11.232987     8A    -11.228867     9A     -1.384991
      10A     -1.281050    11A     -1.114872    12A     -1.026212
      13A     -0.970255    14A     -0.872753    15A     -0.835687
      16A     -0.715909    17A     -0.697697    18A     -0.661267
      19A     -0.648308    20A     -0.622656    21A     -0.606541
      22A     -0.573693    23A     -0.549164    24A     -0.547250
      25A     -0.527547    26A     -0.477564    27A     -0.414098
      28A     -0.405585    29A     -0.304601

  @DF-RHF Final Energy:  -360.59646673310056

   => Energetics <=

    Nuclear Repulsion Energy =            357.9006351097567631
    One-Electron Energy =               -1199.0002195485276388
    Two-Electron Energy =                 480.5031177056706611
    DFT Exchange-Correlation Energy =       0.0000000000000000
    Empirical Dispersion Energy =           0.0000000000000000
    PCM Polarization Energy =               0.0000000000000000
    EFP Energy =                            0.0000000000000000
    Total Energy =                       -360.5964667331002147
    Molecular point group: c1
  Basis Set: 6-31G*
  Basis Set:

  -Total Gradient:
     Atom            X                  Y                   Z
    ------   -----------------  -----------------  -----------------
       1       -0.000004269830     0.000002814702     0.000000072211
       2        0.000181307942    -0.000050713750     0.000024932521
       3       -0.000109566629    -0.000124874225    -0.000060170853
       4       -0.000127642306     0.000248832063     0.000044260636
       5        0.000006867068     0.000002757033     0.000005121692
       6       -0.000118285110     0.000121686181     0.000025460447
       7        0.000007612544    -0.000029416848    -0.000001015963
       8       -0.000227736277    -0.000674430055     0.000981623161
       9        0.000005939760    -0.000019750993    -0.000003818916
      10        0.000375416340     0.000324014718    -0.000620216010
      11        0.000328835895     0.000855723481    -0.000830833298
      12       -0.000082034049    -0.000048620521    -0.000004890678
      13       -0.000258137207    -0.000665244014     0.000461245739
      14        0.000023729276     0.000050273728    -0.000003443073
      15       -0.000002037420     0.000006948504    -0.000018327615

  **** Optimization is complete! (in 5 steps) ****
    Final optimized geometry and variables:
    Molecular point group: c1

    Geometry (in Angstrom), charge = 0, multiplicity = 1:

    H           -0.791619912962     2.812377022722     0.878846956601
    C           -0.640497199004     1.804665255931     0.545762329720
    C           -1.734490263454     0.982452947564     0.118362963002
    C            0.589576728838     1.273734169980     0.511590219483
    H           -2.732000573623     1.384693544484     0.131174092613
    C           -1.523090905946    -0.276109641949    -0.294722195335
    H            1.458591258494     1.826326273197     0.812016219614
    N            0.827712945250    -0.003161002258     0.090231323388
    H           -2.316360111990    -0.920745928328    -0.619978191187
    C           -0.187752829657    -0.855481593745    -0.317804197380
    C            2.183990270559    -0.537029454036     0.085308859675
    O            0.059177776547    -1.986312161611    -0.656845662081
    H            2.322651346278    -1.148028996192    -0.791203215597
    H            2.888420574448     0.282744064308     0.079078794038
    H            2.355494579609    -1.153123301683     0.959422710337

  Mulliken Charges: (a.u.)
   Center  Symbol    Alpha    Beta     Spin     Total
       1     H     0.39305  0.39305  0.00000  0.21390
       2     C     3.16225  3.16225  0.00000 -0.32451
       3     C     3.05824  3.05824  0.00000 -0.11649
       4     C     2.92149  2.92149  0.00000  0.15702
       5     H     0.39089  0.39089  0.00000  0.21821
       6     C     3.16967  3.16967  0.00000 -0.33934
       7     H     0.38763  0.38763  0.00000  0.22474
       8     N     3.86382  3.86382  0.00000 -0.72763
       9     H     0.38645  0.38645  0.00000  0.22710
      10     C     2.59631  2.59631  0.00000  0.80737
      11     C     3.14252  3.14252  0.00000 -0.28503
      12     O     4.32171  4.32171  0.00000 -0.64342
      13     H     0.38720  0.38720  0.00000  0.22560
      14     H     0.41514  0.41514  0.00000  0.16973
      15     H     0.40363  0.40363  0.00000  0.19274

   Total alpha = 29.00000, Total beta = 29.00000, Total charge =  0.00000
