  ==> Input File <==

--------------------------------------------------------------------------
set {
	reference rhf
	basis 6-31G*
}

set_num_threads( 4 )
memory 2 gb

molecule MOL {
0 1

H	 -2.365627	 -1.312883	 -0.379134
C	 -1.358347	 -1.274295	 0.019669
C	 -0.681945	 0.000119	 -0.470601
H	 -0.826096	 -2.155117	 -0.321105
H	 -1.409554	 -1.292283	 1.100109
C	 -1.357790	 1.274691	 0.020220
N	 0.739525	 -0.000142	 0.006128
H	 -0.594190	 0.000341	 -1.545128
H	 -2.364980	 1.313977	 -0.378631
H	 -0.825080	 2.155361	 -0.320114
H	 -1.409060	 1.292170	 1.100671
O	 1.093070	 0.915360	 0.682474
O	 1.427587	 -0.918804	 -0.322553

	symmetry c1
}
set optking {
	frozen_dihedral = ("
		12 7 3 8
	")
}

ee = optimize('scf')
oeprop('DIPOLE', 'QUADRUPOLE', 'MULLIKEN_CHARGES')
f=open( 'psi4out.xyz', 'w' )
f.write( "13  " )
f.write( str(ee) + "\n" )
f.write( MOL.save_string_xyz() )
f.close()
--------------------------------------------------------------------------

    Molecular point group: c1
  Charge       = 0
  Multiplicity = 1
  Basis Set: 6-31G*
  Basis Set:
  @DF-RHF Final Energy:  -321.73700803009433
    Total Energy =                       -321.7370080300944437
    Molecular point group: c1
  Basis Set: 6-31G*
  Basis Set:
  Basis Set: 6-31G*
  Basis Set:
  @DF-RHF Final Energy:  -321.73656161281576
    Total Energy =                       -321.7365616128158194
  Basis Set: 6-31G*
  Basis Set:
  Basis Set: 6-31G*
  Basis Set:
  @DF-RHF Final Energy:  -321.73357573395413
    Total Energy =                       -321.7335757339540123
  Basis Set: 6-31G*
  Basis Set:
  Basis Set: 6-31G*
  Basis Set:
  @DF-RHF Final Energy:  -321.73763757575824
    Total Energy =                       -321.7376375757582991
  Basis Set: 6-31G*
  Basis Set:
  @DF-RHF Final Energy:  -321.73772585131422
    Total Energy =                       -321.7377258513143374
  @DF-RHF Final Energy:  -321.73790604605762
    Total Energy =                       -321.7379060460576738
  Basis Set: 6-31G*
  Basis Set:
  @DF-RHF Final Energy:  -321.73787369483301
    Total Energy =                       -321.7378736948328424
  Basis Set: 6-31G*
  Basis Set:
  Basis Set: 6-31G*
  Basis Set:
  @DF-RHF Final Energy:  -321.73791274795826
    Total Energy =                       -321.7379127479581484
  Basis Set: 6-31G*
  Basis Set:
  Basis Set: 6-31G*
  Basis Set:
  @DF-RHF Final Energy:  -321.73791387235627
    Total Energy =                       -321.7379138723561027
  Basis Set: 6-31G*
  Basis Set:
  Charge       = 0
  Multiplicity = 1
  Basis Set: 6-31G*
  Basis Set:

    Orbital Energies (a.u.)
    -----------------------

    Doubly Occupied:

       1A    -20.602759     2A    -20.596351     3A    -15.844191
       4A    -11.307848     5A    -11.245340     6A    -11.240280
       7A     -1.629321     8A     -1.414408     9A     -1.142051
      10A     -0.969912    11A     -0.958723    12A     -0.813041
      13A     -0.759807    14A     -0.725346    15A     -0.720784
      16A     -0.642691    17A     -0.593523    18A     -0.587347
      19A     -0.571277    20A     -0.525556    21A     -0.521796
      22A     -0.481142    23A     -0.471569    24A     -0.446852

  @DF-RHF Final Energy:  -321.73791395398291

   => Energetics <=

    Nuclear Repulsion Energy =            256.7405853498303259
    One-Electron Energy =                -947.3331660944528494
    Two-Electron Energy =                 368.8546667906395555
    DFT Exchange-Correlation Energy =       0.0000000000000000
    Empirical Dispersion Energy =           0.0000000000000000
    PCM Polarization Energy =               0.0000000000000000
    EFP Energy =                            0.0000000000000000
    Total Energy =                       -321.7379139539829680
    Molecular point group: c1
  Basis Set: 6-31G*
  Basis Set:

  -Total Gradient:
     Atom            X                  Y                   Z
    ------   -----------------  -----------------  -----------------
       1       -0.000002919539     0.000000347344     0.000002602195
       2       -0.000008942793    -0.000003609741     0.000004924569
       3        0.000101521462    -0.001098167184    -0.000367971225
       4       -0.000002306854     0.000005343284    -0.000003591754
       5        0.000000958226     0.000001107924     0.000003641024
       6        0.000008028128     0.000001019545    -0.000002773097
       7       -0.000452309139    -0.000603641157     0.001292756171
       8        0.000033164663     0.001135834990    -0.000003234649
       9       -0.000002079760    -0.000005936470     0.000004057677
      10       -0.000004861661    -0.000006149041    -0.000002400587
      11        0.000003181955     0.000001821468     0.000004533275
      12        0.000320578567     0.000573395921    -0.000931858173
      13        0.000005986742    -0.000001366883    -0.000000685425

  **** Optimization is complete! (in 10 steps) ****
    Final optimized geometry and variables:
    Molecular point group: c1

    Geometry (in Angstrom), charge = 0, multiplicity = 1:

    H           -2.379185299241    -1.278530410574    -0.360980611846
    C           -1.363814512183    -1.260848101249     0.017300971079
    C           -0.684304224027     0.022837392762    -0.450287630218
    H           -0.841740231124    -2.134191607223    -0.345335782584
    H           -1.405317947117    -1.299028675767     1.100625005518
    C           -1.388210054573     1.287359740851     0.011800055860
    N            0.746992133114    -0.003196905335     0.017274657759
    H           -0.585260058189     0.018799174492    -1.527656712098
    H           -2.390664080848     1.288728752875    -0.402109201970
    H           -0.875095422655     2.176285336492    -0.328028925232
    H           -1.460405365074     1.326359856547     1.090982266650
    O            1.147651311556     0.894460948041     0.689636979365
    O            1.402608650240    -0.934887201463    -0.340095272444

  Mulliken Charges: (a.u.)
   Center  Symbol    Alpha    Beta     Spin     Total
       1     H     0.40807  0.40807  0.00000  0.18386
       2     C     3.24936  3.24936  0.00000 -0.49872
       3     C     3.02613  3.02613  0.00000 -0.05225
       4     H     0.39106  0.39106  0.00000  0.21788
       5     H     0.40686  0.40686  0.00000  0.18627
       6     C     3.24153  3.24153  0.00000 -0.48306
       7     N     3.21742  3.21742  0.00000  0.56516
       8     H     0.38611  0.38611  0.00000  0.22778
       9     H     0.41254  0.41254  0.00000  0.17492
      10     H     0.39970  0.39970  0.00000  0.20060
      11     H     0.40342  0.40342  0.00000  0.19316
      12     O     4.22745  4.22745  0.00000 -0.45490
      13     O     4.23035  4.23035  0.00000 -0.46070

   Total alpha = 24.00000, Total beta = 24.00000, Total charge =  0.00000
