                              Psi4 1.0.54 Driver

  ==> Input File <==

--------------------------------------------------------------------------
set {
	reference rhf
	basis cc-pvtz
}

set_num_threads( 4 )
memory 2 gb

molecule MOL {
0 1

O	 3.219313	 0.959291	 -0.614106
C	 2.698710	 0.058177	 -0.050237
C	 1.246364	 -0.005813	 0.348416
O	 3.344101	 -1.038700	 0.312317
C	 0.453207	 1.232821	 -0.049003
H	 0.839270	 -0.907818	 -0.092281
H	 1.216683	 -0.160521	 1.422434
C	 -0.998367	 1.217982	 0.432195
H	 0.481498	 1.345443	 -1.127236
H	 0.951413	 2.105557	 0.354893
C	 -1.882951	 0.151251	 -0.211235
H	 -1.429490	 2.193659	 0.228843
H	 -1.019755	 1.099323	 1.513279
C	 -2.439408	 -0.850198	 0.797350
H	 -2.708289	 0.636598	 -0.727110
H	 -1.324985	 -0.389718	 -0.969893
C	 -3.319871	 -1.924244	 0.164908
H	 -3.011903	 -0.317865	 1.553136
H	 -1.614835	 -1.327338	 1.322023
C	 -3.873413	 -2.919753	 1.178973
H	 -4.144371	 -1.449003	 -0.359559
H	 -2.748291	 -2.459107	 -0.588800
H	 -4.492998	 -3.667737	 0.697705
H	 -4.479707	 -2.419950	 1.927113
H	 -3.072570	 -3.437246	 1.696718
C	 4.720529	 -1.114346	 0.001449
H	 4.874321	 -1.055557	 -1.065852
H	 5.057824	 -2.067950	 0.373977
H	 5.264321	 -0.313596	 0.480350

	symmetry c1
}
set optking {
	frozen_dihedral = ("
		15 11 8 5
	")
}

ee,wfn = optimize('scf', return_wfn=True)
oeprop( wfn, 'DIPOLE', 'QUADRUPOLE', 'MULLIKEN_CHARGES')
f=open( 'psi4out.xyz', 'w' )
f.write( "29  " )
f.write( str(ee) + "\n" )
f.write( MOL.save_string_xyz() )
f.close()
--------------------------------------------------------------------------

    Molecular point group: c1
  Charge       = 0
  Multiplicity = 1
  Basis Set: CC-PVTZ
  Basis Set:
  @DF-RHF Final Energy:  -501.21943497221127
    Total Energy =                       -501.2194349722113884
    Molecular point group: c1
  Basis Set: CC-PVTZ
  Basis Set:
  Basis Set: CC-PVTZ
  Basis Set:
  @DF-RHF Final Energy:  -501.21965970412771
    Total Energy =                       -501.2196597041275936
  Basis Set: CC-PVTZ
  Basis Set:
  Basis Set: CC-PVTZ
  Basis Set:
  @DF-RHF Final Energy:  -501.21981279301713
    Total Energy =                       -501.2198127930171268
  Basis Set: CC-PVTZ
  Basis Set:
  Basis Set: CC-PVTZ
  Basis Set:
  @DF-RHF Final Energy:  -501.21965275791115
    Total Energy =                       -501.2196527579108078
  Basis Set: CC-PVTZ
  Basis Set:
  Basis Set: CC-PVTZ
  Basis Set:
  @DF-RHF Final Energy:  -501.21981121770352
    Total Energy =                       -501.2198112177038638
  Basis Set: CC-PVTZ
  Basis Set:
  Basis Set: CC-PVTZ
  Basis Set:
  @DF-RHF Final Energy:  -501.21982115787648
    Total Energy =                       -501.2198211578752307
  Basis Set: CC-PVTZ
  Basis Set:
  Basis Set: CC-PVTZ
  Basis Set:
  @DF-RHF Final Energy:  -501.21982272858702
    Total Energy =                       -501.2198227285866778
  Basis Set: CC-PVTZ
  Basis Set:
  Charge       = 0
  Multiplicity = 1
  Basis Set: CC-PVTZ
  Basis Set:

    Orbital Energies (a.u.)
    -----------------------

    Doubly Occupied:

       1A    -20.596221     2A    -20.534046     3A    -11.364455
       4A    -11.278422     5A    -11.233257     6A    -11.217284
       7A    -11.215263     8A    -11.214457     9A    -11.213929
      10A    -11.213356    11A    -11.207798    12A     -1.472103
      13A     -1.365699    14A     -1.098728    15A     -1.067836
      16A     -1.019492    17A     -0.977832    18A     -0.930629
      19A     -0.862104    20A     -0.802129    21A     -0.790108
      22A     -0.766326    23A     -0.703847    24A     -0.685810
      25A     -0.675880    26A     -0.648823    27A     -0.629654
      28A     -0.606783    29A     -0.597371    30A     -0.576783
      31A     -0.565644    32A     -0.560997    33A     -0.536498
      34A     -0.528141    35A     -0.514016    36A     -0.508012
      37A     -0.503090    38A     -0.476758    39A     -0.474125
      40A     -0.463565    41A     -0.459762    42A     -0.456917
      43A     -0.440010    44A     -0.438411

  @DF-RHF Final Energy:  -501.21982291459653

   => Energetics <=

    Nuclear Repulsion Energy =            621.6747762232655532
    One-Electron Energy =               -1914.8044584369679342
    Two-Electron Energy =                 791.9098592991063015
    DFT Exchange-Correlation Energy =       0.0000000000000000
    Empirical Dispersion Energy =           0.0000000000000000
    PCM Polarization Energy =               0.0000000000000000
    EFP Energy =                            0.0000000000000000
    Total Energy =                       -501.2198229145960795
    Molecular point group: c1
  Basis Set: CC-PVTZ
  Basis Set:

  -Total Gradient:
     Atom            X                  Y                   Z
    ------   -----------------  -----------------  -----------------
       1       -0.000013336778    -0.000012171880     0.000010970908
       2        0.000009069195     0.000004888203     0.000009220111
       3       -0.000008866227    -0.000002890677    -0.000015870210
       4       -0.000002475418     0.000003441525    -0.000009976445
       5       -0.000033155478     0.000101676576    -0.000099114341
       6        0.000004704486     0.000006260157     0.000005590717
       7        0.000007011005     0.000005632139    -0.000003716292
       8        0.000085231150    -0.000134584621     0.000111355375
       9        0.000002227529     0.000000250606    -0.000005078558
      10       -0.000000585121    -0.000007308811    -0.000000637853
      11       -0.000151490452     0.000027365787     0.000159332231
      12        0.000001552832    -0.000000742257     0.000000446613
      13        0.000001121648     0.000000656803    -0.000001153415
      14       -0.000016184136     0.000004243099     0.000004322164
      15        0.000110922090     0.000006961900    -0.000162671631
      16       -0.000001348457     0.000000353539    -0.000003992064
      17        0.000004224301    -0.000003832630    -0.000000898105
      18       -0.000005115781    -0.000000271866    -0.000001826596
      19       -0.000000317485     0.000001525230     0.000003189230
      20        0.000005852598    -0.000001099730     0.000000042654
      21        0.000001102234     0.000001914831     0.000003435033
      22       -0.000001084356    -0.000001768221    -0.000003142311
      23        0.000001662406     0.000001057723    -0.000001270987
      24        0.000000122116     0.000001206525    -0.000001230048
      25        0.000000050786    -0.000001206898     0.000001421069
      26        0.000011207556    -0.000002063459    -0.000003974064
      27       -0.000003770704     0.000001887261     0.000008632640
      28       -0.000000951262     0.000002643849    -0.000000799208
      29       -0.000007380280    -0.000004024701    -0.000002606616

  **** Optimization is complete! (in 8 steps) ****
    Final optimized geometry and variables:
    Molecular point group: c1

    Geometry (in Angstrom), charge = 0, multiplicity = 1:

    O            2.860921659987     1.296278490679    -0.933804968032
    C            2.355860964478     0.448592888317    -0.280163347572
    C            0.925242786616     0.443108986180     0.194584154987
    O            3.001387018899    -0.631857845139     0.128427080869
    C            0.133268280941     1.668331570684    -0.243227099988
    H            0.477386013446    -0.477203469068    -0.162592131277
    H            0.947827267584     0.360404349621     1.276436363995
    C           -1.317831630670     1.656617588809     0.241058722882
    H            0.158647810404     1.745609878465    -1.324295763021
    H            0.630020346303     2.554981520964     0.132208141132
    C           -2.206346893432     0.565065233625    -0.393923288827
    H           -1.743922393088     2.631531587324     0.034619427476
    H           -1.329171682316     1.553169289628     1.322660801305
    C           -2.767533284279    -0.442598470640     0.607496403493
    H           -3.034130216281     1.032542373605    -0.916942764546
    H           -1.646740791727     0.030731234795    -1.156233096215
    C           -3.640510073252    -1.516092608527    -0.035104005343
    H           -3.347081611709     0.087825645002     1.359369885457
    H           -1.947723415997    -0.918953554312     1.140526320408
    C           -4.201957059930    -2.515067143009     0.971294243878
    H           -4.460620439896    -1.040351427206    -0.565939611080
    H           -3.061696837804    -2.048087209253    -0.785433022394
    H           -4.816302259139    -3.262381993643     0.482396050546
    H           -4.815583363532    -2.018011599026     1.715291048910
    H           -3.405311447462    -3.033256824686     1.494817329866
    C            4.358641031674    -0.756741676995    -0.244855617283
    H            4.458130379361    -0.777825602182    -1.319972399796
    H            4.699466228707    -1.687527574231     0.178672721449
    H            4.939025842822     0.065555388285     0.146556108998

  Mulliken Charges: (a.u.)
   Center  Symbol    Alpha    Beta     Spin     Total
       1     O     4.19672  4.19672  0.00000 -0.39345
       2     C     2.80434  2.80434  0.00000  0.39131
       3     C     3.10325  3.10325  0.00000 -0.20649
       4     O     4.14740  4.14740  0.00000 -0.29479
       5     C     3.08856  3.08856  0.00000 -0.17712
       6     H     0.43954  0.43954  0.00000  0.12092
       7     H     0.43902  0.43902  0.00000  0.12196
       8     C     3.10950  3.10950  0.00000 -0.21901
       9     H     0.44553  0.44553  0.00000  0.10894
      10     H     0.44148  0.44148  0.00000  0.11705
      11     C     3.10847  3.10847  0.00000 -0.21694
      12     H     0.44015  0.44015  0.00000  0.11971
      13     H     0.45406  0.45406  0.00000  0.09188
      14     C     3.08650  3.08650  0.00000 -0.17299
      15     H     0.44301  0.44301  0.00000  0.11398
      16     H     0.45197  0.45197  0.00000  0.09606
      17     C     3.08472  3.08472  0.00000 -0.16944
      18     H     0.45236  0.45236  0.00000  0.09527
      19     H     0.45439  0.45439  0.00000  0.09123
      20     C     3.15004  3.15004  0.00000 -0.30008
      21     H     0.45387  0.45387  0.00000  0.09226
      22     H     0.45471  0.45471  0.00000  0.09058
      23     H     0.44816  0.44816  0.00000  0.10368
      24     H     0.45502  0.45502  0.00000  0.08996
      25     H     0.45518  0.45518  0.00000  0.08964
      26     C     3.03827  3.03827  0.00000 -0.07654
      27     H     0.45435  0.45435  0.00000  0.09131
      28     H     0.44524  0.44524  0.00000  0.10952
      29     H     0.45421  0.45421  0.00000  0.09159

   Total alpha = 44.00000, Total beta = 44.00000, Total charge = -0.00000

*** Psi4 exiting successfully. Buy a developer a beer!
