  ==> Input File <==

--------------------------------------------------------------------------
set {
	reference rhf
	basis 6-31G*
}

set_num_threads( 1 )
memory 2 gb

molecule MOL {
0 1

O	 -2.042549	 -1.228399	 -0.269030
C	 -1.653912	 -0.146171	 0.050137
C	 -0.332303	 0.024011	 0.778412
C	 -2.438579	 1.106236	 -0.272369
C	 0.789465	 -0.750578	 0.068821
H	 -0.068450	 1.075605	 0.848514
H	 -0.458948	 -0.361130	 1.784170
C	 2.133867	 -0.630817	 0.788036
H	 0.896210	 -0.390169	 -0.952841
H	 0.500001	 -1.795011	 0.001652
C	 3.249243	 -1.407465	 0.089495
H	 2.413292	 0.418069	 0.860040
H	 2.026781	 -0.990432	 1.808712
H	 3.403555	 -1.047395	 -0.923713
H	 3.012534	 -2.465797	 0.031655
H	 4.189251	 -1.307024	 0.622714
H	 -3.277823	 0.863061	 -0.908988
H	 -1.806773	 1.843019	 -0.759671
H	 -2.802853	 1.554979	 0.648059

	symmetry c1
}
set optking {
	frozen_dihedral = ("
		11 8 5 9,
		9 5 3 2
	")
}

ee = energy('scf')
oeprop('DIPOLE', 'QUADRUPOLE', 'MULLIKEN_CHARGES')
f=open( 'psi4out.xyz', 'w' )
f.write( "19  " )
f.write( str(ee) + "\n" )
f.write( MOL.save_string_xyz() )
f.close()
--------------------------------------------------------------------------

    Molecular point group: c1

    Geometry (in Angstrom), charge = 0, multiplicity = 1:

       Center              X                  Y                   Z               Mass
    ------------   -----------------  -----------------  -----------------  -----------------
           O         -2.006506630294    -0.789507475349    -0.436996041843    15.994914619560
           C         -1.617869630294     0.292720524651    -0.117829041843    12.000000000000
           C         -0.296260630294     0.462902524651     0.610445958157    12.000000000000
           C         -2.402536630294     1.545127524651    -0.440335041843    12.000000000000
           C          0.825507369706    -0.311686475349    -0.099145041843    12.000000000000
           H         -0.032407630294     1.514496524651     0.680547958157     1.007825032070
           H         -0.422905630294     0.077761524651     1.616203958157     1.007825032070
           C          2.169909369706    -0.191925475349     0.620069958157    12.000000000000
           H          0.932252369706     0.048722524651    -1.120807041843     1.007825032070
           H          0.536043369706    -1.356119475349    -0.166314041843     1.007825032070
           C          3.285285369706    -0.968573475349    -0.078471041843    12.000000000000
           H          2.449334369706     0.856960524651     0.692073958157     1.007825032070
           H          2.062823369706    -0.551540475349     1.640745958157     1.007825032070
           H          3.439597369706    -0.608503475349    -1.091679041843     1.007825032070
           H          3.048576369706    -2.026905475349    -0.136311041843     1.007825032070
           H          4.225293369706    -0.868132475349     0.454747958157     1.007825032070
           H         -3.241780630294     1.301952524651    -1.076954041843     1.007825032070
           H         -1.770730630294     2.281910524651    -0.927637041843     1.007825032070
           H         -2.766810630294     1.993870524651     0.480092958157     1.007825032070

  Charge       = 0
  Multiplicity = 1
  Basis Set: 6-31G*
  Basis Set:

    Orbital Energies (a.u.)
    -----------------------

    Doubly Occupied:

       1A    -20.548252     2A    -11.325743     3A    -11.230312
       4A    -11.228656     5A    -11.223152     6A    -11.220892
       7A    -11.211768     8A     -1.394476     9A     -1.086917
      10A     -1.028757    11A     -0.984072    12A     -0.887053
      13A     -0.802344    14A     -0.732207    15A     -0.661105
      16A     -0.647062    17A     -0.622579    18A     -0.611780
      19A     -0.581685    20A     -0.572701    21A     -0.552544
      22A     -0.534122    23A     -0.513999    24A     -0.492381
      25A     -0.476881    26A     -0.472376    27A     -0.466441
      28A     -0.397971

  @DF-RHF Final Energy:  -309.06499865945801

   => Energetics <=

    Nuclear Repulsion Energy =            301.2405410055196739
    One-Electron Energy =               -1015.5946907604666194
    Two-Electron Energy =                 405.2891510954884779
    DFT Exchange-Correlation Energy =       0.0000000000000000
    Empirical Dispersion Energy =           0.0000000000000000
    PCM Polarization Energy =               0.0000000000000000
    EFP Energy =                            0.0000000000000000
    Total Energy =                       -309.0649986594585243

  Mulliken Charges: (a.u.)
   Center  Symbol    Alpha    Beta     Spin     Total
       1     O     4.26363  4.26363  0.00000 -0.52726
       2     C     2.73498  2.73498  0.00000  0.53004
       3     C     3.20515  3.20515  0.00000 -0.41031
       4     C     3.28881  3.28881  0.00000 -0.57761
       5     C     3.15570  3.15570  0.00000 -0.31141
       6     H     0.41580  0.41580  0.00000  0.16840
       7     H     0.40215  0.40215  0.00000  0.19570
       8     C     3.15241  3.15241  0.00000 -0.30482
       9     H     0.42069  0.42069  0.00000  0.15862
      10     H     0.40306  0.40306  0.00000  0.19389
      11     C     3.23982  3.23982  0.00000 -0.47964
      12     H     0.42394  0.42394  0.00000  0.15212
      13     H     0.42169  0.42169  0.00000  0.15661
      14     H     0.42105  0.42105  0.00000  0.15789
      15     H     0.41895  0.41895  0.00000  0.16209
      16     H     0.41854  0.41854  0.00000  0.16292
      17     H     0.39724  0.39724  0.00000  0.20552
      18     H     0.40963  0.40963  0.00000  0.18075
      19     H     0.40676  0.40676  0.00000  0.18648

   Total alpha = 28.00000, Total beta = 28.00000, Total charge =  0.00000
