  ==> Input File <==

--------------------------------------------------------------------------
set {
	reference rhf
	basis 6-31G*
}

set_num_threads( 4 )
memory 2 gb

molecule MOL {
0 1

H	 -3.420663	 1.227371	 -1.044276
O	 -3.452007	 0.283848	 -0.965577
C	 -3.181085	 -0.079926	 0.364119
C	 -1.765924	 0.277073	 0.805136
H	 -3.327791	 -1.152017	 0.410903
H	 -3.905698	 0.375695	 1.036898
C	 -0.677594	 -0.417312	 -0.014550
H	 -1.637766	 1.358238	 0.744969
H	 -1.659588	 0.017670	 1.857098
C	 0.738335	 -0.034840	 0.421385
H	 -0.814977	 -0.178223	 -1.064632
H	 -0.802730	 -1.495410	 0.071702
C	 1.822265	 -0.738362	 -0.399735
H	 0.853533	 1.043532	 0.342250
H	 0.871597	 -0.279636	 1.474438
C	 1.369715	 -1.215628	 -1.784499
H	 2.206340	 -1.587120	 0.163995
H	 2.660043	 -0.055911	 -0.527038
C	 0.314655	 -2.323213	 -1.761950
H	 2.241002	 -1.575966	 -2.326076
H	 0.990723	 -0.367374	 -2.351096
H	 0.661365	 -3.180498	 -1.190992
H	 0.093425	 -2.665411	 -2.768328
H	 -0.618021	 -1.987302	 -1.320994

	symmetry c1
}
set optking {
	frozen_dihedral = ("
		17 13 10 7
	")
}

ee = optimize('scf')
oeprop('DIPOLE', 'QUADRUPOLE', 'MULLIKEN_CHARGES')
f=open( 'psi4out.xyz', 'w' )
f.write( "24  " )
f.write( str(ee) + "\n" )
f.write( MOL.save_string_xyz() )
f.close()
--------------------------------------------------------------------------

    Molecular point group: c1
  Charge       = 0
  Multiplicity = 1
  Basis Set: 6-31G*
  Basis Set:
  @DF-RHF Final Energy:  -349.21231865033593
    Total Energy =                       -349.2123186503362149
    Molecular point group: c1
  Basis Set: 6-31G*
  Basis Set:
  Basis Set: 6-31G*
  Basis Set:
  @DF-RHF Final Energy:  -349.23082818954407
    Total Energy =                       -349.2308281895437858
  Basis Set: 6-31G*
  Basis Set:
  Basis Set: 6-31G*
  Basis Set:
  @DF-RHF Final Energy:  -349.23575142421834
    Total Energy =                       -349.2357514242182788
  Basis Set: 6-31G*
  Basis Set:
  Basis Set: 6-31G*
  Basis Set:
  @DF-RHF Final Energy:  -349.23708746212259
    Total Energy =                       -349.2370874621225312
  Basis Set: 6-31G*
  Basis Set:
  @DF-RHF Final Energy:  -349.23724574237434
    Total Energy =                       -349.2372457423741707
  @DF-RHF Final Energy:  -349.23771385645745
    Total Energy =                       -349.2377138564570487
  Basis Set: 6-31G*
  Basis Set:
  @DF-RHF Final Energy:  -349.23774632309636
    Total Energy =                       -349.2377463230964167
  Basis Set: 6-31G*
  Basis Set:
  Basis Set: 6-31G*
  Basis Set:
  @DF-RHF Final Energy:  -349.23774977212554
    Total Energy =                       -349.2377497721257669
  Basis Set: 6-31G*
  Basis Set:
  Basis Set: 6-31G*
  Basis Set:
  @DF-RHF Final Energy:  -349.23775267185476
    Total Energy =                       -349.2377526718548211
  Basis Set: 6-31G*
  Basis Set:
  Charge       = 0
  Multiplicity = 1
  Basis Set: 6-31G*
  Basis Set:

    Orbital Energies (a.u.)
    -----------------------

    Doubly Occupied:

       1A    -20.553959     2A    -11.267919     3A    -11.217501
       4A    -11.213742     5A    -11.213327     6A    -11.212170
       7A    -11.210834     8A    -11.203468     9A     -1.360490
      10A     -1.085462    11A     -1.044751    12A     -0.983437
      13A     -0.919498    14A     -0.849316    15A     -0.808245
      16A     -0.764976    17A     -0.680325    18A     -0.652394
      19A     -0.619425    20A     -0.612368    21A     -0.606561
      22A     -0.584147    23A     -0.555279    24A     -0.539117
      25A     -0.518723    26A     -0.506990    27A     -0.496712
      28A     -0.480253    29A     -0.470270    30A     -0.455803
      31A     -0.446357    32A     -0.441868    33A     -0.419925

  @DF-RHF Final Energy:  -349.23775333105334

   => Energetics <=

    Nuclear Repulsion Energy =            394.0112408591955955
    One-Electron Energy =               -1254.5067685442040784
    Two-Electron Energy =                 511.2577743539548010
    DFT Exchange-Correlation Energy =       0.0000000000000000
    Empirical Dispersion Energy =           0.0000000000000000
    PCM Polarization Energy =               0.0000000000000000
    EFP Energy =                            0.0000000000000000
    Total Energy =                       -349.2377533310536819
    Molecular point group: c1
  Basis Set: 6-31G*
  Basis Set:

  -Total Gradient:
     Atom            X                  Y                   Z
    ------   -----------------  -----------------  -----------------
       1        0.000001061791    -0.000003193647     0.000008200438
       2        0.000000284938    -0.000021326694    -0.000014589251
       3       -0.000006316533     0.000039311691     0.000001098288
       4       -0.000009555981    -0.000004992643     0.000004506179
       5        0.000009154430     0.000006704226    -0.000009249488
       6       -0.000002788840    -0.000003611462     0.000013779782
       7       -0.000005291949     0.003395046193    -0.002922052037
       8        0.000000351481    -0.000008819058     0.000001282703
       9       -0.000004412338    -0.000011007923    -0.000005707844
      10        0.000962184913    -0.004101201234     0.004892066431
      11        0.000000171300    -0.000001395245     0.000013644954
      12       -0.000000909320    -0.000002116754     0.000000829387
      13       -0.004981012224    -0.002778580217    -0.004445480321
      14        0.000003247855     0.000003528265     0.000015828490
      15       -0.000020490289    -0.000009635205    -0.000009672688
      16       -0.000014918377    -0.000009867344     0.000003154078
      17        0.004043752004     0.003535235902     0.002486430002
      18       -0.000003052881    -0.000004353143    -0.000009846518
      19        0.000030107263    -0.000010737587    -0.000024928477
      20        0.000003317119    -0.000011346937    -0.000003097712
      21        0.000012215940    -0.000006125632    -0.000006340884
      22       -0.000003828954    -0.000003279384    -0.000002388577
      23       -0.000008496417     0.000004852533     0.000002339782
      24       -0.000004774936     0.000006911298     0.000010193285

  **** Optimization is complete! (in 10 steps) ****
    Final optimized geometry and variables:
    Molecular point group: c1

    Geometry (in Angstrom), charge = 0, multiplicity = 1:

    H           -2.812001915902     1.886104875079    -0.530401948664
    O           -2.911862343243     0.955529621360    -0.384098874059
    C           -2.597157636767     0.660033537807     0.953051455352
    C           -1.134717076332     0.922977402250     1.294648936232
    H           -2.828780719113    -0.389762148841     1.083849431063
    H           -3.242641768539     1.220319592386     1.627277285233
    C           -0.156306691512     0.085542134855     0.468319279368
    H           -0.922578778487     1.983047531648     1.152664827424
    H           -0.989806533254     0.724515027510     2.355212384512
    C            1.301847833934     0.394430396439     0.821427652372
    H           -0.339642103451     0.269651413671    -0.583399669663
    H           -0.370754774542    -0.966476994212     0.641993707080
    C            2.418360871973    -0.309817067399     0.009757118074
    H            1.434451106743     1.468541643448     0.703874291086
    H            1.463916599585     0.194585967831     1.877571535262
    C            2.129398715540    -0.735720953516    -1.438014355726
    H            2.807869191044    -1.153884710722     0.575081036239
    H            3.252767659353     0.387165567707    -0.020525870638
    C            1.427513441107    -2.086106520854    -1.600067700338
    H            3.081804914081    -0.793632505464    -1.958952656256
    H            1.562201976708     0.039411882930    -1.947250339909
    H            2.000202802878    -2.875344973012    -1.120559059036
    H            1.331636103735    -2.342291367821    -2.651082114823
    H            0.433203167726    -2.092535017472    -1.171457995099

  Mulliken Charges: (a.u.)
   Center  Symbol    Alpha    Beta     Spin     Total
       1     H     0.28334  0.28334  0.00000  0.43332
       2     O     4.36834  4.36834  0.00000 -0.73668
       3     C     2.99622  2.99622  0.00000  0.00756
       4     C     3.16856  3.16856  0.00000 -0.33711
       5     H     0.41636  0.41636  0.00000  0.16728
       6     H     0.42808  0.42808  0.00000  0.14384
       7     C     3.15624  3.15624  0.00000 -0.31247
       8     H     0.42838  0.42838  0.00000  0.14325
       9     H     0.42234  0.42234  0.00000  0.15531
      10     C     3.15327  3.15327  0.00000 -0.30653
      11     H     0.40965  0.40965  0.00000  0.18070
      12     H     0.42281  0.42281  0.00000  0.15438
      13     C     3.15591  3.15591  0.00000 -0.31183
      14     H     0.42541  0.42541  0.00000  0.14919
      15     H     0.42219  0.42219  0.00000  0.15562
      16     C     3.15628  3.15628  0.00000 -0.31256
      17     H     0.42264  0.42264  0.00000  0.15472
      18     H     0.42125  0.42125  0.00000  0.15750
      19     C     3.24049  3.24049  0.00000 -0.48098
      20     H     0.42116  0.42116  0.00000  0.15768
      21     H     0.42139  0.42139  0.00000  0.15722
      22     H     0.42336  0.42336  0.00000  0.15328
      23     H     0.42045  0.42045  0.00000  0.15910
      24     H     0.41589  0.41589  0.00000  0.16821

   Total alpha = 33.00000, Total beta = 33.00000, Total charge = -0.00000
