  ==> Input File <==

--------------------------------------------------------------------------
set {
	reference rhf
	basis 6-31G*
}

set_num_threads( 4 )
memory 2 gb

molecule MOL {
0 1

H	 -0.949262	 6.459695	 3.505282
C	 -1.815057	 5.805968	 3.465749
C	 -1.631493	 4.708963	 2.417866
H	 -1.953352	 5.380063	 4.455103
H	 -2.683739	 6.420369	 3.245061
C	 -2.838586	 3.772356	 2.331209
H	 -0.742791	 4.132801	 2.654185
H	 -1.460599	 5.166456	 1.444630
C	 -2.691422	 2.674330	 1.277667
H	 -3.012083	 3.312313	 3.297595
H	 -3.725137	 4.356384	 2.094607
C	 -1.678750	 1.595874	 1.633574
H	 -3.645849	 2.169099	 1.137732
H	 -2.438027	 3.097396	 0.308140
C	 -1.181045	 0.701995	 0.511084
O	 -1.298661	 1.440071	 2.755029
C	 -2.285934	 -0.139295	 -0.145128
H	 -0.420201	 0.056796	 0.933635
H	 -0.707309	 1.326427	 -0.244127
C	 -3.651768	 0.085446	 0.506485
H	 -2.346596	 0.110469	 -1.202272
H	 -2.034737	 -1.195320	 -0.088721
C	 -4.759797	 -0.746382	 -0.137905
H	 -3.908762	 1.140117	 0.445781
H	 -3.588286	 -0.154158	 1.565709
H	 -4.868882	 -0.505166	 -1.191300
H	 -4.548009	 -1.809175	 -0.062213
H	 -5.715422	 -0.564821	 0.343442

	symmetry c1
}
set optking {
	frozen_dihedral = ("
		12 15 17 21
	")
}

ee = optimize('scf')
oeprop('DIPOLE', 'QUADRUPOLE', 'MULLIKEN_CHARGES')
f=open( 'psi4out.xyz', 'w' )
f.write( "28  " )
f.write( str(ee) + "\n" )
f.write( MOL.save_string_xyz() )
f.close()
--------------------------------------------------------------------------

    Molecular point group: c1
  Charge       = 0
  Multiplicity = 1
  Basis Set: 6-31G*
  Basis Set:
  @DF-RHF Final Energy:  -426.12783379349946
    Total Energy =                       -426.1278337935000309
    Molecular point group: c1
  Basis Set: 6-31G*
  Basis Set:
  Basis Set: 6-31G*
  Basis Set:
  @DF-RHF Final Energy:  -426.14894774480513
    Total Energy =                       -426.1489477448052412
  Basis Set: 6-31G*
  Basis Set:
  Basis Set: 6-31G*
  Basis Set:
  @DF-RHF Final Energy:  -426.15557875406466
    Total Energy =                       -426.1555787540642086
  Basis Set: 6-31G*
  Basis Set:
  Basis Set: 6-31G*
  Basis Set:
  @DF-RHF Final Energy:  -426.15572040951383
    Total Energy =                       -426.1557204095141742
  Basis Set: 6-31G*
  Basis Set:
  @DF-RHF Final Energy:  -426.15785447085011
    Total Energy =                       -426.1578544708497702
  @DF-RHF Final Energy:  -426.15850102711079
    Total Energy =                       -426.1585010271107876
  @DF-RHF Final Energy:  -426.15890399867101
    Total Energy =                       -426.1589039986705529
  @DF-RHF Final Energy:  -426.15938763398060
    Total Energy =                       -426.1593876339804865
  @DF-RHF Final Energy:  -426.16001778149780
    Total Energy =                       -426.1600177814977997
  @DF-RHF Final Energy:  -426.16048859916020
    Total Energy =                       -426.1604885991598621
  @DF-RHF Final Energy:  -426.16066419579101
    Total Energy =                       -426.1606641957903321
  @DF-RHF Final Energy:  -426.16075341623127
    Total Energy =                       -426.1607534162312731
  @DF-RHF Final Energy:  -426.16080015456441
    Total Energy =                       -426.1608001545641855
  Basis Set: 6-31G*
  Basis Set:
  @DF-RHF Final Energy:  -426.16083782899341
    Total Energy =                       -426.1608378289931807
  Basis Set: 6-31G*
  Basis Set:
  Basis Set: 6-31G*
  Basis Set:
  @DF-RHF Final Energy:  -426.16085841290874
    Total Energy =                       -426.1608584129087376
  Basis Set: 6-31G*
  Basis Set:
  Basis Set: 6-31G*
  Basis Set:
  @DF-RHF Final Energy:  -426.16086354338461
    Total Energy =                       -426.1608635433849486
  Basis Set: 6-31G*
  Basis Set:
  Charge       = 0
  Multiplicity = 1
  Basis Set: 6-31G*
  Basis Set:

    Orbital Energies (a.u.)
    -----------------------

    Doubly Occupied:

       1A    -20.547985     2A    -11.323224     3A    -11.230834
       4A    -11.230069     5A    -11.228985     6A    -11.219511
       7A    -11.216268     8A    -11.212152     9A    -11.209937
      10A    -11.204467    11A     -1.393917    12A     -1.088058
      13A     -1.075273    14A     -1.020101    15A     -0.989466
      16A     -0.908329    17A     -0.871081    18A     -0.811650
      19A     -0.793422    20A     -0.719653    21A     -0.665974
      22A     -0.646744    23A     -0.628918    24A     -0.615882
      25A     -0.607008    26A     -0.583333    27A     -0.575290
      28A     -0.572179    29A     -0.555786    30A     -0.529732
      31A     -0.515893    32A     -0.508409    33A     -0.494084
      34A     -0.485504    35A     -0.474812    36A     -0.467305
      37A     -0.464258    38A     -0.461346    39A     -0.454790
      40A     -0.391924

  @DF-RHF Final Energy:  -426.16086413558367

   => Energetics <=

    Nuclear Repulsion Energy =            543.1438625683819055
    One-Electron Energy =               -1654.6223475829306153
    Two-Electron Energy =                 685.3176208789653856
    DFT Exchange-Correlation Energy =       0.0000000000000000
    Empirical Dispersion Energy =           0.0000000000000000
    PCM Polarization Energy =               0.0000000000000000
    EFP Energy =                            0.0000000000000000
    Total Energy =                       -426.1608641355834379
    Molecular point group: c1
  Basis Set: 6-31G*
  Basis Set:

  -Total Gradient:
     Atom            X                  Y                   Z
    ------   -----------------  -----------------  -----------------
       1       -0.000001150969    -0.000003396081     0.000003122910
       2        0.000003213660     0.000000295086     0.000000729817
       3        0.000015671444    -0.000031908191    -0.000014468899
       4       -0.000005624009    -0.000001403787    -0.000000668588
       5        0.000004626067     0.000004978225    -0.000002287114
       6       -0.000009005859     0.000023535440     0.000005386877
       7       -0.000018127229     0.000031999492     0.000004634084
       8        0.000001400710     0.000005730398    -0.000005153143
       9        0.000044511140    -0.000011645516    -0.000028843220
      10       -0.000012987157    -0.000010838795    -0.000001506643
      11       -0.000000693582     0.000004974288     0.000027995401
      12        0.000552208812    -0.000856765873     0.000751324017
      13       -0.000020630882     0.000018359718     0.000015580563
      14       -0.000003997908     0.000018211899     0.000009163977
      15       -0.000470772287     0.000938166672    -0.001280824343
      16        0.000005498737     0.000009792412     0.000060580486
      17       -0.001329843565     0.000967156476     0.001061807089
      18       -0.000005475364    -0.000012982205    -0.000016509633
      19        0.000000873014     0.000001428563    -0.000013250002
      20        0.000001275680     0.000023538969    -0.000010996087
      21        0.001265572394    -0.001068751979    -0.000583265961
      22        0.000004114595    -0.000011871284     0.000001878835
      23       -0.000003011277    -0.000012031469     0.000004738006
      24        0.000003215284    -0.000012532100    -0.000010191286
      25       -0.000011371156    -0.000016465750     0.000018730706
      26       -0.000007254223     0.000003056282     0.000005332430
      27        0.000003191675     0.000011828003    -0.000007854529
      28       -0.000005427745    -0.000012458891     0.000004814250

  **** Optimization is complete! (in 17 steps) ****
    Final optimized geometry and variables:
    Molecular point group: c1

    Geometry (in Angstrom), charge = 0, multiplicity = 1:

    H            1.458270031066     3.995255699172     3.017861975750
    C            0.576571105496     3.579648191142     2.539919346058
    C            0.957452686945     2.690888494339     1.356639411130
    H            0.028973614645     3.016388784792     3.289879464076
    H           -0.050925590041     4.409187520936     2.224957815100
    C           -0.265080211867     2.096780111970     0.653009974724
    H            1.601392693148     1.889247465904     1.699759400733
    H            1.533391508757     3.274697379474     0.640195552470
    C            0.079581022127     1.210809541947    -0.543551414085
    H           -0.849249330779     1.521352401833     1.363825042478
    H           -0.901692638669     2.907748122222     0.306240263044
    C            0.634914663549    -0.157922026944    -0.191010512228
    H           -0.800302821598     1.044581431343    -1.163998195287
    H            0.798383907711     1.704929306769    -1.195701061349
    C            0.980375888879    -1.082393427968    -1.350066872338
    O            0.793452207526    -0.511274260452     0.938767243232
    C           -0.087739779312    -2.173554480963    -1.670466113716
    H            1.910782298427    -1.564071213114    -1.074303428936
    H            1.173904641447    -0.493234044845    -2.239757132318
    C           -1.302500200690    -2.258698994206    -0.740524961238
    H           -0.431714291175    -2.032385007042    -2.690880018323
    H            0.408394609441    -3.138813971370    -1.664135968917
    C           -2.257946116099    -3.375912969318    -1.158847707952
    H           -1.842154104997    -1.314110992717    -0.740689998888
    H           -0.972583217977    -2.423296900738     0.278939223492
    H           -2.633820902654    -3.218801368489    -2.166053841110
    H           -1.763008976245    -4.342651101314    -1.138005350743
    H           -3.112016207762    -3.428115587181    -0.491209822426

  Mulliken Charges: (a.u.)
   Center  Symbol    Alpha    Beta     Spin     Total
       1     H     0.41942  0.41942  0.00000  0.16117
       2     C     3.24032  3.24032  0.00000 -0.48065
       3     C     3.15602  3.15602  0.00000 -0.31204
       4     H     0.41894  0.41894  0.00000  0.16212
       5     H     0.42422  0.42422  0.00000  0.15156
       6     C     3.14906  3.14906  0.00000 -0.29812
       7     H     0.40609  0.40609  0.00000  0.18781
       8     H     0.42824  0.42824  0.00000  0.14353
       9     C     3.21351  3.21351  0.00000 -0.42701
      10     H     0.40996  0.40996  0.00000  0.18008
      11     H     0.42210  0.42210  0.00000  0.15579
      12     C     2.73389  2.73389  0.00000  0.53222
      13     H     0.40684  0.40684  0.00000  0.18633
      14     H     0.40863  0.40863  0.00000  0.18275
      15     C     3.20212  3.20212  0.00000 -0.40423
      16     O     4.26828  4.26828  0.00000 -0.53656
      17     C     3.15429  3.15429  0.00000 -0.30858
      18     H     0.39964  0.39964  0.00000  0.20071
      19     H     0.41380  0.41380  0.00000  0.17240
      20     C     3.16502  3.16502  0.00000 -0.33003
      21     H     0.41841  0.41841  0.00000  0.16318
      22     H     0.41373  0.41373  0.00000  0.17255
      23     C     3.24030  3.24030  0.00000 -0.48060
      24     H     0.42478  0.42478  0.00000  0.15043
      25     H     0.40307  0.40307  0.00000  0.19385
      26     H     0.42253  0.42253  0.00000  0.15494
      27     H     0.42016  0.42016  0.00000  0.15968
      28     H     0.41663  0.41663  0.00000  0.16674

   Total alpha = 40.00000, Total beta = 40.00000, Total charge =  0.00000
