                              Psi4 1.0.54 Driver

  ==> Input File <==

--------------------------------------------------------------------------
set {
	reference rhf
	basis cc-pvtz
}

set_num_threads( 4 )
memory 2 gb

molecule MOL {
0 1

H	 3.014798	 1.391493	 2.517779
N	 2.186640	 0.834951	 2.512006
C	 1.395494	 1.085323	 1.317493
H	 1.671106	 1.065567	 3.335650
C	 0.177069	 0.175291	 1.272692
H	 2.023606	 0.884715	 0.456017
H	 1.071223	 2.123453	 1.233297
C	 -0.678115	 0.376691	 0.025731
H	 0.513161	 -0.854717	 1.332107
H	 -0.430455	 0.352201	 2.158186
C	 -1.900706	 -0.535531	 -0.022488
H	 -0.069771	 0.203929	 -0.859156
H	 -1.004325	 1.412824	 -0.027998
C	 -3.220513	 0.226854	 0.028039
H	 -1.865036	 -1.134397	 -0.928236
H	 -1.857948	 -1.236381	 0.806820
H	 -3.309098	 0.911849	 -0.808725
H	 -4.066838	 -0.449485	 -0.008086
H	 -3.301685	 0.809374	 0.939860

	symmetry c1
}
set optking {
	frozen_dihedral = ("
		12 8 11 15
	")
}

ee,wfn = optimize('scf', return_wfn=True)
oeprop( wfn, 'DIPOLE', 'QUADRUPOLE', 'MULLIKEN_CHARGES')
f=open( 'psi4out.xyz', 'w' )
f.write( "19  " )
f.write( str(ee) + "\n" )
f.write( MOL.save_string_xyz() )
f.close()
--------------------------------------------------------------------------

    Molecular point group: c1
  Charge       = 0
  Multiplicity = 1
  Basis Set: CC-PVTZ
  Basis Set:
  @DF-RHF Final Energy:  -251.44224855951214
    Total Energy =                       -251.4422485595122225
    Molecular point group: c1
  Basis Set: CC-PVTZ
  Basis Set:
  Basis Set: CC-PVTZ
  Basis Set:
  @DF-RHF Final Energy:  -251.44249879567553
    Total Energy =                       -251.4424987956755331
  Basis Set: CC-PVTZ
  Basis Set:
  Basis Set: CC-PVTZ
  Basis Set:
  @DF-RHF Final Energy:  -251.44256732118887
    Total Energy =                       -251.4425673211890171
  Basis Set: CC-PVTZ
  Basis Set:
  Charge       = 0
  Multiplicity = 1
  Basis Set: CC-PVTZ
  Basis Set:

    Orbital Energies (a.u.)
    -----------------------

    Doubly Occupied:

       1A    -15.526462     2A    -11.237761     3A    -11.211629
       4A    -11.210211     5A    -11.208268     6A    -11.206223
       7A     -1.178157     8A     -1.071786     9A     -0.998920
      10A     -0.900916    11A     -0.816680    12A     -0.788150
      13A     -0.664103    14A     -0.640067    15A     -0.613088
      16A     -0.597301    17A     -0.562971    18A     -0.558920
      19A     -0.519811    20A     -0.499903    21A     -0.489478
      22A     -0.464367    23A     -0.453371    24A     -0.449365
      25A     -0.383819

  @DF-RHF Final Energy:  -251.44256766424988

   => Energetics <=

    Nuclear Repulsion Energy =            246.9158224289101042
    One-Electron Energy =                -828.2133220360362884
    Two-Electron Energy =                 329.8549319428759645
    DFT Exchange-Correlation Energy =       0.0000000000000000
    Empirical Dispersion Energy =           0.0000000000000000
    PCM Polarization Energy =               0.0000000000000000
    EFP Energy =                            0.0000000000000000
    Total Energy =                       -251.4425676642501912
    Molecular point group: c1
  Basis Set: CC-PVTZ
  Basis Set:

  -Total Gradient:
     Atom            X                  Y                   Z
    ------   -----------------  -----------------  -----------------
       1        0.000014101513     0.000000776351     0.000021746445
       2        0.000029249575     0.000023331473     0.000003547571
       3       -0.000009164061    -0.000020312216     0.000000911694
       4        0.000003254168     0.000002024788     0.000002336489
       5       -0.000007724378    -0.000009631638    -0.000031332953
       6        0.000000131069     0.000005699401     0.000003652278
       7        0.000005774628    -0.000000680080    -0.000001933866
       8        0.000625338307    -0.000975232476     0.000662459566
       9        0.000000437489     0.000003934564    -0.000002746326
      10       -0.000005948020    -0.000000366652    -0.000010172068
      11       -0.000642155804     0.000983282926    -0.000667817789
      12       -0.000443431822     0.000648282088    -0.000430194965
      13        0.000000569073    -0.000003467022    -0.000000699914
      14       -0.000015142370    -0.000007315985     0.000002321980
      15        0.000438962185    -0.000645299598     0.000451348112
      16       -0.000008632868     0.000011042761    -0.000002760662
      17        0.000013686258    -0.000004127565     0.000005152899
      18       -0.000006472626    -0.000006158887    -0.000001541571
      19        0.000007167682    -0.000005782233    -0.000004276922

  **** Optimization is complete! (in 4 steps) ****
    Final optimized geometry and variables:
    Molecular point group: c1

    Geometry (in Angstrom), charge = 0, multiplicity = 1:

    H            3.329379018429     1.016008123673     1.650067293176
    N            2.503801584494     0.455688674818     1.638810734940
    C            1.716695327895     0.705891437108     0.441510467493
    H            1.983659473652     0.681843671951     2.460806044199
    C            0.503420497952    -0.209942927996     0.387736459973
    H            2.349432234113     0.511219581125    -0.418044577618
    H            1.387600319737     1.742679223236     0.358977897580
    C           -0.344778091995    -0.014234142901    -0.865988211000
    H            0.842823784584    -1.238612164748     0.449712047251
    H           -0.113076936336    -0.036149928556     1.268104989840
    C           -1.595467596325    -0.916291033913    -0.912217545933
    H            0.270561228453    -0.190420997689    -1.742713406299
    H           -0.649969165717     1.026677480643    -0.927467668397
    C           -2.909355845884    -0.142848931367    -0.853490276695
    H           -1.579529769503    -1.524172120744    -1.810172071964
    H           -1.564336873431    -1.617528193688    -0.084342961930
    H           -3.003894537017     0.531119408141    -1.698363812042
    H           -3.761908612956    -0.812613879270    -0.866425379243
    H           -2.970600525724     0.453759420386     0.051103948833

  Mulliken Charges: (a.u.)
   Center  Symbol    Alpha    Beta     Spin     Total
       1     H     0.43019  0.43019  0.00000  0.13961
       2     N     3.68917  3.68917  0.00000 -0.37834
       3     C     3.02757  3.02757  0.00000 -0.05515
       4     H     0.43108  0.43108  0.00000  0.13783
       5     C     3.08238  3.08238  0.00000 -0.16477
       6     H     0.45725  0.45725  0.00000  0.08550
       7     H     0.46828  0.46828  0.00000  0.06345
       8     C     3.10028  3.10028  0.00000 -0.20056
       9     H     0.44825  0.44825  0.00000  0.10350
      10     H     0.45979  0.45979  0.00000  0.08042
      11     C     3.08896  3.08896  0.00000 -0.17792
      12     H     0.44912  0.44912  0.00000  0.10176
      13     H     0.45685  0.45685  0.00000  0.08630
      14     C     3.14711  3.14711  0.00000 -0.29421
      15     H     0.44943  0.44943  0.00000  0.10114
      16     H     0.45371  0.45371  0.00000  0.09258
      17     H     0.45497  0.45497  0.00000  0.09006
      18     H     0.44969  0.44969  0.00000  0.10061
      19     H     0.45590  0.45590  0.00000  0.08820

   Total alpha = 25.00000, Total beta = 25.00000, Total charge = -0.00000

*** Psi4 exiting successfully. Buy a developer a beer!
