                              Psi4 1.0.54 Driver

  ==> Input File <==

--------------------------------------------------------------------------
set {
	reference rhf
	basis cc-pvtz
}

set_num_threads( 4 )
memory 2 gb

molecule MOL {
0 1

H	 2.396946	 0.158740	 2.081196
O	 1.703928	 0.699725	 1.750867
C	 1.135873	 0.113391	 0.608264
C	 0.027642	 1.012027	 0.090274
H	 0.718490	 -0.860641	 0.850791
H	 1.893057	 -0.039349	 -0.155807
C	 -1.138737	 0.285728	 -0.581921
H	 0.464661	 1.708096	 -0.618252
H	 -0.340737	 1.603071	 0.925246
C	 -1.933983	 -0.631436	 0.343653
H	 -0.763151	 -0.285569	 -1.422081
H	 -1.808359	 1.035291	 -0.992333
H	 -2.789188	 -1.049673	 -0.174718
H	 -1.335629	 -1.461368	 0.700418
H	 -2.305435	 -0.092167	 1.209725

	symmetry c1
}
set optking {
	frozen_dihedral = ("
		2 3 4 8
	")
}

ee,wfn = optimize('scf', return_wfn=True)
oeprop( wfn, 'DIPOLE', 'QUADRUPOLE', 'MULLIKEN_CHARGES')
f=open( 'psi4out.xyz', 'w' )
f.write( "15  " )
f.write( str(ee) + "\n" )
f.write( MOL.save_string_xyz() )
f.close()
--------------------------------------------------------------------------

    Molecular point group: c1
  Charge       = 0
  Multiplicity = 1
  Basis Set: CC-PVTZ
  Basis Set:
  @DF-RHF Final Energy:  -232.23335405280170
    Total Energy =                       -232.2333540528015874
    Molecular point group: c1
  Basis Set: CC-PVTZ
  Basis Set:
  Basis Set: CC-PVTZ
  Basis Set:
  @DF-RHF Final Energy:  -232.23376187487096
    Total Energy =                       -232.2337618748709360
  Basis Set: CC-PVTZ
  Basis Set:
  Basis Set: CC-PVTZ
  Basis Set:
  @DF-RHF Final Energy:  -232.23415811929019
    Total Energy =                       -232.2341581192902140
  Basis Set: CC-PVTZ
  Basis Set:
  Basis Set: CC-PVTZ
  Basis Set:
  @DF-RHF Final Energy:  -232.23415526937310
    Total Energy =                       -232.2341552693733320
  Basis Set: CC-PVTZ
  Basis Set:
  Basis Set: CC-PVTZ
  Basis Set:
  @DF-RHF Final Energy:  -232.23422520620406
    Total Energy =                       -232.2342252062043144
  Basis Set: CC-PVTZ
  Basis Set:
  Basis Set: CC-PVTZ
  Basis Set:
  @DF-RHF Final Energy:  -232.23422715079181
    Total Energy =                       -232.2342271507916962
  Basis Set: CC-PVTZ
  Basis Set:
  Charge       = 0
  Multiplicity = 1
  Basis Set: CC-PVTZ
  Basis Set:

    Orbital Energies (a.u.)
    -----------------------

    Doubly Occupied:

       1A    -20.545401     2A    -11.265145     3A    -11.216001
       4A    -11.209764     5A    -11.206751     6A     -1.362726
       7A     -1.069429     8A     -0.970838     9A     -0.867897
      10A     -0.786517    11A     -0.698837    12A     -0.652301
      13A     -0.619427    14A     -0.576522    15A     -0.556973
      16A     -0.545203    17A     -0.503705    18A     -0.476835
      19A     -0.472651    20A     -0.457964    21A     -0.432871

  @DF-RHF Final Energy:  -232.23422745785328

   => Energetics <=

    Nuclear Repulsion Energy =            188.6054043702791034
    One-Electron Energy =                -688.6917450354311541
    Two-Electron Energy =                 267.8521132072987143
    DFT Exchange-Correlation Energy =       0.0000000000000000
    Empirical Dispersion Energy =           0.0000000000000000
    PCM Polarization Energy =               0.0000000000000000
    EFP Energy =                            0.0000000000000000
    Total Energy =                       -232.2342274578533647
    Molecular point group: c1
  Basis Set: CC-PVTZ
  Basis Set:

  -Total Gradient:
     Atom            X                  Y                   Z
    ------   -----------------  -----------------  -----------------
       1        0.000006055639    -0.000004340257     0.000001877371
       2       -0.001933571342    -0.001678160698     0.001735958858
       3        0.002358361901     0.001636109339    -0.002970076136
       4        0.000245505065     0.002470167356     0.004356222583
       5       -0.000007218818     0.000002147089    -0.000000520507
       6        0.000001738691     0.000000286598     0.000000105360
       7       -0.000017614191    -0.000005712619     0.000006933036
       8       -0.000657035491    -0.002423433269    -0.003125142855
       9       -0.000001599797    -0.000000367039     0.000002965946
      10        0.000014120103     0.000007827545    -0.000021975925
      11        0.000001602668    -0.000001321559     0.000006417448
      12       -0.000004884697     0.000004759714    -0.000006291173
      13       -0.000011369252    -0.000004485199    -0.000011337112
      14        0.000014168741    -0.000017408739     0.000012635583
      15       -0.000008259219     0.000013931739     0.000012227521

  **** Optimization is complete! (in 7 steps) ****
    Final optimized geometry and variables:
    Molecular point group: c1

    Geometry (in Angstrom), charge = 0, multiplicity = 1:

    H            2.485214404509    -0.106032216396     1.509969932022
    O            1.721817505459     0.383385950898     1.264697652088
    C            1.157903286860    -0.156212437414     0.096887754557
    C           -0.003826612299     0.728805504799    -0.343223408671
    H            0.808835914013    -1.165694212824     0.293554333214
    H            1.899155726564    -0.219663438617    -0.695408806331
    C           -1.115382776208    -0.035328722096    -1.069473506647
    H            0.371672866256     1.493339931313    -1.014146119309
    H           -0.404562457782     1.226106632551     0.531820259595
    C           -2.001195442571    -0.877400909437    -0.154408823268
    H           -0.677904502705    -0.668644228233    -1.837878756538
    H           -1.740697496610     0.679663133809    -1.593829380724
    H           -2.765811675479    -1.392875596172    -0.724446010838
    H           -1.435608648154    -1.627930750752     0.385113321214
    H           -2.499617755915    -0.252934713397     0.579215384104

  Mulliken Charges: (a.u.)
   Center  Symbol    Alpha    Beta     Spin     Total
       1     H     0.39569  0.39569  0.00000  0.20863
       2     O     4.19684  4.19684  0.00000 -0.39367
       3     C     2.96346  2.96346  0.00000  0.07309
       4     C     3.09060  3.09060  0.00000 -0.18120
       5     H     0.47604  0.47604  0.00000  0.04792
       6     H     0.47158  0.47158  0.00000  0.05684
       7     C     3.09861  3.09861  0.00000 -0.19723
       8     H     0.45077  0.45077  0.00000  0.09845
       9     H     0.44821  0.44821  0.00000  0.10358
      10     C     3.14700  3.14700  0.00000 -0.29401
      11     H     0.45610  0.45610  0.00000  0.08781
      12     H     0.44786  0.44786  0.00000  0.10429
      13     H     0.44830  0.44830  0.00000  0.10339
      14     H     0.45560  0.45560  0.00000  0.08880
      15     H     0.45335  0.45335  0.00000  0.09330

   Total alpha = 21.00000, Total beta = 21.00000, Total charge = -0.00000

*** Psi4 exiting successfully. Buy a developer a beer!
