                              Psi4 1.0.54 Driver

  ==> Input File <==

--------------------------------------------------------------------------
set {
	reference rhf
	basis cc-pvtz
}

set_num_threads( 4 )
memory 2 gb

molecule MOL {
0 1

O	 -2.817697	 1.304178	 0.001046
C	 -2.664672	 0.129869	 0.003507
C	 -3.797908	 -0.860100	 -0.001145
O	 -1.481217	 -0.452708	 0.001092
H	 -4.408836	 -0.679689	 -0.875387
H	 -3.443486	 -1.878443	 -0.002770
H	 -4.412123	 -0.683688	 0.871605
C	 -0.332055	 0.384012	 -0.000250
C	 0.892252	 -0.506059	 -0.000295
H	 -0.360822	 1.020205	 -0.874146
H	 -0.359817	 1.021310	 0.872861
C	 2.188199	 0.299473	 -0.001416
H	 0.857046	 -1.152781	 -0.871031
H	 0.857910	 -1.151798	 0.871202
C	 3.437151	 -0.577593	 -0.000991
H	 2.209565	 0.950707	 -0.871712
H	 2.210062	 0.952234	 0.867721
C	 3.596253	 -1.390282	 1.279333
H	 4.313912	 0.047987	 -0.142399
H	 3.402383	 -1.250346	 -0.853213
H	 3.668496	 -0.743372	 2.147166
H	 4.490900	 -2.001090	 1.247299
H	 2.749734	 -2.051534	 1.431009

	symmetry c1
}
set optking {
	frozen_dihedral = ("
		19 15 12 16
	")
}

ee,wfn = optimize('scf', return_wfn=True)
oeprop( wfn, 'DIPOLE', 'QUADRUPOLE', 'MULLIKEN_CHARGES')
f=open( 'psi4out.xyz', 'w' )
f.write( "23  " )
f.write( str(ee) + "\n" )
f.write( MOL.save_string_xyz() )
f.close()
--------------------------------------------------------------------------

    Molecular point group: c1
  Charge       = 0
  Multiplicity = 1
  Basis Set: CC-PVTZ
  Basis Set:
  @DF-RHF Final Energy:  -423.13263083674661
    Total Energy =                       -423.1326308367466709
    Molecular point group: c1
  Basis Set: CC-PVTZ
  Basis Set:
  Basis Set: CC-PVTZ
  Basis Set:
  @DF-RHF Final Energy:  -423.13250743290178
    Total Energy =                       -423.1325074329021163
  Basis Set: CC-PVTZ
  Basis Set:
  Basis Set: CC-PVTZ
  Basis Set:
  @DF-RHF Final Energy:  -423.13222129699091
    Total Energy =                       -423.1322212969914744
  Basis Set: CC-PVTZ
  Basis Set:
  Basis Set: CC-PVTZ
  Basis Set:
  @DF-RHF Final Energy:  -423.13313429312336
    Total Energy =                       -423.1331342931233621
  Basis Set: CC-PVTZ
  Basis Set:
  Basis Set: CC-PVTZ
  Basis Set:
  @DF-RHF Final Energy:  -423.13315594149333
    Total Energy =                       -423.1331559414929870
  Basis Set: CC-PVTZ
  Basis Set:
  Charge       = 0
  Multiplicity = 1
  Basis Set: CC-PVTZ
  Basis Set:

    Orbital Energies (a.u.)
    -----------------------

    Doubly Occupied:

       1A    -20.595918     2A    -20.529445     3A    -11.366361
       4A    -11.279417     5A    -11.230648     6A    -11.222069
       7A    -11.221462     8A    -11.219832     9A    -11.210912
      10A     -1.471138    11A     -1.363913    12A     -1.095139
      13A     -1.042154    14A     -1.002800    15A     -0.932009
      16A     -0.854350    17A     -0.794196    18A     -0.773018
      19A     -0.694053    20A     -0.688213    21A     -0.673100
      22A     -0.636818    23A     -0.617836    24A     -0.600120
      25A     -0.577835    26A     -0.572154    27A     -0.548188
      28A     -0.538546    29A     -0.526521    30A     -0.508902
      31A     -0.498075    32A     -0.472530    33A     -0.467589
      34A     -0.466864    35A     -0.455162    36A     -0.438819

  @DF-RHF Final Energy:  -423.13316031033276

   => Energetics <=

    Nuclear Repulsion Energy =            454.7626426180783028
    One-Electron Energy =               -1477.4193934817608351
    Two-Electron Energy =                 599.5235905533495497
    DFT Exchange-Correlation Energy =       0.0000000000000000
    Empirical Dispersion Energy =           0.0000000000000000
    PCM Polarization Energy =               0.0000000000000000
    EFP Energy =                            0.0000000000000000
    Total Energy =                       -423.1331603103329826
    Molecular point group: c1
  Basis Set: CC-PVTZ
  Basis Set:

  -Total Gradient:
     Atom            X                  Y                   Z
    ------   -----------------  -----------------  -----------------
       1       -0.000039108551     0.000114406799    -0.000002731997
       2        0.000127500738    -0.000225953939     0.000012434519
       3       -0.000018355981     0.000029313995     0.000004648070
       4       -0.000147840651     0.000055619859    -0.000015675423
       5        0.000008310861    -0.000002864074     0.000013319777
       6        0.000000133241     0.000005346420    -0.000000923859
       7        0.000015111445     0.000004353416    -0.000022757481
       8        0.000065385988     0.000027797648     0.000014275151
       9       -0.000004008001    -0.000011654384     0.000023842840
      10       -0.000011441347     0.000000009908     0.000001395746
      11        0.000007670013    -0.000005986521    -0.000013432306
      12       -0.000084473103    -0.000122251453    -0.000108528775
      13        0.000006888471     0.000005719606    -0.000003069930
      14        0.000001065988     0.000010537615    -0.000010764414
      15        0.000046536915    -0.000004836357     0.000172200784
      16        0.000088622796     0.000081199365     0.000105579823
      17       -0.000014419958     0.000004762084    -0.000001878585
      18       -0.000022300046    -0.000029118108     0.000014797361
      19       -0.000047846952    -0.000038091196    -0.000127343884
      20        0.000013886257    -0.000007881643     0.000001644268
      21       -0.000001043577     0.000006303895    -0.000005428077
      22       -0.000056760116     0.000033736961    -0.000021787244
      23        0.000066485575     0.000069530108    -0.000029816364

  **** Optimization is complete! (in 6 steps) ****
    Final optimized geometry and variables:
    Molecular point group: c1

    Geometry (in Angstrom), charge = 0, multiplicity = 1:

    O           -2.697524408496     1.499277138248    -0.109872929176
    C           -2.549100199399     0.324382913791    -0.127947169548
    C           -3.686610590851    -0.660669450629    -0.147237520103
    O           -1.368095382882    -0.262549357897    -0.133293311185
    H           -4.296546909927    -0.464669572507    -1.018838334956
    H           -3.336576531492    -1.680432282234    -0.163820810052
    H           -4.300198832455    -0.494451393778     0.727989763660
    C           -0.215733229225     0.569447068336    -0.116318252879
    C            1.005191058414    -0.325616050525    -0.125878401889
    H           -0.238506592922     1.220252501972    -0.979556743511
    H           -0.243953632169     1.192462889466     0.767175988089
    C            2.300020931985     0.484006835917    -0.097685123442
    H            0.978322179215    -0.947924233769    -1.015024910580
    H            0.951277112592    -0.992196964628     0.726604868776
    C            3.573906537942    -0.357162603935    -0.193630446108
    H            2.291282225285     1.190244832762    -0.923155562346
    H            2.334092574826     1.080522577430     0.810862777269
    C            3.831873729721    -1.261303679841     1.008827435038
    H            4.417901291617     0.314612903014    -0.312567357662
    H            3.537573070067    -0.959450709685    -1.097330896774
    H            3.869060069143    -0.685645205822     1.928072118492
    H            4.779666744114    -1.776324017832     0.904227491864
    H            3.063232522051    -2.016102349630     1.121666474897

  Mulliken Charges: (a.u.)
   Center  Symbol    Alpha    Beta     Spin     Total
       1     O     4.20248  4.20248  0.00000 -0.40495
       2     C     2.81526  2.81526  0.00000  0.36948
       3     C     3.13994  3.13994  0.00000 -0.27987
       4     O     4.14486  4.14486  0.00000 -0.28972
       5     H     0.44209  0.44209  0.00000  0.11582
       6     H     0.44192  0.44192  0.00000  0.11617
       7     H     0.44212  0.44212  0.00000  0.11576
       8     C     2.97833  2.97833  0.00000  0.04334
       9     C     3.08495  3.08495  0.00000 -0.16989
      10     H     0.45304  0.45304  0.00000  0.09391
      11     H     0.45397  0.45397  0.00000  0.09206
      12     C     3.10474  3.10474  0.00000 -0.20948
      13     H     0.45074  0.45074  0.00000  0.09852
      14     H     0.44950  0.44950  0.00000  0.10101
      15     C     3.09076  3.09076  0.00000 -0.18152
      16     H     0.44736  0.44736  0.00000  0.10528
      17     H     0.45190  0.45190  0.00000  0.09621
      18     C     3.15229  3.15229  0.00000 -0.30458
      19     H     0.44708  0.44708  0.00000  0.10585
      20     H     0.45363  0.45363  0.00000  0.09274
      21     H     0.45427  0.45427  0.00000  0.09146
      22     H     0.44561  0.44561  0.00000  0.10878
      23     H     0.45318  0.45318  0.00000  0.09364

   Total alpha = 36.00000, Total beta = 36.00000, Total charge = -0.00000

*** Psi4 exiting successfully. Buy a developer a beer!
