  ==> Input File <==

--------------------------------------------------------------------------
set {
	reference rhf
	basis 6-31G*
}

set_num_threads( 4 )
memory 2 gb

molecule MOL {
0 1

H	 -1.836216	 1.387520	 -0.000064
C	 -1.301823	 0.443321	 -0.000031
O	 -0.003969	 0.658512	 0.000451
O	 -1.829879	 -0.616434	 -0.000857
C	 0.850537	 -0.484732	 0.000380
C	 1.884911	 -0.278310	 -1.084875
H	 0.251824	 -1.367400	 -0.177831
H	 1.305679	 -0.580375	 0.976593
H	 1.410593	 -0.176547	 -2.054257
H	 2.557374	 -1.129113	 -1.118952
H	 2.469641	 0.614266	 -0.894388

	symmetry c1
}
set optking {
	frozen_dihedral = ("
		7 5 3 2
	")
}

ee = optimize('scf')
oeprop('DIPOLE', 'QUADRUPOLE', 'MULLIKEN_CHARGES')
f=open( 'psi4out.xyz', 'w' )
f.write( "11  " )
f.write( str(ee) + "\n" )
f.write( MOL.save_string_xyz() )
f.close()
--------------------------------------------------------------------------

    Molecular point group: c1
  Charge       = 0
  Multiplicity = 1
  Basis Set: 6-31G*
  Basis Set:
  @DF-RHF Final Energy:  -266.82641783543244
    Total Energy =                       -266.8264178354326646
    Molecular point group: c1
  Basis Set: 6-31G*
  Basis Set:
  Basis Set: 6-31G*
  Basis Set:
  @DF-RHF Final Energy:  -266.82673476344610
    Total Energy =                       -266.8267347634463249
  Basis Set: 6-31G*
  Basis Set:
  Basis Set: 6-31G*
  Basis Set:
  @DF-RHF Final Energy:  -266.82697934602209
    Total Energy =                       -266.8269793460220853
  Basis Set: 6-31G*
  Basis Set:
  Basis Set: 6-31G*
  Basis Set:
  @DF-RHF Final Energy:  -266.82650382621489
    Total Energy =                       -266.8265038262148323
  Basis Set: 6-31G*
  Basis Set:
  Basis Set: 6-31G*
  Basis Set:
  @DF-RHF Final Energy:  -266.82711537381942
    Total Energy =                       -266.8271153738192538
  Basis Set: 6-31G*
  Basis Set:
  Charge       = 0
  Multiplicity = 1
  Basis Set: 6-31G*
  Basis Set:

    Orbital Energies (a.u.)
    -----------------------

    Doubly Occupied:

       1A    -20.612241     2A    -20.556138     3A    -11.379559
       4A    -11.290687     5A    -11.226747     6A     -1.473902
       7A     -1.374266     8A     -1.052163     9A     -0.906528
      10A     -0.801640    11A     -0.743579    12A     -0.684078
      13A     -0.670013    14A     -0.605244    15A     -0.571108
      16A     -0.554374    17A     -0.530872    18A     -0.505037
      19A     -0.457404    20A     -0.452704

  @DF-RHF Final Energy:  -266.82711758930378

   => Energetics <=

    Nuclear Repulsion Energy =            179.3822346546207882
    One-Electron Energy =                -719.5221302002198627
    Two-Electron Energy =                 273.3127779562953492
    DFT Exchange-Correlation Energy =       0.0000000000000000
    Empirical Dispersion Energy =           0.0000000000000000
    PCM Polarization Energy =               0.0000000000000000
    EFP Energy =                            0.0000000000000000
    Total Energy =                       -266.8271175893037253
    Molecular point group: c1
  Basis Set: 6-31G*
  Basis Set:

  -Total Gradient:
     Atom            X                  Y                   Z
    ------   -----------------  -----------------  -----------------
       1        0.000021658715    -0.000009852645     0.000000865105
       2        0.000000214490    -0.000068761490    -0.000635309839
       3        0.000015533622     0.000031416736     0.001097326810
       4       -0.000019588884     0.000015601010     0.000003247606
       5        0.000100006468     0.000194758378    -0.001150364610
       6       -0.000004249305    -0.000039493264    -0.000011858951
       7       -0.000101838929    -0.000108272243     0.000698116117
       8       -0.000015712028    -0.000012413677    -0.000007058699
       9        0.000001968528     0.000000972770     0.000003117845
      10        0.000022265268     0.000002821485    -0.000016741771
      11       -0.000020257937    -0.000006777059     0.000018660387

  **** Optimization is complete! (in 6 steps) ****
    Final optimized geometry and variables:
    Molecular point group: c1

    Geometry (in Angstrom), charge = 0, multiplicity = 1:

    H           -1.727423946714     1.473327837028     0.230406594221
    C           -1.226890134659     0.510931380122     0.232098524881
    O            0.077150699851     0.692534782273     0.218350881413
    O           -1.797215043914    -0.526433235506     0.244570580303
    C            0.946948041520    -0.441254264256     0.193024572155
    C            1.999140705199    -0.217847825061    -0.873916709866
    H            0.367785747442    -1.331919334336     0.012116513594
    H            1.395097719354    -0.515466019856     1.175296234441
    H            1.542903780903    -0.151253145825    -1.855235209752
    H            2.702203460038    -1.044681287821    -0.878063071303
    H            2.547899252153     0.698083117030    -0.687711930162

  Mulliken Charges: (a.u.)
   Center  Symbol    Alpha    Beta     Spin     Total
       1     H     0.41219  0.41219  0.00000  0.17562
       2     C     2.72668  2.72668  0.00000  0.54663
       3     O     4.29232  4.29232  0.00000 -0.58464
       4     O     4.26325  4.26325  0.00000 -0.52649
       5     C     3.01456  3.01456  0.00000 -0.02913
       6     C     3.24733  3.24733  0.00000 -0.49465
       7     H     0.39410  0.39410  0.00000  0.21180
       8     H     0.41161  0.41161  0.00000  0.17677
       9     H     0.41182  0.41182  0.00000  0.17636
      10     H     0.41585  0.41585  0.00000  0.16829
      11     H     0.41028  0.41028  0.00000  0.17944

   Total alpha = 20.00000, Total beta = 20.00000, Total charge =  0.00000
