                              Psi4 1.0.54 Driver

  ==> Input File <==

--------------------------------------------------------------------------
set {
	reference rhf
	basis cc-pvtz
}

set_num_threads( 4 )
memory 2 gb

molecule MOL {
0 1

H	 2.614283	 2.028610	 0.296620
O	 3.358864	 1.662087	 -0.142800
C	 3.565468	 0.338079	 0.273842
C	 2.533667	 -0.637565	 -0.272227
H	 4.548038	 0.064914	 -0.086598
H	 3.593945	 0.282242	 1.360360
C	 2.603935	 -0.844031	 -1.783611
H	 2.657922	 -1.590528	 0.233323
H	 1.547554	 -0.264885	 -0.005599
C	 1.532656	 -1.803726	 -2.299541
H	 3.585662	 -1.222162	 -2.048626
H	 2.492962	 0.116549	 -2.283869
C	 1.509287	 -1.990517	 -3.817704
H	 1.660157	 -2.771637	 -1.820878
H	 0.559909	 -1.436831	 -1.983913
C	 2.730835	 -2.698630	 -4.400919
H	 0.622338	 -2.561927	 -4.077201
H	 1.393216	 -1.020736	 -4.296459
C	 2.615517	 -2.949636	 -5.902288
H	 2.871832	 -3.648465	 -3.889644
H	 3.626801	 -2.115222	 -4.211491
C	 3.835081	 -3.653128	 -6.488509
H	 1.727827	 -3.544393	 -6.099390
H	 2.466128	 -2.002471	 -6.413780
H	 3.992762	 -4.618836	 -6.019698
H	 3.719498	 -3.818082	 -7.553655
H	 4.735041	 -3.065164	 -6.341118

	symmetry c1
}
set optking {
	frozen_dihedral = ("
		8 4 3 2
	")
}

ee,wfn = optimize('scf', return_wfn=True)
oeprop( wfn, 'DIPOLE', 'QUADRUPOLE', 'MULLIKEN_CHARGES')
f=open( 'psi4out.xyz', 'w' )
f.write( "27  " )
f.write( str(ee) + "\n" )
f.write( MOL.save_string_xyz() )
f.close()
--------------------------------------------------------------------------

    Molecular point group: c1
  Charge       = 0
  Multiplicity = 1
  Basis Set: CC-PVTZ
  Basis Set:
  @DF-RHF Final Energy:  -388.42781277395130
    Total Energy =                       -388.4278127739504498
    Molecular point group: c1
  Basis Set: CC-PVTZ
  Basis Set:
  Basis Set: CC-PVTZ
  Basis Set:
  @DF-RHF Final Energy:  -388.42798903884176
    Total Energy =                       -388.4279890388420426
  Basis Set: CC-PVTZ
  Basis Set:
  Basis Set: CC-PVTZ
  Basis Set:
  @DF-RHF Final Energy:  -388.42804274119635
    Total Energy =                       -388.4280427411969185
  Basis Set: CC-PVTZ
  Basis Set:
  Basis Set: CC-PVTZ
  Basis Set:
  @DF-RHF Final Energy:  -388.42804668504709
    Total Energy =                       -388.4280466850473204
  Basis Set: CC-PVTZ
  Basis Set:
  Charge       = 0
  Multiplicity = 1
  Basis Set: CC-PVTZ
  Basis Set:

    Orbital Energies (a.u.)
    -----------------------

    Doubly Occupied:

       1A    -20.546010     2A    -11.265422     3A    -11.215210
       4A    -11.211029     5A    -11.210956     6A    -11.209618
       7A    -11.208933     8A    -11.208353     9A    -11.204781
      10A     -1.363934    11A     -1.092667    12A     -1.060052
      13A     -1.010570    14A     -0.945860    15A     -0.884391
      16A     -0.821856    17A     -0.801989    18A     -0.775487
      19A     -0.682539    20A     -0.652199    21A     -0.639633
      22A     -0.613507    23A     -0.608047    24A     -0.584682
      25A     -0.572115    26A     -0.557740    27A     -0.538032
      28A     -0.517669    29A     -0.513125    30A     -0.491061
      31A     -0.479502    32A     -0.473229    33A     -0.464638
      34A     -0.457947    35A     -0.455175    36A     -0.440888
      37A     -0.421892

  @DF-RHF Final Energy:  -388.42804677949198

   => Energetics <=

    Nuclear Repulsion Energy =            458.7701268530920515
    One-Electron Energy =               -1435.9948682614099198
    Two-Electron Energy =                 588.7966946288256622
    DFT Exchange-Correlation Energy =       0.0000000000000000
    Empirical Dispersion Energy =           0.0000000000000000
    PCM Polarization Energy =               0.0000000000000000
    EFP Energy =                            0.0000000000000000
    Total Energy =                       -388.4280467794922060
    Molecular point group: c1
  Basis Set: CC-PVTZ
  Basis Set:

  -Total Gradient:
     Atom            X                  Y                   Z
    ------   -----------------  -----------------  -----------------
       1        0.000009639615     0.000010694226    -0.000015336177
       2       -0.000686583000     0.000198396202     0.000935601269
       3        0.000733789914    -0.000247283149    -0.001017089818
       4        0.000900567166    -0.000433418303    -0.000907843449
       5       -0.000004987475     0.000006730485    -0.000004235608
       6       -0.000004742255     0.000031943729    -0.000000727116
       7       -0.000025003566    -0.000020090566    -0.000014187052
       8       -0.000910332002     0.000419752372     0.000995575009
       9       -0.000018849072     0.000005495386     0.000001086087
      10        0.000005164719     0.000015937019     0.000003782038
      11        0.000019249759    -0.000011476802    -0.000009900393
      12       -0.000010403273     0.000014694949     0.000009046913
      13       -0.000013434734    -0.000034060097    -0.000000375736
      14       -0.000015179748     0.000009613789    -0.000002254677
      15        0.000000474423     0.000006554771    -0.000003693817
      16        0.000007136181     0.000011024378     0.000007880276
      17        0.000002733548    -0.000005056048     0.000000482315
      18       -0.000004048695    -0.000005677015     0.000004970011
      19        0.000003926518     0.000008367206    -0.000003343830
      20       -0.000004381312     0.000009366845    -0.000003148955
      21        0.000018102704     0.000013460100     0.000021887164
      22       -0.000001816500    -0.000005255239     0.000001396726
      23       -0.000001416805     0.000002071584     0.000000945379
      24        0.000001596091     0.000000357837    -0.000000996866
      25        0.000002122221    -0.000001067695     0.000000066788
      26       -0.000001231512    -0.000001695742     0.000000724867
      27       -0.000002092912     0.000000619780    -0.000000311346

  **** Optimization is complete! (in 5 steps) ****
    Final optimized geometry and variables:
    Molecular point group: c1

    Geometry (in Angstrom), charge = 0, multiplicity = 1:

    H           -0.179422573469     3.327304674327     2.892760594286
    O            0.636281948426     3.007962933483     2.552011931098
    C            0.850609513384     1.691479218587     2.988760610493
    C           -0.180547301390     0.708275496210     2.454809681708
    H            1.841181581399     1.421085708856     2.645901912966
    H            0.864162550501     1.655199203300     4.075221858872
    C           -0.109047688856     0.495589202952     0.945633071057
    H           -0.052559314566    -0.238306793728     2.974316078658
    H           -1.172994067877     1.064054290409     2.728242268471
    C           -1.189148189221    -0.452161721318     0.427585256526
    H            0.875013312763     0.111188233285     0.696272138585
    H           -0.199164508088     1.455259067144     0.447202400748
    C           -1.209522823501    -0.636322249463    -1.090973127488
    H           -1.076905047316    -1.423441222399     0.904549232088
    H           -2.159377341504    -0.074413673756     0.739193452334
    C            0.011726187270    -1.346887357454    -1.671523616146
    H           -2.097691225619    -1.203899384271    -1.355173041886
    H           -1.319394147632     0.335257093610    -1.566974898610
    C           -0.097767957340    -1.591576516082    -3.174293423203
    H            0.146350881138    -2.299648531520    -1.163648056983
    H            0.908411232271    -0.767323846642    -1.475320498071
    C            1.121296260640    -2.298197790220    -3.757709287907
    H           -0.987290116751    -2.181389983950    -3.378259002703
    H           -0.240054364324    -0.641640383895    -3.682422765835
    H            1.271999499692    -3.266887730543    -3.292633554940
    H            1.010435944445    -2.457746679804    -4.824201349593
    H            2.023104582707    -1.715143158887    -3.602898151254

  Mulliken Charges: (a.u.)
   Center  Symbol    Alpha    Beta     Spin     Total
       1     H     0.39521  0.39521  0.00000  0.20957
       2     O     4.20413  4.20413  0.00000 -0.40825
       3     C     2.97545  2.97545  0.00000  0.04909
       4     C     3.10038  3.10038  0.00000 -0.20076
       5     H     0.45966  0.45966  0.00000  0.08068
       6     H     0.46092  0.46092  0.00000  0.07816
       7     C     3.09070  3.09070  0.00000 -0.18140
       8     H     0.45300  0.45300  0.00000  0.09400
       9     H     0.45989  0.45989  0.00000  0.08023
      10     C     3.09902  3.09902  0.00000 -0.19805
      11     H     0.45325  0.45325  0.00000  0.09349
      12     H     0.44616  0.44616  0.00000  0.10769
      13     C     3.09738  3.09738  0.00000 -0.19476
      14     H     0.45480  0.45480  0.00000  0.09039
      15     H     0.44900  0.44900  0.00000  0.10200
      16     C     3.08813  3.08813  0.00000 -0.17627
      17     H     0.44907  0.44907  0.00000  0.10186
      18     H     0.45335  0.45335  0.00000  0.09330
      19     C     3.08390  3.08390  0.00000 -0.16779
      20     H     0.45583  0.45583  0.00000  0.08834
      21     H     0.45273  0.45273  0.00000  0.09455
      22     C     3.14979  3.14979  0.00000 -0.29959
      23     H     0.45445  0.45445  0.00000  0.09111
      24     H     0.45436  0.45436  0.00000  0.09128
      25     H     0.45560  0.45560  0.00000  0.08879
      26     H     0.44864  0.44864  0.00000  0.10272
      27     H     0.45519  0.45519  0.00000  0.08962

   Total alpha = 37.00000, Total beta = 37.00000, Total charge = -0.00000

*** Psi4 exiting successfully. Buy a developer a beer!
