  ==> Input File <==

--------------------------------------------------------------------------
set {
	reference rhf
	basis 6-31G*
}

set_num_threads( 1 )
memory 2 gb

molecule MOL {
0 1

H	 4.428153	 -2.513590	 -0.094687
C	 3.933147	 -1.958356	 -0.885386
C	 2.495386	 -1.612099	 -0.500518
H	 4.513504	 -1.059563	 -1.071663
H	 3.964668	 -2.565742	 -1.785879
C	 1.765447	 -0.833970	 -1.597568
H	 2.499964	 -1.028974	 0.414657
H	 1.949612	 -2.529713	 -0.286491
C	 0.317690	 -0.488750	 -1.248153
H	 2.303801	 0.082152	 -1.813298
H	 1.765119	 -1.423920	 -2.511351
C	 0.169600	 0.576866	 -0.172154
H	 -0.193244	 -0.109773	 -2.131949
H	 -0.232688	 -1.378120	 -0.949353
C	 -1.181045	 0.701995	 0.511084
O	 1.072000	 1.303878	 0.116867
C	 -2.285934	 -0.139295	 -0.145128
H	 -1.449051	 1.751551	 0.493206
H	 -1.071135	 0.403303	 1.551943
C	 -3.651768	 0.085446	 0.506485
H	 -2.346596	 0.110469	 -1.202272
H	 -2.034737	 -1.195320	 -0.088721
C	 -4.759797	 -0.746382	 -0.137905
H	 -3.908762	 1.140117	 0.445781
H	 -3.588286	 -0.154158	 1.565709
H	 -4.868882	 -0.505166	 -1.191300
H	 -4.548009	 -1.809175	 -0.062213
H	 -5.715422	 -0.564821	 0.343442

	symmetry c1
}
set optking {
	frozen_dihedral = ("
		10 6 3 2,
		12 15 17 21
	")
}

ee = energy('scf')
oeprop('DIPOLE', 'QUADRUPOLE', 'MULLIKEN_CHARGES')
f=open( 'psi4out.xyz', 'w' )
f.write( "28  " )
f.write( str(ee) + "\n" )
f.write( MOL.save_string_xyz() )
f.close()
--------------------------------------------------------------------------

    Molecular point group: c1

    Geometry (in Angstrom), charge = 0, multiplicity = 1:

       Center              X                  Y                   Z               Mass
    ------------   -----------------  -----------------  -----------------  -----------------
           H          4.637948849692    -2.192952662190     0.261321971400     1.007825032070
           C          4.142942849692    -1.637718662190    -0.529377028600    12.000000000000
           C          2.705181849692    -1.291461662190    -0.144509028600    12.000000000000
           H          4.723299849692    -0.738925662190    -0.715654028600     1.007825032070
           H          4.174463849692    -2.245104662190    -1.429870028600     1.007825032070
           C          1.975242849692    -0.513332662190    -1.241559028600    12.000000000000
           H          2.709759849692    -0.708336662190     0.770665971400     1.007825032070
           H          2.159407849692    -2.209075662190     0.069517971400     1.007825032070
           C          0.527485849692    -0.168112662190    -0.892144028600    12.000000000000
           H          2.513596849692     0.402789337810    -1.457289028600     1.007825032070
           H          1.974914849692    -1.103282662190    -2.155342028600     1.007825032070
           C          0.379395849692     0.897503337810     0.183854971400    12.000000000000
           H          0.016551849692     0.210864337810    -1.775940028600     1.007825032070
           H         -0.022892150308    -1.057482662190    -0.593344028600     1.007825032070
           C         -0.971249150308     1.022632337810     0.867092971400    12.000000000000
           O          1.281795849692     1.624515337810     0.472875971400    15.994914619560
           C         -2.076138150308     0.181342337810     0.210880971400    12.000000000000
           H         -1.239255150308     2.072188337810     0.849214971400     1.007825032070
           H         -0.861339150308     0.723940337810     1.907951971400     1.007825032070
           C         -3.441972150308     0.406083337810     0.862493971400    12.000000000000
           H         -2.136800150308     0.431106337810    -0.846263028600     1.007825032070
           H         -1.824941150308    -0.874682662190     0.267287971400     1.007825032070
           C         -4.550001150308    -0.425744662190     0.218103971400    12.000000000000
           H         -3.698966150308     1.460754337810     0.801789971400     1.007825032070
           H         -3.378490150308     0.166479337810     1.921717971400     1.007825032070
           H         -4.659086150308    -0.184528662190    -0.835291028600     1.007825032070
           H         -4.338213150308    -1.488537662190     0.293795971400     1.007825032070
           H         -5.505626150308    -0.244183662190     0.699450971400     1.007825032070

  Charge       = 0
  Multiplicity = 1
  Basis Set: 6-31G*
  Basis Set:

    Orbital Energies (a.u.)
    -----------------------

    Doubly Occupied:

       1A    -20.545842     2A    -11.323269     3A    -11.230974
       4A    -11.229721     5A    -11.228385     6A    -11.225852
       7A    -11.216760     8A    -11.215385     9A    -11.212063
      10A    -11.205480    11A     -1.392086    12A     -1.098315
      13A     -1.075872    14A     -1.023495    15A     -0.989609
      16A     -0.904562    17A     -0.877169    18A     -0.809953
      19A     -0.800462    20A     -0.719504    21A     -0.665741
      22A     -0.662567    23A     -0.628946    24A     -0.617877
      25A     -0.608878    26A     -0.585278    27A     -0.583780
      28A     -0.573139    29A     -0.541090    30A     -0.531807
      31A     -0.523972    32A     -0.514941    33A     -0.490109
      34A     -0.487515    35A     -0.480077    36A     -0.475557
      37A     -0.468210    38A     -0.464491    39A     -0.452878
      40A     -0.391545

  @DF-RHF Final Energy:  -426.16373031239516

   => Energetics <=

    Nuclear Repulsion Energy =            535.5620234590822974
    One-Electron Energy =               -1639.3051460610213326
    Two-Electron Energy =                 677.5793922895441028
    DFT Exchange-Correlation Energy =       0.0000000000000000
    Empirical Dispersion Energy =           0.0000000000000000
    PCM Polarization Energy =               0.0000000000000000
    EFP Energy =                            0.0000000000000000
    Total Energy =                       -426.1637303123948186

  Mulliken Charges: (a.u.)
   Center  Symbol    Alpha    Beta     Spin     Total
       1     H     0.41951  0.41951  0.00000  0.16097
       2     C     3.24006  3.24006  0.00000 -0.48012
       3     C     3.15636  3.15636  0.00000 -0.31272
       4     H     0.41824  0.41824  0.00000  0.16353
       5     H     0.42365  0.42365  0.00000  0.15269
       6     C     3.14725  3.14725  0.00000 -0.29451
       7     H     0.41061  0.41061  0.00000  0.17879
       8     H     0.42816  0.42816  0.00000  0.14369
       9     C     3.21662  3.21662  0.00000 -0.43324
      10     H     0.40705  0.40705  0.00000  0.18590
      11     H     0.42233  0.42233  0.00000  0.15535
      12     C     2.73221  2.73221  0.00000  0.53559
      13     H     0.40307  0.40307  0.00000  0.19386
      14     H     0.41019  0.41019  0.00000  0.17962
      15     C     3.20039  3.20039  0.00000 -0.40077
      16     O     4.26936  4.26936  0.00000 -0.53873
      17     C     3.16608  3.16608  0.00000 -0.33217
      18     H     0.39945  0.39945  0.00000  0.20110
      19     H     0.40105  0.40105  0.00000  0.19790
      20     C     3.15061  3.15061  0.00000 -0.30122
      21     H     0.41929  0.41929  0.00000  0.16143
      22     H     0.41839  0.41839  0.00000  0.16323
      23     C     3.23978  3.23978  0.00000 -0.47957
      24     H     0.42042  0.42042  0.00000  0.15916
      25     H     0.42111  0.42111  0.00000  0.15779
      26     H     0.42079  0.42079  0.00000  0.15841
      27     H     0.42112  0.42112  0.00000  0.15777
      28     H     0.41686  0.41686  0.00000  0.16628

   Total alpha = 40.00000, Total beta = 40.00000, Total charge =  0.00000
