  ==> Input File <==

--------------------------------------------------------------------------
set {
	reference rhf
	basis cc-pvtz
}

set_num_threads( 4 )
memory 2 gb

molecule MOL {
0 1

H	 0.114527	 -0.025011	 -0.150984
N	 -0.625934	 -0.663929	 -0.000707
C	 -1.978635	 -0.158664	 0.001017
C	 -0.313395	 -1.964892	 0.190074
H	 -2.519057	 -0.493535	 -0.876362
H	 -1.938890	 0.917202	 -0.004137
H	 -2.514266	 -0.485137	 0.884506
C	 1.167590	 -2.270432	 0.143712
O	 -1.132292	 -2.815906	 0.375166
H	 1.692031	 -1.717842	 0.914558
H	 1.311711	 -3.327013	 0.298413
H	 1.583488	 -1.985828	 -0.815792

	symmetry c1
}
set optking {
	frozen_dihedral = ("
		4 2 3 5
	")
}

ee = optimize('scf')
oeprop('DIPOLE', 'QUADRUPOLE', 'MULLIKEN_CHARGES')
f=open( 'psi4out.xyz', 'w' )
f.write( "12  " )
f.write( str(ee) + "\n" )
f.write( MOL.save_string_xyz() )
f.close()
--------------------------------------------------------------------------

    Molecular point group: c1
  Charge       = 0
  Multiplicity = 1
  Basis Set: CC-PVTZ
  Basis Set:
  @DF-RHF Final Energy:  -247.10101804877903
    Total Energy =                       -247.1010180487792240
    Molecular point group: c1
  Basis Set: CC-PVTZ
  Basis Set:
  Basis Set: CC-PVTZ
  Basis Set:
  @DF-RHF Final Energy:  -247.10118858120373
    Total Energy =                       -247.1011885812035871
  Basis Set: CC-PVTZ
  Basis Set:
  Basis Set: CC-PVTZ
  Basis Set:
  @DF-RHF Final Energy:  -247.10091737625717
    Total Energy =                       -247.1009173762571436
  Basis Set: CC-PVTZ
  Basis Set:
  Basis Set: CC-PVTZ
  Basis Set:
  @DF-RHF Final Energy:  -247.10125741344410
    Total Energy =                       -247.1012574134438182
  Basis Set: CC-PVTZ
  Basis Set:
  @DF-RHF Final Energy:  -247.10126095561751
    Total Energy =                       -247.1012609556175903
  @DF-RHF Final Energy:  -247.10127688592473
    Total Energy =                       -247.1012768859246194
  @DF-RHF Final Energy:  -247.10128277393599
    Total Energy =                       -247.1012827739359636
  @DF-RHF Final Energy:  -247.10128481543595
    Total Energy =                       -247.1012848154359176
  @DF-RHF Final Energy:  -247.10128603983074
    Total Energy =                       -247.1012860398309385
  @DF-RHF Final Energy:  -247.10129012717755
    Total Energy =                       -247.1012901271774354
  @DF-RHF Final Energy:  -247.10119865444636
    Total Energy =                       -247.1011986544465344
  @DF-RHF Final Energy:  -247.10129353758745
    Total Energy =                       -247.1012935375873099
  @DF-RHF Final Energy:  -247.10130099213831
    Total Energy =                       -247.1013009921382491
  @DF-RHF Final Energy:  -247.10130914203452
    Total Energy =                       -247.1013091420344949
  @DF-RHF Final Energy:  -247.10131643386154
    Total Energy =                       -247.1013164338614843
  @DF-RHF Final Energy:  -247.10133819495300
    Total Energy =                       -247.1013381949530867
  @DF-RHF Final Energy:  -247.10135961534917
    Total Energy =                       -247.1013596153489971
  @DF-RHF Final Energy:  -247.10138861806701
    Total Energy =                       -247.1013886180667214
  @DF-RHF Final Energy:  -247.10128336791558
    Total Energy =                       -247.1012833679157552
  @DF-RHF Final Energy:  -247.10140146420517
    Total Energy =                       -247.1014014642050824
  @DF-RHF Final Energy:  -247.10142054263540
    Total Energy =                       -247.1014205426353101
  @DF-RHF Final Energy:  -247.10143624718006
    Total Energy =                       -247.1014362471800609
  @DF-RHF Final Energy:  -247.10143985002060
    Total Energy =                       -247.1014398500204834
  @DF-RHF Final Energy:  -247.10144309603365
    Total Energy =                       -247.1014430960337336
  @DF-RHF Final Energy:  -247.10144613522905
    Total Energy =                       -247.1014461352291960
  @DF-RHF Final Energy:  -247.10144896526319
    Total Energy =                       -247.1014489652631028
  Basis Set: CC-PVTZ
  Basis Set:
  @DF-RHF Final Energy:  -247.10145159524276
    Total Energy =                       -247.1014515952425654
  Basis Set: CC-PVTZ
  Basis Set:
  Basis Set: CC-PVTZ
  Basis Set:
  @DF-RHF Final Energy:  -247.10145402687348
    Total Energy =                       -247.1014540268734549
  Basis Set: CC-PVTZ
  Basis Set:
  Basis Set: CC-PVTZ
  Basis Set:
  @DF-RHF Final Energy:  -247.10145626186022
    Total Energy =                       -247.1014562618601076
  Basis Set: CC-PVTZ
  Basis Set:
  Charge       = 0
  Multiplicity = 1
  Basis Set: CC-PVTZ
  Basis Set:

    Orbital Energies (a.u.)
    -----------------------

    Doubly Occupied:

       1A    -20.505180     2A    -15.576202     3A    -11.335293
       4A    -11.254117     5A    -11.228425     6A     -1.388020
       7A     -1.231307     8A     -1.016145     9A     -0.933918
      10A     -0.789997    11A     -0.690686    12A     -0.651663
      13A     -0.636099    14A     -0.585396    15A     -0.582744
      16A     -0.556710    17A     -0.547940    18A     -0.505735
      19A     -0.417011    20A     -0.391082

  @DF-RHF Final Energy:  -247.10145679106836

   => Energetics <=

    Nuclear Repulsion Energy =            181.8906078734094649
    One-Electron Energy =                -696.3367829009857815
    Two-Electron Energy =                 267.3447182365080721
    DFT Exchange-Correlation Energy =       0.0000000000000000
    Empirical Dispersion Energy =           0.0000000000000000
    PCM Polarization Energy =               0.0000000000000000
    EFP Energy =                            0.0000000000000000
    Total Energy =                       -247.1014567910683013
    Molecular point group: c1
  Basis Set: CC-PVTZ
  Basis Set:

  -Total Gradient:
     Atom            X                  Y                   Z
    ------   -----------------  -----------------  -----------------
       1       -0.000000038399    -0.000000694841    -0.000004140996
       2        0.000008277665     0.000012088605    -0.000088900761
       3       -0.000020105392    -0.000052831599     0.000035579901
       4       -0.000002739922     0.000000366882     0.000033682633
       5        0.000015229824     0.000042052142    -0.000014804337
       6       -0.000000430639    -0.000000042015     0.000001102520
       7       -0.000000262461    -0.000000724193    -0.000000650046
       8       -0.000000476587    -0.000002654661     0.000002410481
       9        0.000000170178     0.000000100326     0.000037162033
      10       -0.000002353569    -0.000009198749     0.000022885065
      11       -0.000003151843    -0.000013609465    -0.000020500513
      12        0.000005881148     0.000025147569    -0.000003825981

  **** Optimization is complete! (in 30 steps) ****
    Final optimized geometry and variables:
    Molecular point group: c1

    Geometry (in Angstrom), charge = 0, multiplicity = 1:

    H            0.703342190488     1.582216893537    -0.061401049913
    N           -0.029522953979     0.923384069497     0.014565334760
    C           -1.394892507567     1.386195513306    -0.081869390906
    C            0.276546521601    -0.390171934874     0.028817907097
    H           -1.816985067423     1.195235153179    -1.061152610310
    H           -1.415657794847     2.450246227463     0.107278393680
    H           -2.008725595470     0.887226490927     0.652616514191
    C            1.751272107296    -0.722684096432     0.023835228108
    O           -0.561681442624    -1.243371502351     0.030445435202
    H            2.365340396791     0.080325651276     0.410192877474
    H            1.907040322068    -1.615087418560     0.610377703861
    H            2.053997012431    -0.931383041497    -0.995605890866

  Mulliken Charges: (a.u.)
   Center  Symbol    Alpha    Beta     Spin     Total
       1     H     0.41131  0.41131  0.00000  0.17738
       2     N     3.61440  3.61440  0.00000 -0.22879
       3     C     3.07664  3.07664  0.00000 -0.15328
       4     C     2.84134  2.84134  0.00000  0.31732
       5     H     0.45493  0.45493  0.00000  0.09015
       6     H     0.45578  0.45578  0.00000  0.08844
       7     H     0.44237  0.44237  0.00000  0.11526
       8     C     3.14609  3.14609  0.00000 -0.29218
       9     O     4.21893  4.21893  0.00000 -0.43785
      10     H     0.45756  0.45756  0.00000  0.08487
      11     H     0.43641  0.43641  0.00000  0.12717
      12     H     0.44425  0.44425  0.00000  0.11150

   Total alpha = 20.00000, Total beta = 20.00000, Total charge = -0.00000
