  ==> Input File <==

--------------------------------------------------------------------------
set {
	reference rhf
	basis 6-31G*
}

set_num_threads( 1 )
memory 2 gb

molecule MOL {
0 1

O	 -1.927922	 -0.691696	 0.255410
C	 -1.083277	 0.139568	 0.115197
C	 0.323299	 -0.082943	 0.642902
C	 -1.371997	 1.458288	 -0.567041
C	 1.355627	 -0.005344	 -0.493127
H	 0.396251	 -1.044647	 1.143147
H	 0.528637	 0.693580	 1.371677
C	 2.786168	 -0.195604	 0.007473
H	 1.132807	 -0.760304	 -1.243899
H	 1.259610	 0.958506	 -0.981915
H	 3.495561	 -0.130713	 -0.811210
H	 2.912696	 -1.165395	 0.480041
H	 3.049284	 0.565503	 0.735850
H	 -1.046016	 2.290670	 0.049842
H	 -2.429956	 1.544952	 -0.771850
H	 -0.818146	 1.515150	 -1.500433

	symmetry c1
}
set optking {
	frozen_dihedral = ("
		9 5 3 2
	")
}

ee = energy('scf')
oeprop('DIPOLE', 'QUADRUPOLE', 'MULLIKEN_CHARGES')
f=open( 'psi4out.xyz', 'w' )
f.write( "16  " )
f.write( str(ee) + "\n" )
f.write( MOL.save_string_xyz() )
f.close()
--------------------------------------------------------------------------

    Molecular point group: c1

    Geometry (in Angstrom), charge = 0, multiplicity = 1:

       Center              X                  Y                   Z               Mass
    ------------   -----------------  -----------------  -----------------  -----------------
           O         -1.949159538862    -0.798654078341     0.266918852678    15.994914619560
           C         -1.104514538862     0.032609921659     0.126705852678    12.000000000000
           C          0.302061461138    -0.189901078341     0.654410852678    12.000000000000
           C         -1.393234538862     1.351329921659    -0.555532147322    12.000000000000
           C          1.334389461138    -0.112302078341    -0.481618147322    12.000000000000
           H          0.375013461138    -1.151605078341     1.154655852678     1.007825032070
           H          0.507399461138     0.586621921659     1.383185852678     1.007825032070
           C          2.764930461138    -0.302562078341     0.018981852678    12.000000000000
           H          1.111569461138    -0.867262078341    -1.232390147322     1.007825032070
           H          1.238372461138     0.851547921659    -0.970406147322     1.007825032070
           H          3.474323461138    -0.237671078341    -0.799701147322     1.007825032070
           H          2.891458461138    -1.272353078341     0.491549852678     1.007825032070
           H          3.028046461138     0.458544921659     0.747358852678     1.007825032070
           H         -1.067253538862     2.183711921659     0.061350852678     1.007825032070
           H         -2.451193538862     1.437993921659    -0.760341147322     1.007825032070
           H         -0.839383538862     1.408191921659    -1.488924147322     1.007825032070

  Charge       = 0
  Multiplicity = 1
  Basis Set: 6-31G*
  Basis Set:

    Orbital Energies (a.u.)
    -----------------------

    Doubly Occupied:

       1A    -20.547590     2A    -11.324316     3A    -11.235067
       4A    -11.230223     5A    -11.229060     6A    -11.221142
       7A     -1.392811     8A     -1.086850     9A     -1.011448
      10A     -0.950591    11A     -0.832197    12A     -0.735848
      13A     -0.658409    14A     -0.651489    15A     -0.616335
      16A     -0.607374    17A     -0.577846    18A     -0.554674
      19A     -0.536752    20A     -0.519630    21A     -0.506865
      22A     -0.486575    23A     -0.473157    24A     -0.397511

  @DF-RHF Final Energy:  -270.02857965280964

   => Energetics <=

    Nuclear Repulsion Energy =            237.6210789656097973
    One-Electron Energy =                -836.5317211466344816
    Two-Electron Energy =                 328.8820625282152719
    DFT Exchange-Correlation Energy =       0.0000000000000000
    Empirical Dispersion Energy =           0.0000000000000000
    PCM Polarization Energy =               0.0000000000000000
    EFP Energy =                            0.0000000000000000
    Total Energy =                       -270.0285796528094693

  Mulliken Charges: (a.u.)
   Center  Symbol    Alpha    Beta     Spin     Total
       1     O     4.26083  4.26083  0.00000 -0.52165
       2     C     2.73441  2.73441  0.00000  0.53118
       3     C     3.20055  3.20055  0.00000 -0.40110
       4     C     3.29162  3.29162  0.00000 -0.58324
       5     C     3.16717  3.16717  0.00000 -0.33433
       6     H     0.39927  0.39927  0.00000  0.20146
       7     H     0.41322  0.41322  0.00000  0.17355
       8     C     3.23895  3.23895  0.00000 -0.47790
       9     H     0.41236  0.41236  0.00000  0.17527
      10     H     0.41835  0.41835  0.00000  0.16330
      11     H     0.41583  0.41583  0.00000  0.16834
      12     H     0.41716  0.41716  0.00000  0.16567
      13     H     0.42003  0.42003  0.00000  0.15994
      14     H     0.40994  0.40994  0.00000  0.18012
      15     H     0.39511  0.39511  0.00000  0.20978
      16     H     0.40519  0.40519  0.00000  0.18962

   Total alpha = 24.00000, Total beta = 24.00000, Total charge =  0.00000
