                              Psi4 1.0.54 Driver

  ==> Input File <==

--------------------------------------------------------------------------
set {
	reference rhf
	basis cc-pvtz
}

set_num_threads( 4 )
memory 2 gb

molecule MOL {
0 1

H	 -1.835082	 1.385983	 0.000069
C	 -1.300516	 0.441153	 -0.000028
O	 -0.006604	 0.654344	 -0.000106
O	 -1.828920	 -0.612308	 0.000113
C	 0.469473	 1.839934	 0.630411
C	 1.973884	 1.859407	 0.499767
H	 0.158779	 1.833898	 1.665491
H	 0.016155	 2.696262	 0.151696
H	 2.413772	 0.994633	 0.980014
H	 2.368882	 2.751580	 0.970785
H	 2.270435	 1.861305	 -0.541397

	symmetry c1
}
set optking {
	frozen_dihedral = ("
		5 3 2 4
	")
}

ee,wfn = optimize('scf', return_wfn=True)
oeprop( wfn, 'DIPOLE', 'QUADRUPOLE', 'MULLIKEN_CHARGES')
f=open( 'psi4out.xyz', 'w' )
f.write( "11  " )
f.write( str(ee) + "\n" )
f.write( MOL.save_string_xyz() )
f.close()
--------------------------------------------------------------------------

    Molecular point group: c1
  Charge       = 0
  Multiplicity = 1
  Basis Set: CC-PVTZ
  Basis Set:
  @DF-RHF Final Energy:  -266.92018062368845
    Total Energy =                       -266.9201806236883954
    Molecular point group: c1
  Basis Set: CC-PVTZ
  Basis Set:
  Basis Set: CC-PVTZ
  Basis Set:
  @DF-RHF Final Energy:  -266.92109243314189
    Total Energy =                       -266.9210924331420642
  Basis Set: CC-PVTZ
  Basis Set:
  Basis Set: CC-PVTZ
  Basis Set:
  @DF-RHF Final Energy:  -266.92107617050328
    Total Energy =                       -266.9210761705031700
  Basis Set: CC-PVTZ
  Basis Set:
  Basis Set: CC-PVTZ
  Basis Set:
  @DF-RHF Final Energy:  -266.92144257382938
    Total Energy =                       -266.9214425738293812
  Basis Set: CC-PVTZ
  Basis Set:
  Basis Set: CC-PVTZ
  Basis Set:
  @DF-RHF Final Energy:  -266.92146035292649
    Total Energy =                       -266.9214603529266014
  Basis Set: CC-PVTZ
  Basis Set:
  Basis Set: CC-PVTZ
  Basis Set:
  @DF-RHF Final Energy:  -266.92146349923502
    Total Energy =                       -266.9214634992351307
  Basis Set: CC-PVTZ
  Basis Set:
  Charge       = 0
  Multiplicity = 1
  Basis Set: CC-PVTZ
  Basis Set:

    Orbital Energies (a.u.)
    -----------------------

    Doubly Occupied:

       1A    -20.602119     2A    -20.547594     3A    -11.372150
       4A    -11.304319     5A    -11.231497     6A     -1.475582
       7A     -1.384122     8A     -1.055606     9A     -0.889977
      10A     -0.846377    11A     -0.742151    12A     -0.695249
      13A     -0.667211    14A     -0.617659    15A     -0.572154
      16A     -0.558321    17A     -0.537824    18A     -0.517548
      19A     -0.463296    20A     -0.453797

  @DF-RHF Final Energy:  -266.92146377654797

   => Energetics <=

    Nuclear Repulsion Energy =            176.6959410108692055
    One-Electron Energy =                -714.1656997694237816
    Two-Electron Energy =                 270.5482949820066665
    DFT Exchange-Correlation Energy =       0.0000000000000000
    Empirical Dispersion Energy =           0.0000000000000000
    PCM Polarization Energy =               0.0000000000000000
    EFP Energy =                            0.0000000000000000
    Total Energy =                       -266.9214637765479097
    Molecular point group: c1
  Basis Set: CC-PVTZ
  Basis Set:

  -Total Gradient:
     Atom            X                  Y                   Z
    ------   -----------------  -----------------  -----------------
       1        0.000028733394    -0.000057497330     0.000010460380
       2        0.000671201079    -0.001712886381    -0.005103799316
       3        0.000230094968     0.002334156141    -0.002859083498
       4       -0.000584588541     0.000775926009     0.004548226765
       5       -0.000315210518    -0.001317607489     0.003437397377
       6       -0.000031025844    -0.000033910380    -0.000022950556
       7        0.000018319824     0.000023778136     0.000002100471
       8        0.000007900710    -0.000013113058    -0.000013094750
       9       -0.000005457393     0.000004297464    -0.000002497762
      10       -0.000020864729    -0.000002957276    -0.000000009598
      11        0.000000897047    -0.000000185836     0.000003250486

  **** Optimization is complete! (in 7 steps) ****
    Final optimized geometry and variables:
    Molecular point group: c1

    Geometry (in Angstrom), charge = 0, multiplicity = 1:

    H           -1.670897268628     0.577738018801    -0.480440806979
    C           -1.165280350790    -0.367866066465    -0.278558284538
    O            0.140041300963    -0.244982083059    -0.113315406169
    O           -1.733732916943    -1.390591292725    -0.209719042815
    C            0.632173496244     0.972544574050     0.416386967195
    C            2.123492220116     1.027339881280     0.182860164943
    H            0.405947341557     1.009388867687     1.475231566651
    H            0.136398840741     1.808652329851    -0.066184638222
    H            2.612684676300     0.188022012905     0.659018731705
    H            2.527303813066     1.943464598307     0.596910088540
    H            2.345158967185     0.998307187645    -0.876130985122

  Mulliken Charges: (a.u.)
   Center  Symbol    Alpha    Beta     Spin     Total
       1     H     0.47604  0.47604  0.00000  0.04792
       2     C     2.84362  2.84362  0.00000  0.31275
       3     O     4.12977  4.12977  0.00000 -0.25954
       4     O     4.17216  4.17216  0.00000 -0.34433
       5     C     2.97682  2.97682  0.00000  0.04636
       6     C     3.13254  3.13254  0.00000 -0.26508
       7     H     0.45651  0.45651  0.00000  0.08698
       8     H     0.46319  0.46319  0.00000  0.07362
       9     H     0.44501  0.44501  0.00000  0.10998
      10     H     0.45543  0.45543  0.00000  0.08914
      11     H     0.44890  0.44890  0.00000  0.10219

   Total alpha = 20.00000, Total beta = 20.00000, Total charge = -0.00000

*** Psi4 exiting successfully. Buy a developer a beer!
