  ==> Input File <==

--------------------------------------------------------------------------
set {
	reference rhf
	basis 6-31G*
}

set_num_threads( 4 )
memory 2 gb

molecule MOL {
0 1

H	 2.591676	 2.013956	 0.335017
O	 3.341076	 1.666752	 -0.126416
C	 3.569581	 0.339145	 0.272707
C	 2.539767	 -0.640285	 -0.279495
H	 4.553106	 0.084646	 -0.100901
H	 3.608576	 0.269204	 1.359154
C	 1.115811	 -0.397273	 0.226630
H	 2.556196	 -0.582511	 -1.364741
H	 2.852081	 -1.648031	 -0.010655
C	 0.047630	 -0.857839	 -0.769204
H	 0.986301	 0.661333	 0.433862
H	 0.972966	 -0.921697	 1.171572
C	 -1.396861	 -0.715658	 -0.275675
H	 0.165465	 -0.307197	 -1.700737
H	 0.227512	 -1.903296	 -1.010788
C	 -1.870651	 0.726604	 -0.075971
H	 -2.053249	 -1.199544	 -0.995971
H	 -1.513991	 -1.266204	 0.656536
C	 -3.347218	 0.820346	 0.314412
H	 -1.706458	 1.288812	 -0.994162
H	 -1.273235	 1.214053	 0.690703
C	 -3.821093	 2.258602	 0.520634
H	 -3.953674	 0.347806	 -0.455266
H	 -3.515099	 0.251122	 1.226380
H	 -3.696545	 2.846038	 -0.384700
H	 -4.871170	 2.291793	 0.794259
H	 -3.258193	 2.747841	 1.310668

	symmetry c1
}
set optking {
	frozen_dihedral = ("
		10 7 4 8
	")
}

ee = optimize('scf')
oeprop('DIPOLE', 'QUADRUPOLE', 'MULLIKEN_CHARGES')
f=open( 'psi4out.xyz', 'w' )
f.write( "27  " )
f.write( str(ee) + "\n" )
f.write( MOL.save_string_xyz() )
f.close()
--------------------------------------------------------------------------

    Molecular point group: c1
  Charge       = 0
  Multiplicity = 1
  Basis Set: 6-31G*
  Basis Set:
  @DF-RHF Final Energy:  -388.27887624381373
    Total Energy =                       -388.2788762438135564
    Molecular point group: c1
  Basis Set: 6-31G*
  Basis Set:
  Basis Set: 6-31G*
  Basis Set:
  @DF-RHF Final Energy:  -388.27905084956154
    Total Energy =                       -388.2790508495613722
  Basis Set: 6-31G*
  Basis Set:
  Basis Set: 6-31G*
  Basis Set:
  @DF-RHF Final Energy:  -388.27924992192305
    Total Energy =                       -388.2792499219225419
  Basis Set: 6-31G*
  Basis Set:
  Basis Set: 6-31G*
  Basis Set:
  @DF-RHF Final Energy:  -388.27926512243386
    Total Energy =                       -388.2792651224340261
  Basis Set: 6-31G*
  Basis Set:
  Basis Set: 6-31G*
  Basis Set:
  @DF-RHF Final Energy:  -388.27926919973862
    Total Energy =                       -388.2792691997381098
  Basis Set: 6-31G*
  Basis Set:
  Charge       = 0
  Multiplicity = 1
  Basis Set: 6-31G*
  Basis Set:

    Orbital Energies (a.u.)
    -----------------------

    Doubly Occupied:

       1A    -20.551966     2A    -11.267319     3A    -11.220441
       4A    -11.217038     5A    -11.216336     6A    -11.215531
       7A    -11.215159     8A    -11.214664     9A    -11.209736
      10A     -1.358874    11A     -1.095018    12A     -1.061081
      13A     -1.011468    14A     -0.948784    15A     -0.888044
      16A     -0.820329    17A     -0.802910    18A     -0.778161
      19A     -0.692352    20A     -0.653518    21A     -0.640464
      22A     -0.612487    23A     -0.596165    24A     -0.583250
      25A     -0.580551    26A     -0.553226    27A     -0.540188
      28A     -0.534974    29A     -0.508092    30A     -0.491579
      31A     -0.486375    32A     -0.469745    33A     -0.468896
      34A     -0.460869    35A     -0.454012    36A     -0.441091
      37A     -0.423606

  @DF-RHF Final Energy:  -388.27926956096672

   => Energetics <=

    Nuclear Repulsion Energy =            460.7953950095225650
    One-Electron Energy =               -1439.5807314709131788
    Two-Electron Energy =                 590.5060669004233205
    DFT Exchange-Correlation Energy =       0.0000000000000000
    Empirical Dispersion Energy =           0.0000000000000000
    PCM Polarization Energy =               0.0000000000000000
    EFP Energy =                            0.0000000000000000
    Total Energy =                       -388.2792695609673501
    Molecular point group: c1
  Basis Set: 6-31G*
  Basis Set:

  -Total Gradient:
     Atom            X                  Y                   Z
    ------   -----------------  -----------------  -----------------
       1        0.000013591629    -0.000003274235     0.000005184576
       2       -0.000025422544     0.000020160956    -0.000008469315
       3       -0.000031091190    -0.000018704341     0.000003763466
       4        0.000989942437     0.005919441066    -0.000372782615
       5        0.000005802878    -0.000010912534     0.000003698424
       6       -0.000002393567    -0.000002279413    -0.000010980378
       7       -0.000257609368    -0.004474951400     0.001768521418
       8       -0.000831694136    -0.003921554390    -0.000111594026
       9        0.000006240464    -0.000020255202     0.000034569439
      10        0.000095197034     0.002541584638    -0.001274183001
      11        0.000006253035     0.000015575367    -0.000010013340
      12        0.000006226799    -0.000052606496     0.000007732985
      13        0.000010543238     0.000005190043    -0.000022332014
      14       -0.000004772898     0.000005341088     0.000016618897
      15       -0.000023297134    -0.000013991946     0.000000601322
      16        0.000002203480     0.000017372323    -0.000020347144
      17        0.000022253090    -0.000013888113    -0.000021668261
      18       -0.000001562172     0.000003488824    -0.000009102459
      19        0.000002055166    -0.000002807872     0.000017179954
      20       -0.000016619358     0.000005729758    -0.000007541777
      21        0.000030436720     0.000005023630    -0.000003282770
      22        0.000005361089    -0.000000988837     0.000009910948
      23        0.000004680163     0.000007094906     0.000001042414
      24       -0.000006160961    -0.000008921827     0.000004197909
      25        0.000001905235    -0.000001565526    -0.000000793297
      26       -0.000000268875    -0.000000907610    -0.000000024268
      27       -0.000001800264     0.000001607144     0.000000092911

  **** Optimization is complete! (in 6 steps) ****
    Final optimized geometry and variables:
    Molecular point group: c1

    Geometry (in Angstrom), charge = 0, multiplicity = 1:

    H            2.654207860233     1.655557605584     0.222505933535
    O            3.402383968784     1.233163401288    -0.173088923101
    C            3.522265515173    -0.079281787589     0.313217577932
    C            2.466139837080    -1.025796873756    -0.243772508725
    H            4.506266028054    -0.414131798020     0.011484202791
    H            3.498140515249    -0.087349637044     1.402304907852
    C            1.033344263848    -0.742502164064     0.233737104310
    H            2.507837832803    -1.008533663280    -1.329333855046
    H            2.737796008403    -2.040699712259     0.042719189461
    C           -0.027207659124    -1.221988973153    -0.761427275175
    H            0.903457403666     0.326401148577     0.385899040805
    H            0.871533182884    -1.206614128508     1.204298823910
    C           -1.474525279211    -1.098870897928    -0.272449927162
    H            0.089516616986    -0.670026594173    -1.691824041988
    H            0.166271942748    -2.265642263961    -1.002664182597
    C           -1.959495840127     0.336299217848    -0.049505439484
    H           -2.124061015668    -1.575383568007    -1.003798543117
    H           -1.591526861528    -1.665640515021     0.649914477591
    C           -3.438933421007     0.412903069434     0.333673967935
    H           -1.793724871264     0.916789901492    -0.956109673363
    H           -1.370147818866     0.812763261424     0.730396831271
    C           -3.923339281289     1.843652208043     0.565893061392
    H           -4.037571860163    -0.047829577256    -0.449120872443
    H           -3.608531737516    -0.175644879193     1.232949609270
    H           -3.796745884203     2.450147082887    -0.326513453240
    H           -4.975359595084     1.864679522132     0.833108760837
    H           -3.368852230169     2.320194725210     1.369552468975

  Mulliken Charges: (a.u.)
   Center  Symbol    Alpha    Beta     Spin     Total
       1     H     0.27957  0.27957  0.00000  0.44087
       2     O     4.37092  4.37092  0.00000 -0.74184
       3     C     2.99810  2.99810  0.00000  0.00380
       4     C     3.16344  3.16344  0.00000 -0.32689
       5     H     0.41451  0.41451  0.00000  0.17099
       6     H     0.43198  0.43198  0.00000  0.13604
       7     C     3.15771  3.15771  0.00000 -0.31543
       8     H     0.41358  0.41358  0.00000  0.17284
       9     H     0.42325  0.42325  0.00000  0.15349
      10     C     3.15412  3.15412  0.00000 -0.30823
      11     H     0.43184  0.43184  0.00000  0.13632
      12     H     0.42095  0.42095  0.00000  0.15810
      13     C     3.15369  3.15369  0.00000 -0.30739
      14     H     0.42031  0.42031  0.00000  0.15938
      15     H     0.42104  0.42104  0.00000  0.15792
      16     C     3.15281  3.15281  0.00000 -0.30561
      17     H     0.42114  0.42114  0.00000  0.15771
      18     H     0.42400  0.42400  0.00000  0.15201
      19     C     3.15111  3.15111  0.00000 -0.30222
      20     H     0.42381  0.42381  0.00000  0.15238
      21     H     0.42405  0.42405  0.00000  0.15190
      22     C     3.23923  3.23923  0.00000 -0.47845
      23     H     0.42268  0.42268  0.00000  0.15465
      24     H     0.42312  0.42312  0.00000  0.15377
      25     H     0.42152  0.42152  0.00000  0.15696
      26     H     0.41908  0.41908  0.00000  0.16185
      27     H     0.42246  0.42246  0.00000  0.15508

   Total alpha = 37.00000, Total beta = 37.00000, Total charge = -0.00000
