                              Psi4 1.0.54 Driver

  ==> Input File <==

--------------------------------------------------------------------------
set {
	reference rhf
	basis cc-pvtz
}

set_num_threads( 4 )
memory 2 gb

molecule MOL {
0 1

H	 -3.411058	 -0.219083	 0.303752
O	 -2.658848	 -0.704215	 -0.000460
C	 -1.605397	 0.107680	 0.001145
C	 -0.310616	 -0.658853	 0.000791
O	 -1.718351	 1.284629	 -0.000627
C	 0.926581	 0.227233	 0.000178
H	 -0.327628	 -1.313681	 -0.864448
H	 -0.327041	 -1.313334	 0.866298
C	 2.220156	 -0.582071	 -0.000088
H	 0.899945	 0.878221	 -0.866390
H	 0.900542	 0.878581	 0.866486
C	 3.466689	 0.296012	 -0.000457
H	 2.239073	 -1.234095	 -0.869382
H	 2.239505	 -1.233985	 0.869270
H	 3.493549	 0.935857	 -0.875887
H	 4.368821	 -0.304526	 -0.001199
H	 3.494559	 0.935166	 0.875458

	symmetry c1
}
set optking {
	frozen_dihedral = ("
		1 2 3 5
	")
}

ee,wfn = optimize('scf', return_wfn=True)
oeprop( wfn, 'DIPOLE', 'QUADRUPOLE', 'MULLIKEN_CHARGES')
f=open( 'psi4out.xyz', 'w' )
f.write( "17  " )
f.write( str(ee) + "\n" )
f.write( MOL.save_string_xyz() )
f.close()
--------------------------------------------------------------------------

    Molecular point group: c1
  Charge       = 0
  Multiplicity = 1
  Basis Set: CC-PVTZ
  Basis Set:
  @DF-RHF Final Energy:  -345.04660995765244
    Total Energy =                       -345.0466099576523220
    Molecular point group: c1
  Basis Set: CC-PVTZ
  Basis Set:
  Basis Set: CC-PVTZ
  Basis Set:
  @DF-RHF Final Energy:  -345.04359659460533
    Total Energy =                       -345.0435965946052761
  Basis Set: CC-PVTZ
  Basis Set:
  Basis Set: CC-PVTZ
  Basis Set:
  @DF-RHF Final Energy:  -345.04676407770165
    Total Energy =                       -345.0467640777015390
  Basis Set: CC-PVTZ
  Basis Set:
  Basis Set: CC-PVTZ
  Basis Set:
  @DF-RHF Final Energy:  -345.04680643800498
    Total Energy =                       -345.0468064380050919
  Basis Set: CC-PVTZ
  Basis Set:
  Basis Set: CC-PVTZ
  Basis Set:
  @DF-RHF Final Energy:  -345.04681345183894
    Total Energy =                       -345.0468134518388865
  Basis Set: CC-PVTZ
  Basis Set:
  Basis Set: CC-PVTZ
  Basis Set:
  @DF-RHF Final Energy:  -345.04681701742203
    Total Energy =                       -345.0468170174220859
  Basis Set: CC-PVTZ
  Basis Set:
  Charge       = 0
  Multiplicity = 1
  Basis Set: CC-PVTZ
  Basis Set:

    Orbital Energies (a.u.)
    -----------------------

    Doubly Occupied:

       1A    -20.602456     2A    -20.541646     3A    -11.373793
       4A    -11.239249     5A    -11.221271     6A    -11.220647
       7A    -11.210694     8A     -1.475850     9A     -1.369616
      10A     -1.092799    11A     -1.019638    12A     -0.914510
      13A     -0.824906    14A     -0.791329    15A     -0.704514
      16A     -0.687300    17A     -0.670917    18A     -0.632786
      19A     -0.593066    20A     -0.585741    21A     -0.570883
      22A     -0.538701    23A     -0.509570    24A     -0.486876
      25A     -0.481735    26A     -0.478072    27A     -0.472698
      28A     -0.446136

  @DF-RHF Final Energy:  -345.04681711357955

   => Energetics <=

    Nuclear Repulsion Energy =            304.7143245230114417
    One-Electron Energy =               -1074.0074842954370524
    Two-Electron Energy =                 424.2463426588462880
    DFT Exchange-Correlation Energy =       0.0000000000000000
    Empirical Dispersion Energy =           0.0000000000000000
    PCM Polarization Energy =               0.0000000000000000
    EFP Energy =                            0.0000000000000000
    Total Energy =                       -345.0468171135793227
    Molecular point group: c1
  Basis Set: CC-PVTZ
  Basis Set:

  -Total Gradient:
     Atom            X                  Y                   Z
    ------   -----------------  -----------------  -----------------
       1        0.000957611409    -0.002161847406     0.006462175896
       2       -0.001031085683     0.002749432223    -0.010962669609
       3       -0.000377065639    -0.000983758457     0.010948383740
       4        0.000016564721     0.000010667895    -0.000058329288
       5        0.000465422329     0.000365472900    -0.006332774049
       6       -0.000012319670     0.000008248718    -0.000026267783
       7       -0.000001608195     0.000021950552    -0.000025335037
       8       -0.000011424043    -0.000011570814    -0.000020194686
       9       -0.000001457841    -0.000006784339     0.000003861055
      10        0.000001452364     0.000005772004     0.000001014629
      11       -0.000000648331     0.000002573345     0.000007157241
      12       -0.000005380614     0.000003348183     0.000001839406
      13       -0.000001657938    -0.000000357555    -0.000000517228
      14        0.000002865682    -0.000002587724     0.000000429711
      15       -0.000000448247    -0.000000352110    -0.000000158653
      16       -0.000002316714    -0.000001951938     0.000000689875
      17        0.000001496415     0.000001744523     0.000000694780

  **** Optimization is complete! (in 7 steps) ****
    Final optimized geometry and variables:
    Molecular point group: c1

    Geometry (in Angstrom), charge = 0, multiplicity = 1:

    H           -3.433410739645    -0.235574290406     0.200016969837
    O           -2.659378473543    -0.700916602252    -0.078171511484
    C           -1.605790867018     0.108876448703     0.031621346702
    C           -0.311144019492    -0.657277017735     0.015398730137
    O           -1.716855161885     1.284081944897     0.081889780620
    C            0.926563818557     0.227658091372    -0.005216931087
    H           -0.341099565514    -1.317874135194    -0.844791067074
    H           -0.316467327832    -1.306538200836     0.885484353843
    C            2.219546159569    -0.582500923940    -0.015812730576
    H            0.890311560153     0.873032579048    -0.875869856066
    H            0.910994567339     0.884603626274     0.856928541584
    C            3.466492406695     0.294694029991    -0.036945699290
    H            2.227652893523    -1.240317947505    -0.880851990778
    H            2.248900163994    -1.228542347465     0.857672779628
    H            3.483629231965     0.928068129376    -0.917313238519
    H            4.368192774004    -0.306461866035    -0.043715564399
    H            3.504791532762     0.940240385611     0.833870133607

  Mulliken Charges: (a.u.)
   Center  Symbol    Alpha    Beta     Spin     Total
       1     H     0.38149  0.38149  0.00000  0.23703
       2     O     4.16265  4.16265  0.00000 -0.32530
       3     C     2.80508  2.80508  0.00000  0.38983
       4     C     3.11061  3.11061  0.00000 -0.22121
       5     O     4.18796  4.18796  0.00000 -0.37592
       6     C     3.08235  3.08235  0.00000 -0.16470
       7     H     0.43743  0.43743  0.00000  0.12514
       8     H     0.43992  0.43992  0.00000  0.12016
       9     C     3.08589  3.08589  0.00000 -0.17179
      10     H     0.44656  0.44656  0.00000  0.10687
      11     H     0.44583  0.44583  0.00000  0.10835
      12     C     3.14922  3.14922  0.00000 -0.29845
      13     H     0.45468  0.45468  0.00000  0.09064
      14     H     0.45499  0.45499  0.00000  0.09002
      15     H     0.45362  0.45362  0.00000  0.09276
      16     H     0.44801  0.44801  0.00000  0.10397
      17     H     0.45370  0.45370  0.00000  0.09259

   Total alpha = 28.00000, Total beta = 28.00000, Total charge =  0.00000

*** Psi4 exiting successfully. Buy a developer a beer!
