  ==> Input File <==

--------------------------------------------------------------------------
set {
	reference rhf
	basis cc-pvtz
}

set_num_threads( 4 )
memory 2 gb

molecule MOL {
0 1

H	 -2.564233	 1.857287	 1.760576
C	 -2.055369	 0.970447	 2.131328
O	 -0.771436	 0.867159	 1.613266
H	 -1.973610	 1.040470	 3.206177
H	 -2.658341	 0.098929	 1.882803
C	 -0.718530	 0.758693	 0.228682
C	 0.718529	 0.758687	 -0.228709
H	 -1.192096	 -0.167886	 -0.095598
H	 -1.243765	 1.586589	 -0.242642
O	 1.401606	 -0.295166	 0.366636
H	 0.748705	 0.673477	 -1.312803
H	 1.176496	 1.708671	 0.046552
C	 2.714315	 -0.441627	 -0.061017
H	 2.765292	 -0.641548	 -1.128869
H	 3.305661	 0.447341	 0.150952
H	 3.143725	 -1.278506	 0.470147

	symmetry c1
}
set optking {
	frozen_dihedral = ("
		3 6 7 11
	")
}

ee = optimize('scf')
oeprop('DIPOLE', 'QUADRUPOLE', 'MULLIKEN_CHARGES')
f=open( 'psi4out.xyz', 'w' )
f.write( "16  " )
f.write( str(ee) + "\n" )
f.write( MOL.save_string_xyz() )
f.close()
--------------------------------------------------------------------------

    Molecular point group: c1
  Charge       = 0
  Multiplicity = 1
  Basis Set: CC-PVTZ
  Basis Set:
  @DF-RHF Final Energy:  -307.09666025259219
    Total Energy =                       -307.0966602525923008
    Molecular point group: c1
  Basis Set: CC-PVTZ
  Basis Set:
  Basis Set: CC-PVTZ
  Basis Set:
  @DF-RHF Final Energy:  -307.09703510863744
    Total Energy =                       -307.0970351086372716
  Basis Set: CC-PVTZ
  Basis Set:
  Basis Set: CC-PVTZ
  Basis Set:
  @DF-RHF Final Energy:  -307.09710407269478
    Total Energy =                       -307.0971040726949468
  Basis Set: CC-PVTZ
  Basis Set:
  Charge       = 0
  Multiplicity = 1
  Basis Set: CC-PVTZ
  Basis Set:

    Orbital Energies (a.u.)
    -----------------------

    Doubly Occupied:

       1A    -20.547168     2A    -20.546647     3A    -11.268174
       4A    -11.267483     5A    -11.261331     6A    -11.261138
       7A     -1.392174     8A     -1.373484     9A     -1.031856
      10A     -0.936228    11A     -0.893742    12A     -0.822393
      13A     -0.688247    14A     -0.681129    15A     -0.659752
      16A     -0.640524    17A     -0.628172    18A     -0.597304
      19A     -0.557909    20A     -0.531108    21A     -0.509520
      22A     -0.478035    23A     -0.465543    24A     -0.419918
      25A     -0.415233

  @DF-RHF Final Energy:  -307.09710534469991

   => Energetics <=

    Nuclear Repulsion Energy =            259.5870425719405148
    One-Electron Energy =                -933.6198679081953742
    Two-Electron Energy =                 366.9357199915546062
    DFT Exchange-Correlation Energy =       0.0000000000000000
    Empirical Dispersion Energy =           0.0000000000000000
    PCM Polarization Energy =               0.0000000000000000
    EFP Energy =                            0.0000000000000000
    Total Energy =                       -307.0971053447002532
    Molecular point group: c1
  Basis Set: CC-PVTZ
  Basis Set:

  -Total Gradient:
     Atom            X                  Y                   Z
    ------   -----------------  -----------------  -----------------
       1       -0.000010619347    -0.000004217968     0.000010067870
       2        0.000006498975     0.000031151022    -0.000041684591
       3       -0.000007159420    -0.002943346191     0.000361636704
       4        0.000009242712    -0.000010969004    -0.000005055436
       5       -0.000010756662    -0.000012804936     0.000006232285
       6        0.000014314149     0.002996952090    -0.000389232566
       7        0.000053172314     0.003621089806    -0.000326530123
       8        0.000005224263     0.000013175709     0.000004233055
       9        0.000010846032     0.000023657437     0.000029661448
      10       -0.000009003075     0.000020615632     0.000035834752
      11       -0.000034283162    -0.003727586070     0.000366397115
      12       -0.000021302882    -0.000013368330    -0.000011329014
      13       -0.000009015616    -0.000016031026    -0.000061547229
      14        0.000028278835     0.000000726172    -0.000003078621
      15       -0.000007440666     0.000003590038     0.000012194864
      16       -0.000017996451     0.000017365620     0.000012199487

  **** Optimization is complete! (in 4 steps) ****
    Final optimized geometry and variables:
    Molecular point group: c1

    Geometry (in Angstrom), charge = 0, multiplicity = 1:

    H           -2.848043305061     1.322752415210     1.082976933467
    C           -2.242527005916     0.506748166584     1.473302121722
    O           -0.965492105141     0.511717501383     0.929128112721
    H           -2.146427833217     0.626619604005     2.542495197716
    H           -2.757388055678    -0.429966407121     1.271324784896
    C           -0.931343055594     0.362665162187    -0.450295576075
    C            0.497967440327     0.309957528111    -0.931138197344
    H           -1.438979394613    -0.555072657096    -0.742195647024
    H           -1.435950948654     1.194134286918    -0.942585841241
    O            1.145276680339    -0.777191903248    -0.356171872968
    H            0.488778309492     0.192869542163    -2.015032663787
    H            1.009522775480     1.237278295225    -0.682981939909
    C            2.484969056629    -0.891820105437    -0.700507434803
    H            2.614102075953    -1.012831752303    -1.774688688906
    H            3.054068599515    -0.021013264140    -0.382520890300
    H            2.880419345051    -1.765316190566    -0.203061220726

  Mulliken Charges: (a.u.)
   Center  Symbol    Alpha    Beta     Spin     Total
       1     H     0.47362  0.47362  0.00000  0.05276
       2     C     3.03189  3.03189  0.00000 -0.06377
       3     O     4.16748  4.16748  0.00000 -0.33495
       4     H     0.44608  0.44608  0.00000  0.10785
       5     H     0.47094  0.47094  0.00000  0.05812
       6     C     2.96199  2.96199  0.00000  0.07601
       7     C     2.96295  2.96295  0.00000  0.07411
       8     H     0.47209  0.47209  0.00000  0.05582
       9     H     0.47577  0.47577  0.00000  0.04846
      10     O     4.16773  4.16773  0.00000 -0.33545
      11     H     0.47580  0.47580  0.00000  0.04840
      12     H     0.47077  0.47077  0.00000  0.05847
      13     C     3.03172  3.03172  0.00000 -0.06344
      14     H     0.47405  0.47405  0.00000  0.05189
      15     H     0.47097  0.47097  0.00000  0.05805
      16     H     0.44616  0.44616  0.00000  0.10768

   Total alpha = 25.00000, Total beta = 25.00000, Total charge = -0.00000
