  ==> Input File <==

--------------------------------------------------------------------------
set {
	reference rhf
	basis 6-31G*
}

set_num_threads( 1 )
memory 2 gb

molecule MOL {
0 1

O	 -1.276010	 1.052711	 -0.768302
C	 -1.204840	 0.067374	 -0.106123
C	 -2.388195	 -0.672128	 0.458071
O	 -0.067104	 -0.527208	 0.221609
H	 -2.388023	 -1.694060	 0.097175
H	 -3.300579	 -0.174919	 0.164318
H	 -2.315377	 -0.706351	 1.539059
C	 0.068195	 -1.939074	 0.006531
C	 1.113186	 -2.413971	 1.000540
C	 0.458026	 -2.203444	 -1.439424
H	 -0.885549	 -2.399741	 0.217874
H	 0.804365	 -2.192610	 2.015861
H	 1.254115	 -3.486105	 0.911104
H	 2.064949	 -1.926408	 0.818656
H	 0.584495	 -3.268941	 -1.602942
H	 -0.308911	 -1.846893	 -2.115186
H	 1.394029	 -1.707742	 -1.676458

	symmetry c1
}
set optking {
	frozen_dihedral = ("
		11 8 4 2
	")
}

ee = energy('scf')
oeprop('DIPOLE', 'QUADRUPOLE', 'MULLIKEN_CHARGES')
f=open( 'psi4out.xyz', 'w' )
f.write( "17  " )
f.write( str(ee) + "\n" )
f.write( MOL.save_string_xyz() )
f.close()
--------------------------------------------------------------------------

    Molecular point group: c1

    Geometry (in Angstrom), charge = 0, multiplicity = 1:

       Center              X                  Y                   Z               Mass
    ------------   -----------------  -----------------  -----------------  -----------------
           O         -0.805272762033     2.003891289900    -0.676825645647    15.994914619560
           C         -0.734102762033     1.018554289900    -0.014646645647    12.000000000000
           C         -1.917457762033     0.279052289900     0.549547354353    12.000000000000
           O          0.403633237967     0.423972289900     0.313085354353    15.994914619560
           H         -1.917285762033    -0.742879710100     0.188651354353     1.007825032070
           H         -2.829841762033     0.776261289900     0.255794354353     1.007825032070
           H         -1.844639762033     0.244829289900     1.630535354353     1.007825032070
           C          0.538932237967    -0.987893710100     0.098007354353    12.000000000000
           C          1.583923237967    -1.462790710100     1.092016354353    12.000000000000
           C          0.928763237967    -1.252263710100    -1.347947645647    12.000000000000
           H         -0.414811762033    -1.448560710100     0.309350354353     1.007825032070
           H          1.275102237967    -1.241429710100     2.107337354353     1.007825032070
           H          1.724852237967    -2.534924710100     1.002580354353     1.007825032070
           H          2.535686237967    -0.975227710100     0.910132354353     1.007825032070
           H          1.055232237967    -2.317760710100    -1.511465645647     1.007825032070
           H          0.161826237967    -0.895712710100    -2.023709645647     1.007825032070
           H          1.864766237967    -0.756561710100    -1.584981645647     1.007825032070

  Charge       = 0
  Multiplicity = 1
  Basis Set: 6-31G*
  Basis Set:

    Orbital Energies (a.u.)
    -----------------------

    Doubly Occupied:

       1A    -20.591170     2A    -20.548035     3A    -11.375506
       4A    -11.305017     5A    -11.234958     6A    -11.227227
       7A    -11.226896     8A     -1.461392     9A     -1.367001
      10A     -1.079516    11A     -1.017180    12A     -0.958001
      13A     -0.859078    14A     -0.775151    15A     -0.698130
      16A     -0.672720    17A     -0.661524    18A     -0.626764
      19A     -0.592980    20A     -0.589510    21A     -0.562830
      22A     -0.555870    23A     -0.547144    24A     -0.524116
      25A     -0.512843    26A     -0.481224    27A     -0.448259
      28A     -0.432766

  @DF-RHF Final Energy:  -344.88725957167236

   => Energetics <=

    Nuclear Repulsion Energy =            324.7856528963675942
    One-Electron Energy =               -1113.4801295272914103
    Two-Electron Energy =                 443.8072170592511725
    DFT Exchange-Correlation Energy =       0.0000000000000000
    Empirical Dispersion Energy =           0.0000000000000000
    PCM Polarization Energy =               0.0000000000000000
    EFP Energy =                            0.0000000000000000
    Total Energy =                       -344.8872595716727005

  Mulliken Charges: (a.u.)
   Center  Symbol    Alpha    Beta     Spin     Total
       1     O     4.26256  4.26256  0.00000 -0.52512
       2     C     2.61567  2.61567  0.00000  0.76866
       3     C     3.30550  3.30550  0.00000 -0.61101
       4     O     4.30914  4.30914  0.00000 -0.61829
       5     H     0.40455  0.40455  0.00000  0.19090
       6     H     0.39385  0.39385  0.00000  0.21229
       7     H     0.39920  0.39920  0.00000  0.20160
       8     C     2.93590  2.93590  0.00000  0.12820
       9     C     3.23970  3.23970  0.00000 -0.47941
      10     C     3.24232  3.24232  0.00000 -0.48463
      11     H     0.41898  0.41898  0.00000  0.16204
      12     H     0.41126  0.41126  0.00000  0.17749
      13     H     0.41846  0.41846  0.00000  0.16309
      14     H     0.40791  0.40791  0.00000  0.18419
      15     H     0.41751  0.41751  0.00000  0.16498
      16     H     0.41181  0.41181  0.00000  0.17638
      17     H     0.40568  0.40568  0.00000  0.18864

   Total alpha = 28.00000, Total beta = 28.00000, Total charge =  0.00000
