  ==> Input File <==

--------------------------------------------------------------------------
set {
	reference rhf
	basis 6-31G*
}

set_num_threads( 1 )
memory 2 gb

molecule MOL {
0 1

H	 2.176868	 -0.646004	 -0.217325
O	 1.337496	 -0.537251	 0.205931
C	 0.702312	 0.627605	 -0.264544
C	 -0.714990	 0.596302	 0.266387
H	 0.682322	 0.642550	 -1.350929
H	 1.215941	 1.520383	 0.085680
O	 -1.405996	 -0.526611	 -0.195820
H	 -1.257453	 1.468809	 -0.075599
H	 -0.688972	 0.618407	 1.353696
H	 -1.673127	 -1.032884	 0.560714

	symmetry c1
}
set optking {
	frozen_dihedral = ("
		5 3 4 7
	")
}

ee = energy('scf')
oeprop('DIPOLE', 'QUADRUPOLE', 'MULLIKEN_CHARGES')
f=open( 'psi4out.xyz', 'w' )
f.write( "10  " )
f.write( str(ee) + "\n" )
f.write( MOL.save_string_xyz() )
f.close()
--------------------------------------------------------------------------

    Molecular point group: c1

    Geometry (in Angstrom), charge = 0, multiplicity = 1:

       Center              X                  Y                   Z               Mass
    ------------   -----------------  -----------------  -----------------  -----------------
           H          2.189580518902    -0.650225420667    -0.226075698419     1.007825032070
           O          1.350208518902    -0.541472420667     0.197180301581    15.994914619560
           C          0.715024518902     0.623383579333    -0.273294698419    12.000000000000
           C         -0.702277481098     0.592080579333     0.257636301581    12.000000000000
           H          0.695034518902     0.638328579333    -1.359679698419     1.007825032070
           H          1.228653518902     1.516161579333     0.076929301581     1.007825032070
           O         -1.393283481098    -0.530832420667    -0.204570698419    15.994914619560
           H         -1.244740481098     1.464587579333    -0.084349698419     1.007825032070
           H         -0.676259481098     0.614185579333     1.344945301581     1.007825032070
           H         -1.660414481098    -1.037105420667     0.551963301581     1.007825032070

  Charge       = 0
  Multiplicity = 1
  Basis Set: 6-31G*
  Basis Set:

    Orbital Energies (a.u.)
    -----------------------

    Doubly Occupied:

       1A    -20.553668     2A    -20.549961     3A    -11.269914
       4A    -11.268596     5A     -1.371224     6A     -1.347878
       7A     -0.999409     8A     -0.833011     9A     -0.716498
      10A     -0.701750    11A     -0.616589    12A     -0.594960
      13A     -0.587376    14A     -0.521049    15A     -0.481938
      16A     -0.442466    17A     -0.433554

  @DF-RHF Final Energy:  -228.91862884699543

   => Energetics <=

    Nuclear Repulsion Energy =            133.9614651693760266
    One-Electron Energy =                -579.1806451624615875
    Two-Electron Energy =                 216.3005511460899015
    DFT Exchange-Correlation Energy =       0.0000000000000000
    Empirical Dispersion Energy =           0.0000000000000000
    PCM Polarization Energy =               0.0000000000000000
    EFP Energy =                            0.0000000000000000
    Total Energy =                       -228.9186288469956594

  Mulliken Charges: (a.u.)
   Center  Symbol    Alpha    Beta     Spin     Total
       1     H     0.27970  0.27970  0.00000  0.44060
       2     O     4.37048  4.37048  0.00000 -0.74095
       3     C     3.00056  3.00056  0.00000 -0.00113
       4     C     3.00384  3.00384  0.00000 -0.00767
       5     H     0.42385  0.42385  0.00000  0.15230
       6     H     0.43133  0.43133  0.00000  0.13734
       7     O     4.36504  4.36504  0.00000 -0.73008
       8     H     0.42352  0.42352  0.00000  0.15297
       9     H     0.42485  0.42485  0.00000  0.15029
      10     H     0.27683  0.27683  0.00000  0.44634

   Total alpha = 17.00000, Total beta = 17.00000, Total charge = -0.00000
