  ==> Input File <==

--------------------------------------------------------------------------
set {
	reference rhf
	basis 6-31G*
}

set_num_threads( 1 )
memory 2 gb

molecule MOL {
0 1

O	 -2.821601	 1.309235	 -0.001213
C	 -2.668563	 0.129746	 -0.000350
C	 -3.801572	 -0.864014	 -0.000442
O	 -1.481751	 -0.454642	 0.000584
H	 -4.417280	 -0.689587	 -0.874708
H	 -3.443784	 -1.883046	 -0.000565
H	 -4.417179	 -0.689832	 0.873954
C	 -0.334255	 0.388708	 0.000906
C	 0.891947	 -0.504646	 0.000751
H	 -0.365390	 1.025305	 -0.873475
H	 -0.365484	 1.024911	 0.875569
C	 2.191998	 0.301789	 0.000897
H	 0.855148	 -1.151283	 -0.871571
H	 0.855132	 -1.151660	 0.872805
C	 2.739915	 0.549248	 -1.405829
H	 2.026756	 1.258230	 0.493847
H	 2.943566	 -0.219795	 0.590964
C	 4.037693	 1.355869	 -1.405700
H	 1.990267	 1.070710	 -1.996742
H	 2.907802	 -0.405537	 -1.899054
H	 3.893581	 2.330727	 -0.948647
H	 4.400901	 1.514965	 -2.416148
H	 4.818091	 0.843251	 -0.850533

	symmetry c1
}
set optking {
	frozen_dihedral = ("
		13 9 8 10,
		2 4 8 10,
		19 15 12 16,
		1 2 4 8
	")
}

ee = energy('scf')
oeprop('DIPOLE', 'QUADRUPOLE', 'MULLIKEN_CHARGES')
f=open( 'psi4out.xyz', 'w' )
f.write( "23  " )
f.write( str(ee) + "\n" )
f.write( MOL.save_string_xyz() )
f.close()
--------------------------------------------------------------------------

    Molecular point group: c1

    Geometry (in Angstrom), charge = 0, multiplicity = 1:

       Center              X                  Y                   Z               Mass
    ------------   -----------------  -----------------  -----------------  -----------------
           O         -2.665011077371     1.056740202756     0.312443639280    15.994914619560
           C         -2.511973077371    -0.122748797244     0.313306639280    12.000000000000
           C         -3.644982077371    -1.116508797244     0.313214639280    12.000000000000
           O         -1.325161077371    -0.707136797244     0.314240639280    15.994914619560
           H         -4.260690077371    -0.942081797244    -0.561051360720     1.007825032070
           H         -3.287194077371    -2.135540797244     0.313091639280     1.007825032070
           H         -4.260589077371    -0.942326797244     1.187610639280     1.007825032070
           C         -0.177665077371     0.136213202756     0.314562639280    12.000000000000
           C          1.048536922629    -0.757140797244     0.314407639280    12.000000000000
           H         -0.208800077371     0.772810202756    -0.559818360720     1.007825032070
           H         -0.208894077371     0.772416202756     1.189225639280     1.007825032070
           C          2.348587922629     0.049294202756     0.314553639280    12.000000000000
           H          1.011737922629    -1.403777797244    -0.557914360720     1.007825032070
           H          1.011721922629    -1.404154797244     1.186461639280     1.007825032070
           C          2.896504922629     0.296753202756    -1.092172360720    12.000000000000
           H          2.183345922629     1.005735202756     0.807503639280     1.007825032070
           H          3.100155922629    -0.472289797244     0.904620639280     1.007825032070
           C          4.194282922629     1.103374202756    -1.092043360720    12.000000000000
           H          2.146856922629     0.818215202756    -1.683085360720     1.007825032070
           H          3.064391922629    -0.658031797244    -1.585397360720     1.007825032070
           H          4.050170922629     2.078232202756    -0.634990360720     1.007825032070
           H          4.557490922629     1.262470202756    -2.102491360720     1.007825032070
           H          4.974680922629     0.590756202756    -0.536876360720     1.007825032070

  Charge       = 0
  Multiplicity = 1
  Basis Set: 6-31G*
  Basis Set:

    Orbital Energies (a.u.)
    -----------------------

    Doubly Occupied:

       1A    -20.602983     2A    -20.540634     3A    -11.374153
       4A    -11.281716     5A    -11.232410     6A    -11.223476
       7A    -11.222893     8A    -11.221462     9A    -11.212549
      10A     -1.468026    11A     -1.360816    12A     -1.095247
      13A     -1.040961    14A     -1.002931    15A     -0.930865
      16A     -0.845650    17A     -0.797376    18A     -0.778754
      19A     -0.688254    20A     -0.684792    21A     -0.672997
      22A     -0.633842    23A     -0.616206    24A     -0.586280
      25A     -0.578613    26A     -0.573108    27A     -0.561003
      28A     -0.531007    29A     -0.526821    30A     -0.504389
      31A     -0.496249    32A     -0.478497    33A     -0.469629
      34A     -0.461542    35A     -0.448937    36A     -0.435658

  @DF-RHF Final Energy:  -422.97608804500470

   => Energetics <=

    Nuclear Repulsion Energy =            454.3713433991949273
    One-Electron Energy =               -1476.3334594369607657
    Two-Electron Energy =                 598.9860279927602278
    DFT Exchange-Correlation Energy =       0.0000000000000000
    Empirical Dispersion Energy =           0.0000000000000000
    PCM Polarization Energy =               0.0000000000000000
    EFP Energy =                            0.0000000000000000
    Total Energy =                       -422.9760880450055538

  Mulliken Charges: (a.u.)
   Center  Symbol    Alpha    Beta     Spin     Total
       1     O     4.28398  4.28398  0.00000 -0.56796
       2     C     2.61548  2.61548  0.00000  0.76904
       3     C     3.28779  3.28779  0.00000 -0.57558
       4     O     4.31233  4.31233  0.00000 -0.62467
       5     H     0.39751  0.39751  0.00000  0.20498
       6     H     0.39983  0.39983  0.00000  0.20034
       7     H     0.39750  0.39750  0.00000  0.20500
       8     C     2.99823  2.99823  0.00000  0.00355
       9     C     3.16629  3.16629  0.00000 -0.33258
      10     H     0.41040  0.41040  0.00000  0.17920
      11     H     0.41012  0.41012  0.00000  0.17976
      12     C     3.16376  3.16376  0.00000 -0.32752
      13     H     0.41288  0.41288  0.00000  0.17424
      14     H     0.41189  0.41189  0.00000  0.17623
      15     C     3.15318  3.15318  0.00000 -0.30635
      16     H     0.42005  0.42005  0.00000  0.15990
      17     H     0.41658  0.41658  0.00000  0.16683
      18     C     3.23996  3.23996  0.00000 -0.47993
      19     H     0.42190  0.42190  0.00000  0.15619
      20     H     0.42075  0.42075  0.00000  0.15850
      21     H     0.42057  0.42057  0.00000  0.15887
      22     H     0.41795  0.41795  0.00000  0.16409
      23     H     0.42107  0.42107  0.00000  0.15786

   Total alpha = 36.00000, Total beta = 36.00000, Total charge =  0.00000
