  ==> Input File <==

--------------------------------------------------------------------------
set {
	reference rhf
	basis 6-31G*
}

set_num_threads( 4 )
memory 2 gb

molecule MOL {
0 1

H	 -0.216825	 0.021369	 -3.357402
C	 0.374198	 0.036393	 -2.447010
C	 -0.521757	 -0.028637	 -1.217342
H	 0.969602	 0.942322	 -2.434777
H	 1.053364	 -0.811668	 -2.481329
N	 0.263400	 0.031178	 0.000000
H	 -1.199035	 0.820290	 -1.219355
H	 -1.147901	 -0.924895	 -1.265384
C	 -0.521757	 -0.028637	 1.217342
H	 0.935769	 -0.712709	 0.000000
C	 -1.314889	 -1.326567	 1.290619
H	 0.162964	 0.023526	 2.058663
H	 -1.200953	 0.823647	 1.317083
H	 -0.649636	 -2.180921	 1.236944
H	 -1.879188	 -1.383261	 2.216200
H	 -2.022456	 -1.399447	 0.468616

	symmetry c1
}
set optking {
	frozen_dihedral = ("
		12 9 6 3
	")
}

ee = optimize('scf')
oeprop('DIPOLE', 'QUADRUPOLE', 'MULLIKEN_CHARGES')
f=open( 'psi4out.xyz', 'w' )
f.write( "16  " )
f.write( str(ee) + "\n" )
f.write( MOL.save_string_xyz() )
f.close()
--------------------------------------------------------------------------

    Molecular point group: c1
  Charge       = 0
  Multiplicity = 1
  Basis Set: 6-31G*
  Basis Set:
  @DF-RHF Final Energy:  -212.30768784254363
    Total Energy =                       -212.3076878425438281
    Molecular point group: c1
  Basis Set: 6-31G*
  Basis Set:
  Basis Set: 6-31G*
  Basis Set:
  @DF-RHF Final Energy:  -212.30983297677108
    Total Energy =                       -212.3098329767712471
  Basis Set: 6-31G*
  Basis Set:
  Basis Set: 6-31G*
  Basis Set:
  @DF-RHF Final Energy:  -212.31134418061018
    Total Energy =                       -212.3113441806101491
  Basis Set: 6-31G*
  Basis Set:
  Basis Set: 6-31G*
  Basis Set:
  @DF-RHF Final Energy:  -212.31144805396670
    Total Energy =                       -212.3114480539666715
  Basis Set: 6-31G*
  Basis Set:
  Basis Set: 6-31G*
  Basis Set:
  @DF-RHF Final Energy:  -212.31145575979409
    Total Energy =                       -212.3114557597940575
  Basis Set: 6-31G*
  Basis Set:
  Charge       = 0
  Multiplicity = 1
  Basis Set: 6-31G*
  Basis Set:

    Orbital Energies (a.u.)
    -----------------------

    Doubly Occupied:

       1A    -15.533513     2A    -11.241217     3A    -11.240146
       4A    -11.208203     5A    -11.206570     6A     -1.202843
       7A     -1.024021     8A     -0.965518     9A     -0.848824
      10A     -0.807221    11A     -0.658688    12A     -0.625118
      13A     -0.611139    14A     -0.571729    15A     -0.550574
      16A     -0.533069    17A     -0.511471    18A     -0.489083
      19A     -0.481974    20A     -0.474210    21A     -0.355019

  @DF-RHF Final Energy:  -212.31145651689246

   => Energetics <=

    Nuclear Repulsion Energy =            191.1379007772362684
    One-Electron Energy =                -664.6184171967163365
    Two-Electron Energy =                 261.1690599025877191
    DFT Exchange-Correlation Energy =       0.0000000000000000
    Empirical Dispersion Energy =           0.0000000000000000
    PCM Polarization Energy =               0.0000000000000000
    EFP Energy =                            0.0000000000000000
    Total Energy =                       -212.3114565168923491
    Molecular point group: c1
  Basis Set: 6-31G*
  Basis Set:

  -Total Gradient:
     Atom            X                  Y                   Z
    ------   -----------------  -----------------  -----------------
       1       -0.000000413205     0.000000160671     0.000014316622
       2        0.000005082207    -0.000006494498    -0.000000667626
       3        0.000107325078    -0.001194761889     0.000041356925
       4        0.000003598244     0.000005048841    -0.000004662670
       5        0.000004080328    -0.000002098098    -0.000006632475
       6       -0.000130834818     0.001312613362     0.000004398759
       7       -0.000011806019     0.000006378751    -0.000008988855
       8       -0.000002895215    -0.000004325608    -0.000002353506
       9       -0.000094841162     0.001392316135    -0.000054207016
      10        0.000024278049     0.000004638220    -0.000022430372
      11        0.000021880123    -0.000023942039    -0.000013695830
      12        0.000107320567    -0.001520682174     0.000013955675
      13       -0.000041438095     0.000018010086     0.000056139708
      14       -0.000002449524    -0.000005558815    -0.000001415867
      15        0.000018530776     0.000016413494    -0.000015433680
      16       -0.000007417333     0.000002283560     0.000000320208

  **** Optimization is complete! (in 6 steps) ****
    Final optimized geometry and variables:
    Molecular point group: c1

    Geometry (in Angstrom), charge = 0, multiplicity = 1:

    H            0.189249063066     0.402158501737    -3.157226424507
    C            0.756579321292     0.426252205969    -2.231747365926
    C           -0.151329161834     0.191071318963    -1.031331987336
    H            1.251038082797     1.387409864925    -2.150713773728
    H            1.523938912053    -0.341037301005    -2.295904245364
    N            0.610035575572     0.255541020703     0.201991883574
    H           -0.908823693925     0.969101236009    -0.993908102676
    H           -0.682403414253    -0.753798858538    -1.161201550595
    C           -0.156039821508     0.214853652577     1.434753046547
    H            1.302712598603    -0.468765951914     0.209104455954
    C           -1.047520660583    -1.012938467364     1.649407635410
    H            0.554778619266     0.271783724402     2.253133815577
    H           -0.762096145373     1.114985069855     1.483387420672
    H           -0.467350330390    -1.930514766006     1.589536451808
    H           -1.509044611693    -0.976067203229     2.632099711276
    H           -1.844068532032    -1.073537054866     0.915500227380

  Mulliken Charges: (a.u.)
   Center  Symbol    Alpha    Beta     Spin     Total
       1     H     0.42159  0.42159  0.00000  0.15682
       2     C     3.23868  3.23868  0.00000 -0.47736
       3     C     3.05767  3.05767  0.00000 -0.11535
       4     H     0.41240  0.41240  0.00000  0.17521
       5     H     0.42511  0.42511  0.00000  0.14978
       6     N     3.84736  3.84736  0.00000 -0.69473
       7     H     0.42145  0.42145  0.00000  0.15710
       8     H     0.43254  0.43254  0.00000  0.13493
       9     C     3.05827  3.05827  0.00000 -0.11653
      10     H     0.33577  0.33577  0.00000  0.32845
      11     C     3.24734  3.24734  0.00000 -0.49467
      12     H     0.41825  0.41825  0.00000  0.16350
      13     H     0.41941  0.41941  0.00000  0.16119
      14     H     0.42470  0.42470  0.00000  0.15060
      15     H     0.42052  0.42052  0.00000  0.15896
      16     H     0.41894  0.41894  0.00000  0.16212

   Total alpha = 21.00000, Total beta = 21.00000, Total charge = -0.00000
