                              Psi4 1.0.54 Driver

  ==> Input File <==

--------------------------------------------------------------------------
set {
	reference rhf
	basis cc-pvtz
}

set_num_threads( 4 )
memory 2 gb

molecule MOL {
0 1

H	 -2.171709	 0.882708	 0.500286
C	 -2.016894	 0.001719	 -0.114152
O	 -0.775228	 0.000056	 -0.739966
H	 -2.760846	 0.003757	 -0.898169
H	 -2.174774	 -0.879864	 0.498643
C	 -0.512914	 -0.916673	 -1.784034
C	 0.921605	 -0.604353	 -2.195733
C	 -0.608883	 -2.360546	 -1.287384
C	 -1.455040	 -0.689492	 -2.967834
H	 1.589222	 -0.739399	 -1.354214
H	 0.999711	 0.423736	 -2.525937
H	 1.244253	 -1.252703	 -3.001655
H	 0.010472	 -2.498011	 -0.409220
H	 -0.266471	 -3.042883	 -2.056189
H	 -1.624918	 -2.638414	 -1.036341
H	 -1.431667	 0.349747	 -3.273002
H	 -1.149377	 -1.298898	 -3.809897
H	 -2.478121	 -0.953564	 -2.730894

	symmetry c1
}
set optking {
	frozen_dihedral = ("
		6 3 2 5
	")
}

ee,wfn = optimize('scf', return_wfn=True)
oeprop( wfn, 'DIPOLE', 'QUADRUPOLE', 'MULLIKEN_CHARGES')
f=open( 'psi4out.xyz', 'w' )
f.write( "18  " )
f.write( str(ee) + "\n" )
f.write( MOL.save_string_xyz() )
f.close()
--------------------------------------------------------------------------

    Molecular point group: c1
  Charge       = 0
  Multiplicity = 1
  Basis Set: CC-PVTZ
  Basis Set:
  @DF-RHF Final Energy:  -271.27390131627868
    Total Energy =                       -271.2739013162785113
    Molecular point group: c1
  Basis Set: CC-PVTZ
  Basis Set:
  Basis Set: CC-PVTZ
  Basis Set:
  @DF-RHF Final Energy:  -271.27597927871557
    Total Energy =                       -271.2759792787153401
  Basis Set: CC-PVTZ
  Basis Set:
  Basis Set: CC-PVTZ
  Basis Set:
  @DF-RHF Final Energy:  -271.27667850608134
    Total Energy =                       -271.2766785060813390
  Basis Set: CC-PVTZ
  Basis Set:
  Basis Set: CC-PVTZ
  Basis Set:
  @DF-RHF Final Energy:  -271.27667208292740
    Total Energy =                       -271.2766720829276323
  Basis Set: CC-PVTZ
  Basis Set:
  Basis Set: CC-PVTZ
  Basis Set:
  @DF-RHF Final Energy:  -271.27670049070394
    Total Energy =                       -271.2767004907038313
  Basis Set: CC-PVTZ
  Basis Set:
  Basis Set: CC-PVTZ
  Basis Set:
  @DF-RHF Final Energy:  -271.27670547019676
    Total Energy =                       -271.2767054701965890
  Basis Set: CC-PVTZ
  Basis Set:
  Charge       = 0
  Multiplicity = 1
  Basis Set: CC-PVTZ
  Basis Set:

    Orbital Energies (a.u.)
    -----------------------

    Doubly Occupied:

       1A    -20.540533     2A    -11.280118     3A    -11.258119
       4A    -11.207698     5A    -11.206418     6A    -11.201837
       7A     -1.373632     8A     -1.074607     9A     -0.946975
      10A     -0.940668    11A     -0.913219    12A     -0.753518
      13A     -0.656668    14A     -0.646809    15A     -0.639575
      16A     -0.593508    17A     -0.575471    18A     -0.553292
      19A     -0.534574    20A     -0.525033    21A     -0.515156
      22A     -0.489017    23A     -0.487762    24A     -0.440847
      25A     -0.407360

  @DF-RHF Final Energy:  -271.27670563871544

   => Energetics <=

    Nuclear Repulsion Energy =            272.6983787798633898
    One-Electron Energy =                -908.4253393248773136
    Two-Electron Energy =                 364.4502549062984258
    DFT Exchange-Correlation Energy =       0.0000000000000000
    Empirical Dispersion Energy =           0.0000000000000000
    PCM Polarization Energy =               0.0000000000000000
    EFP Energy =                            0.0000000000000000
    Total Energy =                       -271.2767056387155549
    Molecular point group: c1
  Basis Set: CC-PVTZ
  Basis Set:

  -Total Gradient:
     Atom            X                  Y                   Z
    ------   -----------------  -----------------  -----------------
       1        0.000012638453    -0.000019630928    -0.000015588990
       2       -0.000286327743    -0.000295135500    -0.000579476012
       3        0.000222414794    -0.000275373520     0.000454218018
       4        0.000058039638     0.000007853323     0.000044087619
       5        0.000144722622     0.000241772178     0.000309681061
       6       -0.000121247157     0.000297378336    -0.000300597477
       7        0.000052344766     0.000004336376    -0.000008056921
       8       -0.000039185607     0.000009927457     0.000054637654
       9       -0.000041175654    -0.000016393001     0.000012127409
      10        0.000016517542     0.000014629233    -0.000006650158
      11       -0.000017002709    -0.000020401248     0.000004046705
      12        0.000012576021    -0.000003606430     0.000017681354
      13       -0.000019207073     0.000023244654    -0.000053697555
      14       -0.000022764909     0.000012941088     0.000017662059
      15        0.000001464639     0.000006816868     0.000027339236
      16       -0.000002128684    -0.000027326663    -0.000007388568
      17       -0.000008268869     0.000030804789     0.000060270506
      18        0.000036589934     0.000008162987    -0.000030295939

  **** Optimization is complete! (in 7 steps) ****
    Final optimized geometry and variables:
    Molecular point group: c1

    Geometry (in Angstrom), charge = 0, multiplicity = 1:

    H           -1.257843453860     1.673331971350     2.005910932015
    C           -1.222844166327     0.773578671974     1.407921903119
    O           -0.017502674575     0.798530555473     0.714830368621
    H           -2.085519962474     0.772771358144     0.750199227555
    H           -1.295089117392    -0.078194696468     2.076739441739
    C            0.237390663469    -0.165489470759    -0.287712127867
    C            1.680304853623     0.103305918606    -0.700850017028
    C            0.107864935909    -1.586971884460     0.261845289770
    C           -0.691972246802     0.037280879714    -1.486200748982
    H            2.341465752435    -0.020204182347     0.147513448459
    H            1.781496537957     1.119019222173    -1.061538095337
    H            1.992520810676    -0.575539516714    -1.485514538654
    H            0.722935803695    -1.707889664604     1.145507381424
    H            0.434841606607    -2.304650993351    -0.480832788084
    H           -0.915079199322    -1.830194172989     0.521410515853
    H           -0.635170329646     1.061292455567    -1.834517556545
    H           -0.401552032141    -0.616825207362    -2.299708104807
    H           -1.723836580157    -0.184730480058    -1.245100650450

  Mulliken Charges: (a.u.)
   Center  Symbol    Alpha    Beta     Spin     Total
       1     H     0.44096  0.44096  0.00000  0.11807
       2     C     3.04463  3.04463  0.00000 -0.08926
       3     O     4.19014  4.19014  0.00000 -0.38029
       4     H     0.47024  0.47024  0.00000  0.05953
       5     H     0.46802  0.46802  0.00000  0.06396
       6     C     2.87385  2.87385  0.00000  0.25231
       7     C     3.14151  3.14151  0.00000 -0.28302
       8     C     3.16674  3.16674  0.00000 -0.33348
       9     C     3.16120  3.16120  0.00000 -0.32240
      10     H     0.44923  0.44923  0.00000  0.10154
      11     H     0.44845  0.44845  0.00000  0.10310
      12     H     0.45933  0.45933  0.00000  0.08134
      13     H     0.44498  0.44498  0.00000  0.11004
      14     H     0.44733  0.44733  0.00000  0.10533
      15     H     0.44892  0.44892  0.00000  0.10217
      16     H     0.44577  0.44577  0.00000  0.10845
      17     H     0.44944  0.44944  0.00000  0.10113
      18     H     0.44926  0.44926  0.00000  0.10148

   Total alpha = 25.00000, Total beta = 25.00000, Total charge = -0.00000

*** Psi4 exiting successfully. Buy a developer a beer!
