                              Psi4 1.0.54 Driver

  ==> Input File <==

--------------------------------------------------------------------------
set {
	reference rhf
	basis cc-pvtz
}

set_num_threads( 4 )
memory 2 gb

molecule MOL {
0 1

H	 -4.340537	 -0.784487	 0.000000
O	 -3.958786	 0.074640	 0.000000
C	 -2.613554	 0.009900	 0.000000
C	 -1.983684	 -0.233864	 -1.209140
C	 -1.860229	 0.175988	 1.146212
H	 -2.577979	 -0.361119	 -2.092021
C	 -0.609791	 -0.310121	 -1.266569
H	 -2.341698	 0.365405	 2.087952
C	 -0.480636	 0.099104	 1.086788
H	 -0.124399	 -0.498759	 -2.202826
C	 0.139084	 -0.143268	 -0.117237
H	 0.099439	 0.228534	 1.978115
Br	 2.032624	 -0.249312	 -0.201731

	symmetry c1
}
set optking {
	frozen_dihedral = ("
		4 3 2 1
	")
}

ee,wfn = optimize('scf', return_wfn=True)
oeprop( wfn, 'DIPOLE', 'QUADRUPOLE', 'MULLIKEN_CHARGES')
f=open( 'psi4out.xyz', 'w' )
f.write( "13  " )
f.write( str(ee) + "\n" )
f.write( MOL.save_string_xyz() )
f.close()
--------------------------------------------------------------------------

    Molecular point group: c1
  Charge       = 0
  Multiplicity = 1
  Basis Set: CC-PVTZ
  Basis Set:
  @DF-RHF Final Energy: -2877.54177844174274
    Total Energy =                      -2877.5417784417422808
    Molecular point group: c1
  Basis Set: CC-PVTZ
  Basis Set:
  Basis Set: CC-PVTZ
  Basis Set:
  @DF-RHF Final Energy: -2877.54283797929702
    Total Energy =                      -2877.5428379792979285
  Basis Set: CC-PVTZ
  Basis Set:
  Basis Set: CC-PVTZ
  Basis Set:
  @DF-RHF Final Energy: -2877.54290255338583
    Total Energy =                      -2877.5429025533867389
  Basis Set: CC-PVTZ
  Basis Set:
  Basis Set: CC-PVTZ
  Basis Set:
  @DF-RHF Final Energy: -2877.54290958818137
    Total Energy =                      -2877.5429095881791000
  Basis Set: CC-PVTZ
  Basis Set:
  Charge       = 0
  Multiplicity = 1
  Basis Set: CC-PVTZ
  Basis Set:

    Orbital Energies (a.u.)
    -----------------------

    Doubly Occupied:

       1A   -490.020935     2A    -65.161269     3A    -58.516493
       4A    -58.515127     5A    -58.515112     6A    -20.582816
       7A    -11.303024     8A    -11.294009     9A    -11.252089
      10A    -11.251713    11A    -11.242558    12A    -11.241484
      13A     -9.835073    14A     -7.446696    15A     -7.439908
      16A     -7.439888    17A     -3.190388    18A     -3.186845
      19A     -3.186699    20A     -3.178063    21A     -3.178059
      22A     -1.410573    23A     -1.180792    24A     -1.067756
      25A     -1.041827    26A     -0.970624    27A     -0.862419
      28A     -0.826418    29A     -0.752827    30A     -0.677949
      31A     -0.664053    32A     -0.646400    33A     -0.610452
      34A     -0.600020    35A     -0.548089    36A     -0.532416
      37A     -0.502614    38A     -0.487802    39A     -0.435173
      40A     -0.415714    41A     -0.358952    42A     -0.329333

  @DF-RHF Final Energy: -2877.54291112715555

   => Energetics <=

    Nuclear Repulsion Energy =            525.1338165201318589
    One-Electron Energy =               -5041.5525499490140646
    Two-Electron Energy =                1638.8758223017248383
    DFT Exchange-Correlation Energy =       0.0000000000000000
    Empirical Dispersion Energy =           0.0000000000000000
    PCM Polarization Energy =               0.0000000000000000
    EFP Energy =                            0.0000000000000000
    Total Energy =                      -2877.5429111271569127
    Molecular point group: c1
  Basis Set: CC-PVTZ
  Basis Set:

  -Total Gradient:
     Atom            X                  Y                   Z
    ------   -----------------  -----------------  -----------------
       1        0.000026177657    -0.000007575104     0.000892821516
       2       -0.000184897883     0.000322420905    -0.001177362737
       3        0.000190678273    -0.000903243199     0.000550267164
       4        0.000021554556     0.000609819563    -0.000190952749
       5       -0.000151080810    -0.000011014068    -0.000024926948
       6        0.000035749920     0.000009643893     0.000021665313
       7       -0.000075663925    -0.000026639525    -0.000050845113
       8       -0.000039564220     0.000005296115    -0.000023474151
       9        0.000162483520    -0.000056854870    -0.000091315664
      10        0.000048541359     0.000003886122     0.000010202944
      11        0.000011845283     0.000062677315     0.000131395346
      12       -0.000015220658     0.000001227361    -0.000012589765
      13       -0.000030603716    -0.000009644462    -0.000034885156

  **** Optimization is complete! (in 5 steps) ****
    Final optimized geometry and variables:
    Molecular point group: c1

    Geometry (in Angstrom), charge = 0, multiplicity = 1:

    H           -4.366779692551    -0.619092729013     0.152486727710
    O           -3.961815053722     0.230589445079     0.161211648758
    C           -2.602757111472     0.119724007353     0.104603369695
    C           -1.969528025914    -0.109226253744    -1.101691040663
    C           -1.857517544573     0.297058313738     1.252777025792
    H           -2.555714548314    -0.223924102486    -1.992654273924
    C           -0.591272237761    -0.178235461171    -1.158711045965
    H           -2.360335364094     0.490313109853     2.179881872837
    C           -0.478110267961     0.234422140208     1.200437068444
    H           -0.098910952844    -0.357180360494    -2.093053491864
    C            0.145378584442    -0.006586489603    -0.005355394901
    H            0.101027989726     0.372456244883     2.090884448764
    BR           2.039676875423    -0.096733732976    -0.081393921485

  Mulliken Charges: (a.u.)
   Center  Symbol    Alpha    Beta     Spin     Total
       1     H     0.38689  0.38689  0.00000  0.22622
       2     O     4.18836  4.18836  0.00000 -0.37672
       3     C     2.88182  2.88182  0.00000  0.23636
       4     C     3.09640  3.09640  0.00000 -0.19280
       5     C     3.09029  3.09029  0.00000 -0.18058
       6     H     0.41477  0.41477  0.00000  0.17045
       7     C     3.08896  3.08896  0.00000 -0.17792
       8     H     0.41310  0.41310  0.00000  0.17380
       9     C     3.08832  3.08832  0.00000 -0.17663
      10     H     0.41013  0.41013  0.00000  0.17974
      11     C     2.96684  2.96684  0.00000  0.06633
      12     H     0.41004  0.41004  0.00000  0.17991
      13    BR    17.56408 17.56408  0.00000 -0.12816

   Total alpha = 42.00000, Total beta = 42.00000, Total charge = -0.00000

*** Psi4 exiting successfully. Buy a developer a beer!
