  ==> Input File <==

--------------------------------------------------------------------------
set {
	reference rhf
	basis 6-31G*
}

set_num_threads( 1 )
memory 2 gb

molecule MOL {
0 1

H	 -3.101035	 0.526447	 1.946923
O	 -2.245800	 0.803034	 1.650531
C	 -2.026376	 0.340750	 0.341611
C	 -0.673256	 0.843270	 -0.132153
H	 -2.043303	 -0.747364	 0.315939
H	 -2.809944	 0.697153	 -0.325960
C	 0.486613	 -0.083066	 0.235839
H	 -0.715586	 0.970948	 -1.210718
H	 -0.508072	 1.829858	 0.297090
C	 1.840406	 0.433480	 -0.254303
H	 0.300215	 -1.068318	 -0.178947
H	 0.519509	 -0.203625	 1.318070
C	 3.000220	 -0.489290	 0.118523
H	 1.809207	 0.553576	 -1.335192
H	 2.021860	 1.424500	 0.157276
H	 2.864959	 -1.479103	 -0.307933
H	 3.946603	 -0.099227	 -0.243630
H	 3.080049	 -0.602997	 1.196117

	symmetry c1
}
set optking {
	frozen_dihedral = ("
		14 10 7 11,
		10 7 4 8,
		1 2 3 4
	")
}

ee = energy('scf')
oeprop('DIPOLE', 'QUADRUPOLE', 'MULLIKEN_CHARGES')
f=open( 'psi4out.xyz', 'w' )
f.write( "18  " )
f.write( str(ee) + "\n" )
f.write( MOL.save_string_xyz() )
f.close()
--------------------------------------------------------------------------

    Molecular point group: c1

    Geometry (in Angstrom), charge = 0, multiplicity = 1:

       Center              X                  Y                   Z               Mass
    ------------   -----------------  -----------------  -----------------  -----------------
           H         -3.112572717184     0.217643484098     1.586422195540     1.007825032070
           O         -2.257337717184     0.494230484098     1.290030195540    15.994914619560
           C         -2.037913717184     0.031946484098    -0.018889804460    12.000000000000
           C         -0.684793717184     0.534466484098    -0.492653804460    12.000000000000
           H         -2.054840717184    -1.056167515902    -0.044561804460     1.007825032070
           H         -2.821481717184     0.388349484098    -0.686460804460     1.007825032070
           C          0.475075282816    -0.391869515902    -0.124661804460    12.000000000000
           H         -0.727123717184     0.662144484098    -1.571218804460     1.007825032070
           H         -0.519609717184     1.521054484098    -0.063410804460     1.007825032070
           C          1.828868282816     0.124676484098    -0.614803804460    12.000000000000
           H          0.288677282816    -1.377121515902    -0.539447804460     1.007825032070
           H          0.507971282816    -0.512428515902     0.957569195540     1.007825032070
           C          2.988682282816    -0.798093515902    -0.241977804460    12.000000000000
           H          1.797669282816     0.244772484098    -1.695692804460     1.007825032070
           H          2.010322282816     1.115696484098    -0.203224804460     1.007825032070
           H          2.853421282816    -1.787906515902    -0.668433804460     1.007825032070
           H          3.935065282816    -0.408030515902    -0.604130804460     1.007825032070
           H          3.068511282816    -0.911800515902     0.835616195540     1.007825032070

  Charge       = 0
  Multiplicity = 1
  Basis Set: 6-31G*
  Basis Set:

    Orbital Energies (a.u.)
    -----------------------

    Doubly Occupied:

       1A    -20.551892     2A    -11.267009     3A    -11.212362
       4A    -11.210916     5A    -11.209796     6A    -11.205968
       7A     -1.358615     8A     -1.076829     9A     -1.009444
      10A     -0.913078    11A     -0.818207    12A     -0.787429
      13A     -0.704726    14A     -0.635857    15A     -0.631670
      16A     -0.578667    17A     -0.571134    18A     -0.560084
      19A     -0.523601    20A     -0.500686    21A     -0.488640
      22A     -0.468444    23A     -0.461778    24A     -0.449139
      25A     -0.426853

  @DF-RHF Final Energy:  -271.17724107393838

   => Energetics <=

    Nuclear Repulsion Energy =            247.6839810545731950
    One-Electron Energy =                -858.4768694542090088
    Two-Electron Energy =                 339.6156473256968411
    DFT Exchange-Correlation Energy =       0.0000000000000000
    Empirical Dispersion Energy =           0.0000000000000000
    PCM Polarization Energy =               0.0000000000000000
    EFP Energy =                            0.0000000000000000
    Total Energy =                       -271.1772410739389443

  Mulliken Charges: (a.u.)
   Center  Symbol    Alpha    Beta     Spin     Total
       1     H     0.28130  0.28130  0.00000  0.43740
       2     O     4.37050  4.37050  0.00000 -0.74100
       3     C     2.99654  2.99654  0.00000  0.00691
       4     C     3.16114  3.16114  0.00000 -0.32227
       5     H     0.43165  0.43165  0.00000  0.13670
       6     H     0.43032  0.43032  0.00000  0.13936
       7     C     3.15494  3.15494  0.00000 -0.30989
       8     H     0.42354  0.42354  0.00000  0.15291
       9     H     0.40908  0.40908  0.00000  0.18183
      10     C     3.15209  3.15209  0.00000 -0.30418
      11     H     0.42585  0.42585  0.00000  0.14831
      12     H     0.41443  0.41443  0.00000  0.17115
      13     C     3.23914  3.23914  0.00000 -0.47828
      14     H     0.42446  0.42446  0.00000  0.15108
      15     H     0.42151  0.42151  0.00000  0.15698
      16     H     0.42263  0.42263  0.00000  0.15474
      17     H     0.41986  0.41986  0.00000  0.16027
      18     H     0.42101  0.42101  0.00000  0.15798

   Total alpha = 25.00000, Total beta = 25.00000, Total charge =  0.00000
