  ==> Input File <==

--------------------------------------------------------------------------
set {
	reference rhf
	basis 6-31G*
}

set_num_threads( 4 )
memory 2 gb

molecule MOL {
0 1

O	 1.319941	 3.775272	 1.526748
C	 0.465265	 3.892905	 2.350429
C	 -0.805298	 3.062329	 2.323063
C	 0.595173	 4.887536	 3.485765
C	 -0.881077	 2.080105	 1.157847
H	 -0.880807	 2.537494	 3.274501
H	 -1.651367	 3.748051	 2.304208
C	 -2.173491	 1.261940	 1.163825
H	 -0.023438	 1.415935	 1.196108
H	 -0.795104	 2.627812	 0.224694
C	 -2.259874	 0.272531	 0.000494
H	 -2.255019	 0.717978	 2.103775
H	 -3.029519	 1.934192	 1.126945
C	 -3.549786	 -0.549746	 -0.000374
H	 -1.405001	 -0.400444	 0.036773
H	 -2.179357	 0.815291	 -0.939679
C	 -4.809590	 0.315458	 -0.000369
H	 -3.560515	 -1.202009	 -0.871156
H	 -3.561123	 -1.202955	 0.869711
H	 -4.844746	 0.956611	 -0.876632
H	 -5.706986	 -0.295590	 -0.001609
H	 -4.845960	 0.954827	 0.877144
H	 0.549859	 4.377445	 4.443561
H	 1.534733	 5.415822	 3.402249
H	 -0.224505	 5.599678	 3.460948

	symmetry c1
}
set optking {
	frozen_dihedral = ("
		15 11 14 18
	")
}

ee = optimize('scf')
oeprop('DIPOLE', 'QUADRUPOLE', 'MULLIKEN_CHARGES')
f=open( 'psi4out.xyz', 'w' )
f.write( "25  " )
f.write( str(ee) + "\n" )
f.write( MOL.save_string_xyz() )
f.close()
--------------------------------------------------------------------------

    Molecular point group: c1
  Charge       = 0
  Multiplicity = 1
  Basis Set: 6-31G*
  Basis Set:
  @DF-RHF Final Energy:  -387.13351610224419
    Total Energy =                       -387.1335161022434477
    Molecular point group: c1
  Basis Set: 6-31G*
  Basis Set:
  Basis Set: 6-31G*
  Basis Set:
  @DF-RHF Final Energy:  -387.13402332171415
    Total Energy =                       -387.1340233217143805
  Basis Set: 6-31G*
  Basis Set:
  Basis Set: 6-31G*
  Basis Set:
  @DF-RHF Final Energy:  -387.13460891513193
    Total Energy =                       -387.1346089151307979
  Basis Set: 6-31G*
  Basis Set:
  Basis Set: 6-31G*
  Basis Set:
  @DF-RHF Final Energy:  -387.13464033163416
    Total Energy =                       -387.1346403316342730
  Basis Set: 6-31G*
  Basis Set:
  Basis Set: 6-31G*
  Basis Set:
  @DF-RHF Final Energy:  -387.13454916314009
    Total Energy =                       -387.1345491631398090
  Basis Set: 6-31G*
  Basis Set:
  Basis Set: 6-31G*
  Basis Set:
  @DF-RHF Final Energy:  -387.13465909806973
    Total Energy =                       -387.1346590980698466
  Basis Set: 6-31G*
  Basis Set:
  Basis Set: 6-31G*
  Basis Set:
  @DF-RHF Final Energy:  -387.13466290444944
    Total Energy =                       -387.1346629044498968
  Basis Set: 6-31G*
  Basis Set:
  Charge       = 0
  Multiplicity = 1
  Basis Set: 6-31G*
  Basis Set:

    Orbital Energies (a.u.)
    -----------------------

    Doubly Occupied:

       1A    -20.550445     2A    -11.326285     3A    -11.231845
       4A    -11.228335     5A    -11.216884     6A    -11.216147
       7A    -11.215852     8A    -11.213892     9A    -11.208856
      10A     -1.395748    11A     -1.093618    12A     -1.055639
      13A     -1.013435    14A     -0.966898    15A     -0.896130
      16A     -0.824073    17A     -0.777328    18A     -0.729472
      19A     -0.658835    20A     -0.652518    21A     -0.626609
      22A     -0.621918    23A     -0.606843    24A     -0.591276
      25A     -0.565696    26A     -0.556633    27A     -0.543475
      28A     -0.521377    29A     -0.512198    30A     -0.493961
      31A     -0.489011    32A     -0.476587    33A     -0.460671
      34A     -0.456187    35A     -0.450979    36A     -0.399445

  @DF-RHF Final Energy:  -387.13466351681848

   => Energetics <=

    Nuclear Repulsion Energy =            442.8525483309421134
    One-Electron Energy =               -1402.2842218028436037
    Two-Electron Energy =                 572.2970099550834675
    DFT Exchange-Correlation Energy =       0.0000000000000000
    Empirical Dispersion Energy =           0.0000000000000000
    PCM Polarization Energy =               0.0000000000000000
    EFP Energy =                            0.0000000000000000
    Total Energy =                       -387.1346635168180228
    Molecular point group: c1
  Basis Set: 6-31G*
  Basis Set:

  -Total Gradient:
     Atom            X                  Y                   Z
    ------   -----------------  -----------------  -----------------
       1        0.000001316426    -0.000001480594     0.000001273365
       2       -0.000003695420     0.000005491241     0.000000626647
       3        0.000013712398    -0.000016105907     0.000018098179
       4        0.000003706439    -0.000001859464     0.000002047071
       5       -0.000018551162     0.000027918022    -0.000017077658
       6       -0.000000615680     0.000006375148     0.000008295546
       7        0.000001754757    -0.000006106833    -0.000007169864
       8        0.000005475244    -0.000002599118    -0.000017498824
       9       -0.000007384400     0.000006626768     0.000008681357
      10        0.000000993556    -0.000008269676    -0.000010991836
      11       -0.000158159901     0.000180980928    -0.002400490247
      12       -0.000006504073    -0.000006483098    -0.000010595605
      13        0.000005267692     0.000011154115     0.000004171362
      14        0.001099992003    -0.001500818882     0.001560786178
      15       -0.000000353570     0.000063531320     0.001808391363
      16       -0.000007565363    -0.000001198535     0.000008681535
      17       -0.000013114239    -0.000007703894     0.000000773144
      18       -0.000910917816     0.001237337294    -0.000958964960
      19        0.000007478943     0.000002453807    -0.000002670857
      20        0.000000368569     0.000001005195     0.000004113363
      21       -0.000010626650     0.000008958429     0.000000662850
      22       -0.000002449806    -0.000000586489    -0.000000897660
      23        0.000000097950     0.000001030327    -0.000000729569
      24        0.000000536688     0.000000363411     0.000001167116
      25       -0.000000762591    -0.000000013522    -0.000000681998

  **** Optimization is complete! (in 8 steps) ****
    Final optimized geometry and variables:
    Molecular point group: c1

    Geometry (in Angstrom), charge = 0, multiplicity = 1:

    O            2.724212060682     1.593144465422     0.233279657222
    C            1.853509233407     1.759243752403     1.031423737995
    C            0.550407374193     0.981777943137     0.981637523746
    C            1.994616032025     2.765620001682     2.155021563661
    C            0.464779915707    -0.015126856653    -0.170360010008
    H            0.427540184355     0.475882094080     1.938419139749
    H           -0.265246930333     1.701735637171     0.929402619125
    C           -0.859603733240    -0.781141703607    -0.186015806305
    H            1.294149545342    -0.711645310017    -0.100131277296
    H            0.596038395399     0.513882729737    -1.109163562671
    C           -0.950316605412    -1.772560708494    -1.349964199018
    H           -0.978925657423    -1.319590926055     0.753726485600
    H           -1.681566319654    -0.071405714923    -0.237491338454
    C           -2.196288404872    -2.666061338029    -1.337594454044
    H           -0.070804081637    -2.412116293650    -1.318940833048
    H           -0.905563367434    -1.226810522812    -2.290463113774
    C           -3.526028349349    -1.908513863856    -1.358476189367
    H           -2.160578388694    -3.311497295704    -2.211791405945
    H           -2.165977293617    -3.318283111808    -0.467585252426
    H           -3.570997175186    -1.220563779729    -2.198790602166
    H           -4.359085936657    -2.598261489009    -1.453191881634
    H           -3.682052589433    -1.333941238381    -0.451602640833
    H            1.902593696372     2.273144471556     3.118668426154
    H            2.957319587287     3.253174292630     2.089336623123
    H            1.206361254524     3.510591613132     2.097382534925

  Mulliken Charges: (a.u.)
   Center  Symbol    Alpha    Beta     Spin     Total
       1     O     4.26116  4.26116  0.00000 -0.52231
       2     C     2.73574  2.73574  0.00000  0.52853
       3     C     3.21072  3.21072  0.00000 -0.42144
       4     C     3.28665  3.28665  0.00000 -0.57330
       5     C     3.14777  3.14777  0.00000 -0.29554
       6     H     0.41003  0.41003  0.00000  0.17993
       7     H     0.41010  0.41010  0.00000  0.17979
       8     C     3.15630  3.15630  0.00000 -0.31259
       9     H     0.41222  0.41222  0.00000  0.17557
      10     H     0.41225  0.41225  0.00000  0.17550
      11     C     3.15227  3.15227  0.00000 -0.30454
      12     H     0.42556  0.42556  0.00000  0.14888
      13     H     0.42238  0.42238  0.00000  0.15524
      14     C     3.15196  3.15196  0.00000 -0.30391
      15     H     0.42075  0.42075  0.00000  0.15850
      16     H     0.42249  0.42249  0.00000  0.15502
      17     C     3.24195  3.24195  0.00000 -0.48390
      18     H     0.42048  0.42048  0.00000  0.15904
      19     H     0.42329  0.42329  0.00000  0.15341
      20     H     0.42222  0.42222  0.00000  0.15555
      21     H     0.41913  0.41913  0.00000  0.16174
      22     H     0.42068  0.42068  0.00000  0.15864
      23     H     0.40875  0.40875  0.00000  0.18251
      24     H     0.39646  0.39646  0.00000  0.20709
      25     H     0.40870  0.40870  0.00000  0.18260

   Total alpha = 36.00000, Total beta = 36.00000, Total charge = -0.00000
