  ==> Input File <==

--------------------------------------------------------------------------
set {
	reference rhf
	basis 6-31G*
}

set_num_threads( 1 )
memory 2 gb

molecule MOL {
0 1

H	 -2.499100	 -0.730091	 -0.745082
O	 -2.347518	 -0.290803	 0.079804
C	 -1.184022	 0.487508	 -0.006784
C	 0.062599	 -0.378592	 0.031606
H	 -1.176523	 1.099369	 -0.904519
H	 -1.187323	 1.153111	 0.844927
O	 1.171513	 0.459272	 -0.058250
H	 0.050699	 -1.089204	 -0.797170
H	 0.078739	 -0.954914	 0.954740
C	 1.390132	 1.250262	 1.066776
H	 1.563431	 0.642490	 1.952897
H	 2.268204	 1.851976	 0.877479
H	 0.545652	 1.908654	 1.259558

	symmetry c1
}
set optking {
	frozen_dihedral = ("
		8 4 3 5,
		1 2 3 5,
		4 7 10 13
	")
}

ee = energy('scf')
oeprop('DIPOLE', 'QUADRUPOLE', 'MULLIKEN_CHARGES')
f=open( 'psi4out.xyz', 'w' )
f.write( "13  " )
f.write( str(ee) + "\n" )
f.write( MOL.save_string_xyz() )
f.close()
--------------------------------------------------------------------------

    Molecular point group: c1

    Geometry (in Angstrom), charge = 0, multiplicity = 1:

       Center              X                  Y                   Z               Mass
    ------------   -----------------  -----------------  -----------------  -----------------
           H         -2.289447262886    -1.031416630648    -0.967477270697     1.007825032070
           O         -2.137865262886    -0.592128630648    -0.142591270697    15.994914619560
           C         -0.974369262886     0.186182369352    -0.229179270697    12.000000000000
           C          0.272251737114    -0.679917630648    -0.190789270697    12.000000000000
           H         -0.966870262886     0.798043369352    -1.126914270697     1.007825032070
           H         -0.977670262886     0.851785369352     0.622531729303     1.007825032070
           O          1.381165737114     0.157946369352    -0.280645270697    15.994914619560
           H          0.260351737114    -1.390529630648    -1.019565270697     1.007825032070
           H          0.288391737114    -1.256239630648     0.732344729303     1.007825032070
           C          1.599784737114     0.948936369352     0.844380729303    12.000000000000
           H          1.773083737114     0.341164369352     1.730501729303     1.007825032070
           H          2.477856737114     1.550650369352     0.655083729303     1.007825032070
           H          0.755304737114     1.607328369352     1.037162729303     1.007825032070

  Charge       = 0
  Multiplicity = 1
  Basis Set: 6-31G*
  Basis Set:

    Orbital Energies (a.u.)
    -----------------------

    Doubly Occupied:

       1A    -20.561386     2A    -20.560550     3A    -11.271618
       4A    -11.270088     5A    -11.268909     6A     -1.390329
       7A     -1.365616     8A     -1.012975     9A     -0.932161
      10A     -0.833346    11A     -0.712022    12A     -0.681489
      13A     -0.654241    14A     -0.642954    15A     -0.591768
      16A     -0.569486    17A     -0.535255    18A     -0.521911
      19A     -0.466158    20A     -0.459575    21A     -0.404417

  @DF-RHF Final Energy:  -267.94348017923801

   => Energetics <=

    Nuclear Repulsion Energy =            194.1354940596156098
    One-Electron Energy =                -750.7454532251209685
    Two-Electron Energy =                 288.6664789862670659
    DFT Exchange-Correlation Energy =       0.0000000000000000
    Empirical Dispersion Energy =           0.0000000000000000
    PCM Polarization Energy =               0.0000000000000000
    EFP Energy =                            0.0000000000000000
    Total Energy =                       -267.9434801792383496

  Mulliken Charges: (a.u.)
   Center  Symbol    Alpha    Beta     Spin     Total
       1     H     0.28106  0.28106  0.00000  0.43787
       2     O     4.37247  4.37247  0.00000 -0.74494
       3     C     3.00877  3.00877  0.00000 -0.01754
       4     C     3.00583  3.00583  0.00000 -0.01166
       5     H     0.42193  0.42193  0.00000  0.15614
       6     H     0.41423  0.41423  0.00000  0.17154
       7     O     4.30420  4.30420  0.00000 -0.60840
       8     H     0.41875  0.41875  0.00000  0.16250
       9     H     0.42244  0.42244  0.00000  0.15512
      10     C     3.08587  3.08587  0.00000 -0.17175
      11     H     0.42669  0.42669  0.00000  0.14663
      12     H     0.40914  0.40914  0.00000  0.18172
      13     H     0.42861  0.42861  0.00000  0.14279

   Total alpha = 21.00000, Total beta = 21.00000, Total charge =  0.00000
