                              Psi4 1.0.54 Driver

  ==> Input File <==

--------------------------------------------------------------------------
set {
	reference rhf
	basis cc-pvtz
}

set_num_threads( 4 )
memory 2 gb

molecule MOL {
0 1

H	 -1.658091	 0.318734	 -2.263721
C	 -1.216927	 0.154703	 -1.303303
C	 -1.931909	 0.415243	 -0.090838
C	 0.032391	 -0.304738	 -1.197700
H	 -2.938654	 0.785466	 -0.141391
C	 -1.356834	 0.201555	 1.096682
H	 0.631025	 -0.523125	 -2.059723
N	 0.640204	 -0.530428	 -0.000115
H	 -1.860941	 0.385107	 2.023043
C	 0.005413	 -0.299565	 1.208012
C	 2.006991	 -1.033007	 -0.000020
O	 0.556002	 -0.504065	 2.255521
H	 2.182444	 -1.636914	 -0.880881
H	 2.678769	 -0.195442	 -0.002236
H	 2.183828	 -1.633244	 0.883082

	symmetry c1
}
set optking {
	frozen_dihedral = ("
		10 8 11 13
	")
}

ee,wfn = optimize('scf', return_wfn=True)
oeprop( wfn, 'DIPOLE', 'QUADRUPOLE', 'MULLIKEN_CHARGES')
f=open( 'psi4out.xyz', 'w' )
f.write( "15  " )
f.write( str(ee) + "\n" )
f.write( MOL.save_string_xyz() )
f.close()
--------------------------------------------------------------------------

    Molecular point group: c1
  Charge       = 0
  Multiplicity = 1
  Basis Set: CC-PVTZ
  Basis Set:
  @DF-RHF Final Energy:  -360.72243531831975
    Total Energy =                       -360.7224353183200947
    Molecular point group: c1
  Basis Set: CC-PVTZ
  Basis Set:
  Basis Set: CC-PVTZ
  Basis Set:
  @DF-RHF Final Energy:  -360.72292221541210
    Total Energy =                       -360.7229222154121544
  Basis Set: CC-PVTZ
  Basis Set:
  Basis Set: CC-PVTZ
  Basis Set:
  @DF-RHF Final Energy:  -360.72295438545103
    Total Energy =                       -360.7229543854512031
  Basis Set: CC-PVTZ
  Basis Set:
  Basis Set: CC-PVTZ
  Basis Set:
  @DF-RHF Final Energy:  -360.72299289462336
    Total Energy =                       -360.7229928946232462
  Basis Set: CC-PVTZ
  Basis Set:
  Basis Set: CC-PVTZ
  Basis Set:
  @DF-RHF Final Energy:  -360.72299552057876
    Total Energy =                       -360.7229955205789338
  Basis Set: CC-PVTZ
  Basis Set:
  Charge       = 0
  Multiplicity = 1
  Basis Set: CC-PVTZ
  Basis Set:

    Orbital Energies (a.u.)
    -----------------------

    Doubly Occupied:

       1A    -20.501879     2A    -15.617171     3A    -11.338592
       4A    -11.293854     5A    -11.264735     6A    -11.258150
       7A    -11.230040     8A    -11.228039     9A     -1.390900
      10A     -1.285818    11A     -1.118793    12A     -1.029048
      13A     -0.972482    14A     -0.876101    15A     -0.838795
      16A     -0.719354    17A     -0.702489    18A     -0.663706
      19A     -0.653220    20A     -0.625715    21A     -0.611895
      22A     -0.574526    23A     -0.555402    24A     -0.550526
      25A     -0.530271    26A     -0.483819    27A     -0.420586
      28A     -0.410523    29A     -0.310493

  @DF-RHF Final Energy:  -360.72299571898554

   => Energetics <=

    Nuclear Repulsion Energy =            358.6463659372826669
    One-Electron Energy =               -1200.6248735678093453
    Two-Electron Energy =                 481.2555119115411344
    DFT Exchange-Correlation Energy =       0.0000000000000000
    Empirical Dispersion Energy =           0.0000000000000000
    PCM Polarization Energy =               0.0000000000000000
    EFP Energy =                            0.0000000000000000
    Total Energy =                       -360.7229957189855440
    Molecular point group: c1
  Basis Set: CC-PVTZ
  Basis Set:

  -Total Gradient:
     Atom            X                  Y                   Z
    ------   -----------------  -----------------  -----------------
       1       -0.000004037384    -0.000007892958    -0.000000949635
       2        0.000016821867    -0.000028274960    -0.000007283483
       3       -0.000000945392     0.000019459219     0.000022455334
       4       -0.000006140791     0.000053676120    -0.000025428143
       5       -0.000000151896    -0.000002951636    -0.000004520318
       6       -0.000011070780     0.000013691104    -0.000008593065
       7       -0.000002343365    -0.000011638392    -0.000001218332
       8        0.000275045051     0.000799044236     0.000150649683
       9        0.000004060451    -0.000008542550     0.000003053877
      10       -0.000235079261    -0.000712587894    -0.000039892559
      11        0.000214720998     0.000582080755    -0.000559063696
      12        0.000005870398     0.000007487220     0.000021961725
      13       -0.000266409536    -0.000697930861     0.000445102510
      14        0.000019165133     0.000000347364    -0.000003487649
      15       -0.000009505498    -0.000005966767     0.000007213754

  **** Optimization is complete! (in 6 steps) ****
    Final optimized geometry and variables:
    Molecular point group: c1

    Geometry (in Angstrom), charge = 0, multiplicity = 1:

    H           -1.573271684159     0.588468904614    -2.534167950275
    C           -1.128624014181     0.419743719367    -1.576180530150
    C           -1.840825189979     0.669638215187    -0.360479586384
    C            0.121147422108    -0.042832455150    -1.479011573750
    H           -2.849066708625     1.036447293409    -0.406328000852
    C           -1.262591756861     0.449560772643     0.824921094351
    H            0.714292348427    -0.257185471722    -2.345204726043
    N            0.729311756489    -0.279115577969    -0.284756334402
    H           -1.764250373745     0.626625514653     1.753967952350
    C            0.104040024408    -0.038448004465     0.925795942519
    C            2.098881401286    -0.771233519040    -0.261343516609
    O            0.676481181161    -0.226315472044     1.964680353640
    H            2.270711226993    -1.386364608601    -1.132402737957
    H            2.805966454709     0.048554603226    -0.251068903749
    H            2.243955566975    -1.359815129812     0.626907976352

  Mulliken Charges: (a.u.)
   Center  Symbol    Alpha    Beta     Spin     Total
       1     H     0.41389  0.41389  0.00000  0.17221
       2     C     3.10454  3.10454  0.00000 -0.20907
       3     C     3.06102  3.06102  0.00000 -0.12203
       4     C     3.03420  3.03420  0.00000 -0.06840
       5     H     0.41841  0.41841  0.00000  0.16318
       6     C     3.11793  3.11793  0.00000 -0.23585
       7     H     0.42126  0.42126  0.00000  0.15748
       8     N     3.51071  3.51071  0.00000 -0.02141
       9     H     0.40906  0.40906  0.00000  0.18188
      10     C     2.84517  2.84517  0.00000  0.30967
      11     C     3.09920  3.09920  0.00000 -0.19840
      12     O     4.23617  4.23617  0.00000 -0.47234
      13     H     0.45486  0.45486  0.00000  0.09028
      14     H     0.44615  0.44615  0.00000  0.10771
      15     H     0.42745  0.42745  0.00000  0.14510

   Total alpha = 29.00000, Total beta = 29.00000, Total charge = -0.00000

*** Psi4 exiting successfully. Buy a developer a beer!
