                              Psi4 1.0.54 Driver

  ==> Input File <==

--------------------------------------------------------------------------
set {
	reference rhf
	basis cc-pvtz
}

set_num_threads( 4 )
memory 2 gb

molecule MOL {
0 1

H	 3.187460	 1.290663	 -0.653972
O	 2.265274	 1.171896	 -0.483198
C	 2.076458	 -0.067370	 -0.038225
C	 0.626018	 -0.337582	 0.258241
O	 2.969856	 -0.830584	 0.092872
C	 -0.267326	 0.883135	 0.076490
H	 0.325620	 -1.161483	 -0.378003
H	 0.574537	 -0.713685	 1.275261
C	 -1.726822	 0.642622	 0.463839
H	 -0.210803	 1.217591	 -0.953497
H	 0.129920	 1.693110	 0.675679
C	 -2.480891	 -0.340606	 -0.429852
H	 -2.243098	 1.597649	 0.438609
H	 -1.776542	 0.301208	 1.495542
C	 -3.955933	 -0.460128	 -0.060472
H	 -2.393755	 -0.020485	 -1.464726
H	 -2.024244	 -1.323637	 -0.374360
H	 -4.467673	 -1.160944	 -0.709827
H	 -4.458917	 0.497287	 -0.144505
H	 -4.076458	 -0.806900	 0.960497

	symmetry c1
}
set optking {
	frozen_dihedral = ("
		5 3 4 7
	")
}

ee,wfn = optimize('scf', return_wfn=True)
oeprop( wfn, 'DIPOLE', 'QUADRUPOLE', 'MULLIKEN_CHARGES')
f=open( 'psi4out.xyz', 'w' )
f.write( "20  " )
f.write( str(ee) + "\n" )
f.write( MOL.save_string_xyz() )
f.close()
--------------------------------------------------------------------------

    Molecular point group: c1
  Charge       = 0
  Multiplicity = 1
  Basis Set: CC-PVTZ
  Basis Set:
  @DF-RHF Final Energy:  -384.09073220851462
    Total Energy =                       -384.0907322085148508
    Molecular point group: c1
  Basis Set: CC-PVTZ
  Basis Set:
  Basis Set: CC-PVTZ
  Basis Set:
  @DF-RHF Final Energy:  -384.09173909296646
    Total Energy =                       -384.0917390929664066
  Basis Set: CC-PVTZ
  Basis Set:
  Basis Set: CC-PVTZ
  Basis Set:
  @DF-RHF Final Energy:  -384.09205514141598
    Total Energy =                       -384.0920551414161537
  Basis Set: CC-PVTZ
  Basis Set:
  Basis Set: CC-PVTZ
  Basis Set:
  @DF-RHF Final Energy:  -384.09214419176232
    Total Energy =                       -384.0921441917623156
  Basis Set: CC-PVTZ
  Basis Set:
  Basis Set: CC-PVTZ
  Basis Set:
  @DF-RHF Final Energy:  -384.09216986028468
    Total Energy =                       -384.0921698602851393
  Basis Set: CC-PVTZ
  Basis Set:
  Basis Set: CC-PVTZ
  Basis Set:
  @DF-RHF Final Energy:  -384.09216814464446
    Total Energy =                       -384.0921681446446883
  Basis Set: CC-PVTZ
  Basis Set:
  Basis Set: CC-PVTZ
  Basis Set:
  @DF-RHF Final Energy:  -384.09217258924383
    Total Energy =                       -384.0921725892442282
  Basis Set: CC-PVTZ
  Basis Set:
  Charge       = 0
  Multiplicity = 1
  Basis Set: CC-PVTZ
  Basis Set:

    Orbital Energies (a.u.)
    -----------------------

    Doubly Occupied:

       1A    -20.606814     2A    -20.535572     3A    -11.373959
       4A    -11.238824     5A    -11.225143     6A    -11.220812
       7A    -11.219716     8A    -11.211547     9A     -1.478751
      10A     -1.367331    11A     -1.099449    12A     -1.042579
      13A     -0.960698    14A     -0.863286    15A     -0.829898
      16A     -0.792620    17A     -0.703198    18A     -0.682277
      19A     -0.666853    20A     -0.635014    21A     -0.605805
      22A     -0.592651    23A     -0.578767    24A     -0.551988
      25A     -0.548466    26A     -0.521843    27A     -0.502461
      28A     -0.484436    29A     -0.477067    30A     -0.470336
      31A     -0.457331    32A     -0.436381

  @DF-RHF Final Energy:  -384.09217257888355

   => Energetics <=

    Nuclear Repulsion Energy =            377.0486344207177467
    One-Electron Energy =               -1270.3178652187882562
    Two-Electron Energy =                 509.1770582191866197
    DFT Exchange-Correlation Energy =       0.0000000000000000
    Empirical Dispersion Energy =           0.0000000000000000
    PCM Polarization Energy =               0.0000000000000000
    EFP Energy =                            0.0000000000000000
    Total Energy =                       -384.0921725788839467
    Molecular point group: c1
  Basis Set: CC-PVTZ
  Basis Set:

  -Total Gradient:
     Atom            X                  Y                   Z
    ------   -----------------  -----------------  -----------------
       1       -0.000001010503    -0.000001933626     0.000003190888
       2        0.000000536536     0.000011237916    -0.000008855802
       3        0.000060993357     0.000093740738     0.000459762644
       4       -0.000072133824     0.000176239368    -0.000373707746
       5       -0.000039010230    -0.000097591633    -0.000288163496
       6       -0.000001657789     0.000002760196    -0.000000540061
       7        0.000063491138    -0.000182437024     0.000210986878
       8        0.000001046084     0.000000092133     0.000000368840
       9        0.000000135029    -0.000005765172    -0.000002157732
      10       -0.000001796357    -0.000004014231     0.000000206785
      11       -0.000003189027     0.000004574642    -0.000001697502
      12       -0.000002789938     0.000000107933     0.000002801255
      13       -0.000000568571     0.000001019799     0.000003326627
      14        0.000004910752    -0.000002943253    -0.000001714857
      15       -0.000001341081     0.000001843661    -0.000002568652
      16        0.000001128905    -0.000000898323    -0.000001900696
      17       -0.000008997954     0.000003543313     0.000001377784
      18       -0.000000671903     0.000000328616    -0.000000301992
      19       -0.000000403553    -0.000000016767     0.000000194173
      20        0.000001328929     0.000000111717    -0.000000607341

  **** Optimization is complete! (in 8 steps) ****
    Final optimized geometry and variables:
    Molecular point group: c1

    Geometry (in Angstrom), charge = 0, multiplicity = 1:

    H            3.383265525250     1.003465381678    -0.523032452650
    O            2.445294063397     0.993518701390    -0.403102391544
    C            2.101378601609    -0.201617548975     0.060018345110
    C            0.620402933833    -0.380150015865     0.292680532319
    O            2.902184249766    -1.050015805644     0.258890770468
    C           -0.261797702680     0.847893690071     0.086799142409
    H            0.326280205320    -1.196720442727    -0.355226325691
    H            0.525690275015    -0.758164847256     1.304406495916
    C           -1.732742383586     0.605140866368     0.429358825892
    H           -0.178980359331     1.188736778219    -0.939257341195
    H            0.111205722331     1.656204784938     0.704516504154
    C           -2.462024432273    -0.367293799527    -0.496275773552
    H           -2.247046880994     1.561171862747     0.399623095286
    H           -1.811677412258     0.252797429061     1.455362555735
    C           -3.946135765902    -0.491868912581    -0.166700765803
    H           -2.348309451127    -0.034154160729    -1.524525739683
    H           -2.006504849433    -1.350591999230    -0.441153468824
    H           -4.439475778383    -1.186952038081    -0.836044945179
    H           -4.448294317213     0.465679665922    -0.254532282498
    H           -4.092787768136    -0.848945953316     0.847225445556

  Mulliken Charges: (a.u.)
   Center  Symbol    Alpha    Beta     Spin     Total
       1     H     0.38583  0.38583  0.00000  0.22834
       2     O     4.14804  4.14804  0.00000 -0.29609
       3     C     2.81154  2.81154  0.00000  0.37692
       4     C     3.10375  3.10375  0.00000 -0.20751
       5     O     4.19805  4.19805  0.00000 -0.39611
       6     C     3.09781  3.09781  0.00000 -0.19563
       7     H     0.43625  0.43625  0.00000  0.12751
       8     H     0.43518  0.43518  0.00000  0.12965
       9     C     3.10039  3.10039  0.00000 -0.20079
      10     H     0.44532  0.44532  0.00000  0.10936
      11     H     0.44042  0.44042  0.00000  0.11915
      12     C     3.08729  3.08729  0.00000 -0.17459
      13     H     0.44577  0.44577  0.00000  0.10846
      14     H     0.45316  0.45316  0.00000  0.09369
      15     C     3.14966  3.14966  0.00000 -0.29932
      16     H     0.45290  0.45290  0.00000  0.09419
      17     H     0.45299  0.45299  0.00000  0.09403
      18     H     0.44735  0.44735  0.00000  0.10531
      19     H     0.45392  0.45392  0.00000  0.09216
      20     H     0.45437  0.45437  0.00000  0.09127

   Total alpha = 32.00000, Total beta = 32.00000, Total charge = -0.00000

*** Psi4 exiting successfully. Buy a developer a beer!
