  ==> Input File <==

--------------------------------------------------------------------------
set {
	reference rhf
	basis 6-31G*
}

set_num_threads( 4 )
memory 2 gb

molecule MOL {
0 1

H	 -0.216825	 0.021369	 -3.357402
C	 0.374198	 0.036393	 -2.447010
C	 -0.521757	 -0.028637	 -1.217342
H	 0.969602	 0.942322	 -2.434777
H	 1.053364	 -0.811668	 -2.481329
N	 0.263400	 0.031178	 0.000000
H	 -1.199035	 0.820290	 -1.219355
H	 -1.147901	 -0.924895	 -1.265384
C	 -0.521757	 -0.028637	 1.217342
H	 0.935769	 -0.712709	 0.000000
C	 -1.118602	 -1.415940	 1.412828
H	 0.136185	 0.201478	 2.050135
H	 -1.319041	 0.720788	 1.235865
H	 -0.335458	 -2.165134	 1.440357
H	 -1.681620	 -1.467689	 2.339478
H	 -1.796403	 -1.667990	 0.601220

	symmetry c1
}
set optking {
	frozen_dihedral = ("
		12 9 6 3
	")
}

ee = optimize('scf')
oeprop('DIPOLE', 'QUADRUPOLE', 'MULLIKEN_CHARGES')
f=open( 'psi4out.xyz', 'w' )
f.write( "16  " )
f.write( str(ee) + "\n" )
f.write( MOL.save_string_xyz() )
f.close()
--------------------------------------------------------------------------

    Molecular point group: c1
  Charge       = 0
  Multiplicity = 1
  Basis Set: 6-31G*
  Basis Set:
  @DF-RHF Final Energy:  -212.30872657686081
    Total Energy =                       -212.3087265768609200
    Molecular point group: c1
  Basis Set: 6-31G*
  Basis Set:
  Basis Set: 6-31G*
  Basis Set:
  @DF-RHF Final Energy:  -212.31097266365165
    Total Energy =                       -212.3109726636517394
  Basis Set: 6-31G*
  Basis Set:
  Basis Set: 6-31G*
  Basis Set:
  @DF-RHF Final Energy:  -212.31162290767270
    Total Energy =                       -212.3116229076729269
  Basis Set: 6-31G*
  Basis Set:
  Basis Set: 6-31G*
  Basis Set:
  @DF-RHF Final Energy:  -212.31164471470387
    Total Energy =                       -212.3116447147037888
  Basis Set: 6-31G*
  Basis Set:
  Basis Set: 6-31G*
  Basis Set:
  @DF-RHF Final Energy:  -212.31164670392099
    Total Energy =                       -212.3116467039209851
  Basis Set: 6-31G*
  Basis Set:
  Charge       = 0
  Multiplicity = 1
  Basis Set: 6-31G*
  Basis Set:

    Orbital Energies (a.u.)
    -----------------------

    Doubly Occupied:

       1A    -15.533075     2A    -11.240927     3A    -11.240302
       4A    -11.208471     5A    -11.206889     6A     -1.202681
       7A     -1.024500     8A     -0.964972     9A     -0.847051
      10A     -0.810647    11A     -0.655766    12A     -0.625307
      13A     -0.613703    14A     -0.568311    15A     -0.554062
      16A     -0.532133    17A     -0.510989    18A     -0.489251
      19A     -0.484108    20A     -0.474029    21A     -0.353970

  @DF-RHF Final Energy:  -212.31164683132678

   => Energetics <=

    Nuclear Repulsion Energy =            190.8827142823957104
    One-Electron Energy =                -664.1064346106948051
    Two-Electron Energy =                 260.9120734969721980
    DFT Exchange-Correlation Energy =       0.0000000000000000
    Empirical Dispersion Energy =           0.0000000000000000
    PCM Polarization Energy =               0.0000000000000000
    EFP Energy =                            0.0000000000000000
    Total Energy =                       -212.3116468313269252
    Molecular point group: c1
  Basis Set: 6-31G*
  Basis Set:

  -Total Gradient:
     Atom            X                  Y                   Z
    ------   -----------------  -----------------  -----------------
       1       -0.000001863221    -0.000000124897     0.000012087643
       2        0.000007591970    -0.000005717025     0.000008582490
       3       -0.000035585321     0.000281187676    -0.000005041118
       4        0.000002420714     0.000003959763    -0.000002883124
       5        0.000003791982    -0.000000906858    -0.000005409680
       6        0.000021443706    -0.000339247334     0.000002071578
       7       -0.000003114248     0.000001999661     0.000000607733
       8        0.000000420227    -0.000001781387     0.000001006095
       9        0.000083417661    -0.000286313711     0.000022415011
      10        0.000006797866    -0.000002817747    -0.000007529172
      11        0.000002337025     0.000000918627    -0.000006973894
      12       -0.000073253272     0.000348882944    -0.000029900685
      13       -0.000011597468     0.000005511561     0.000015283714
      14       -0.000002738537    -0.000001123330     0.000000153093
      15        0.000004895138     0.000001409742    -0.000006276165
      16       -0.000004964223    -0.000005837683     0.000001806485

  **** Optimization is complete! (in 6 steps) ****
    Final optimized geometry and variables:
    Molecular point group: c1

    Geometry (in Angstrom), charge = 0, multiplicity = 1:

    H            0.125356513095     0.410166419213    -3.176913111725
    C            0.701418589540     0.432557117298    -2.256876026032
    C           -0.198859402727     0.217115336787    -1.047086172323
    H            1.208620054560     1.387951116644    -2.186375291151
    H            1.458148853662    -0.345003682402    -2.323428558969
    N            0.572149609646     0.286756376035     0.179642180680
    H           -0.947847857395     1.002838785284    -1.010816133649
    H           -0.740595431120    -0.723880521444    -1.165246515790
    C           -0.183938853000     0.232762242471     1.417136160196
    H            1.284082888874    -0.418600524542     0.179649707322
    C           -0.884260078136    -1.093108772075     1.729160314126
    H            0.498277088688     0.473200991923     2.226912818309
    H           -0.917596711629     1.033116915605     1.390503054106
    H           -0.168743412682    -1.910997273641     1.763543176050
    H           -1.377520640718    -1.044818009825     2.695854548283
    H           -1.636852895308    -1.339807621824     0.987603691228

  Mulliken Charges: (a.u.)
   Center  Symbol    Alpha    Beta     Spin     Total
       1     H     0.42125  0.42125  0.00000  0.15750
       2     C     3.23964  3.23964  0.00000 -0.47927
       3     C     3.05577  3.05577  0.00000 -0.11153
       4     H     0.41231  0.41231  0.00000  0.17538
       5     H     0.42506  0.42506  0.00000  0.14988
       6     N     3.84868  3.84868  0.00000 -0.69735
       7     H     0.42124  0.42124  0.00000  0.15753
       8     H     0.43356  0.43356  0.00000  0.13288
       9     C     3.05841  3.05841  0.00000 -0.11682
      10     H     0.33564  0.33564  0.00000  0.32871
      11     C     3.24652  3.24652  0.00000 -0.49304
      12     H     0.41736  0.41736  0.00000  0.16528
      13     H     0.42007  0.42007  0.00000  0.15986
      14     H     0.42478  0.42478  0.00000  0.15045
      15     H     0.42069  0.42069  0.00000  0.15861
      16     H     0.41904  0.41904  0.00000  0.16192

   Total alpha = 21.00000, Total beta = 21.00000, Total charge =  0.00000
