  ==> Input File <==

--------------------------------------------------------------------------
set {
	reference rhf
	basis cc-pvtz
}

set_num_threads( 4 )
memory 2 gb

molecule MOL {
0 1

O	 -2.817697	 1.304178	 0.001046
C	 -2.664672	 0.129869	 0.003507
C	 -3.797908	 -0.860100	 -0.001145
O	 -1.481217	 -0.452708	 0.001092
H	 -4.408836	 -0.679689	 -0.875387
H	 -3.443486	 -1.878443	 -0.002770
H	 -4.412123	 -0.683688	 0.871605
C	 -0.332055	 0.384012	 -0.000250
C	 0.892252	 -0.506059	 -0.000295
H	 -0.360822	 1.020205	 -0.874146
H	 -0.359817	 1.021310	 0.872861
C	 0.921417	 -1.443066	 1.203669
H	 1.780484	 0.117380	 -0.006394
H	 0.907973	 -1.082845	 -0.919390
C	 2.147711	 -2.351300	 1.224668
H	 0.894975	 -0.857683	 2.119422
H	 0.023298	 -2.055712	 1.208086
C	 2.176640	 -3.288628	 2.426995
H	 3.045833	 -1.740215	 1.222048
H	 2.175121	 -2.936893	 0.310110
H	 2.184654	 -2.731329	 3.357693
H	 3.058267	 -3.918712	 2.411710
H	 1.307015	 -3.937061	 2.438860

	symmetry c1
}
set optking {
	frozen_dihedral = ("
		13 9 8 10
	")
}

ee = optimize('scf')
oeprop('DIPOLE', 'QUADRUPOLE', 'MULLIKEN_CHARGES')
f=open( 'psi4out.xyz', 'w' )
f.write( "23  " )
f.write( str(ee) + "\n" )
f.write( MOL.save_string_xyz() )
f.close()
--------------------------------------------------------------------------

    Molecular point group: c1
  Charge       = 0
  Multiplicity = 1
  Basis Set: CC-PVTZ
  Basis Set:
  @DF-RHF Final Energy:  -423.13399204522580
    Total Energy =                       -423.1339920452255683
    Molecular point group: c1
  Basis Set: CC-PVTZ
  Basis Set:
  Basis Set: CC-PVTZ
  Basis Set:
  @DF-RHF Final Energy:  -423.13415348420040
    Total Energy =                       -423.1341534842008514
  Basis Set: CC-PVTZ
  Basis Set:
  Basis Set: CC-PVTZ
  Basis Set:
  @DF-RHF Final Energy:  -423.13428041543511
    Total Energy =                       -423.1342804154356827
  Basis Set: CC-PVTZ
  Basis Set:
  Basis Set: CC-PVTZ
  Basis Set:
  @DF-RHF Final Energy:  -423.13439376974657
    Total Energy =                       -423.1343937697464526
  Basis Set: CC-PVTZ
  Basis Set:
  Basis Set: CC-PVTZ
  Basis Set:
  @DF-RHF Final Energy:  -423.13442400936685
    Total Energy =                       -423.1344240093670805
  Basis Set: CC-PVTZ
  Basis Set:
  Basis Set: CC-PVTZ
  Basis Set:
  @DF-RHF Final Energy:  -423.13442792980896
    Total Energy =                       -423.1344279298089077
  Basis Set: CC-PVTZ
  Basis Set:
  Charge       = 0
  Multiplicity = 1
  Basis Set: CC-PVTZ
  Basis Set:

    Orbital Energies (a.u.)
    -----------------------

    Doubly Occupied:

       1A    -20.595972     2A    -20.529791     3A    -11.366767
       4A    -11.280342     5A    -11.231169     6A    -11.223661
       7A    -11.217405     8A    -11.215987     9A    -11.209477
      10A     -1.471333    11A     -1.364213    12A     -1.092998
      13A     -1.042436    14A     -1.003646    15A     -0.931871
      16A     -0.843627    17A     -0.803228    18A     -0.775353
      19A     -0.691240    20A     -0.687482    21A     -0.669578
      22A     -0.644927    23A     -0.608580    24A     -0.587102
      25A     -0.580235    26A     -0.572205    27A     -0.560319
      28A     -0.532524    29A     -0.530699    30A     -0.510754
      31A     -0.494837    32A     -0.474680    33A     -0.468827
      34A     -0.461816    35A     -0.450121    36A     -0.441126

  @DF-RHF Final Energy:  -423.13442837082306

   => Energetics <=

    Nuclear Repulsion Energy =            459.3385240798059499
    One-Electron Energy =               -1486.6132375184420198
    Two-Electron Energy =                 604.1402850678133518
    DFT Exchange-Correlation Energy =       0.0000000000000000
    Empirical Dispersion Energy =           0.0000000000000000
    PCM Polarization Energy =               0.0000000000000000
    EFP Energy =                            0.0000000000000000
    Total Energy =                       -423.1344283708227749
    Molecular point group: c1
  Basis Set: CC-PVTZ
  Basis Set:

  -Total Gradient:
     Atom            X                  Y                   Z
    ------   -----------------  -----------------  -----------------
       1        0.000010038709    -0.000000360542     0.000023264937
       2       -0.000004383170    -0.000013612343     0.000013417779
       3       -0.000006708522    -0.000002023606     0.000016444706
       4       -0.000025271533    -0.000020995800     0.000044039511
       5       -0.000003012732    -0.000014441460    -0.000015557985
       6       -0.000001465430     0.000000676266    -0.000002202854
       7       -0.000001029455     0.000013340024    -0.000014555353
       8        0.001136798647     0.001505381462     0.001215587339
       9       -0.000270769175    -0.000330961583    -0.002126206434
      10       -0.000825469761    -0.001149209680    -0.000806088574
      11       -0.000009823533    -0.000016895440     0.000021496409
      12        0.000030217997    -0.000034758032     0.000014741152
      13       -0.000023755568     0.000045810945     0.001626073883
      14       -0.000001687277     0.000001042625     0.000001466354
      15       -0.000015347423    -0.000000440013    -0.000010064167
      16        0.000002722687     0.000004113896     0.000001089509
      17        0.000002542842     0.000017092965     0.000000170498
      18        0.000001610269     0.000003512307     0.000002288108
      19       -0.000001359627    -0.000003641354     0.000000614470
      20        0.000004399727    -0.000006053056    -0.000009061050
      21       -0.000002787108    -0.000000496258     0.000003507102
      22        0.000002356032     0.000001825912     0.000001868410
      23        0.000002183390     0.000001092767    -0.000002333751

  **** Optimization is complete! (in 7 steps) ****
    Final optimized geometry and variables:
    Molecular point group: c1

    Geometry (in Angstrom), charge = 0, multiplicity = 1:

    O           -2.239339831593     2.121575349306    -0.541291184901
    C           -2.117522210709     0.943694615758    -0.558001788596
    C           -3.277514630911    -0.014754509759    -0.586246873352
    O           -0.950125046947     0.330136175898    -0.553775658556
    H           -3.878522301289     0.198349781010    -1.460045032352
    H           -2.951700714583    -1.042516476025    -0.604761832331
    H           -3.891338765503     0.162691449685     0.286660993023
    C            0.221768940021     1.138053605169    -0.532785844279
    C            1.432910688689     0.228798221778    -0.520748323448
    H            0.216529536753     1.766491378781    -1.411902422842
    H            0.193110211895     1.775647965667     0.339948869422
    C            1.504072818836    -0.705073652472     0.685065238916
    H            2.310371695613     0.869664488306    -0.523911099258
    H            1.455371546075    -0.348578768958    -1.439435620278
    C            2.762811312240    -1.567834387837     0.693495384692
    H            1.468396396570    -0.113762774381     1.597401133055
    H            0.628918158000    -1.344898360320     0.699591096106
    C            2.837786069090    -2.502630559099     1.895935456960
    H            3.640160649782    -0.926702633898     0.680977068731
    H            2.801509733434    -2.153998062727    -0.220665218853
    H            2.834800688990    -1.944542018069     2.826312380041
    H            3.741337740236    -3.100819151736     1.872473428996
    H            1.991879206521    -3.181549149000     1.916621512790

  Mulliken Charges: (a.u.)
   Center  Symbol    Alpha    Beta     Spin     Total
       1     O     4.20287  4.20287  0.00000 -0.40575
       2     C     2.81202  2.81202  0.00000  0.37597
       3     C     3.13993  3.13993  0.00000 -0.27986
       4     O     4.14827  4.14827  0.00000 -0.29654
       5     H     0.44156  0.44156  0.00000  0.11687
       6     H     0.44232  0.44232  0.00000  0.11536
       7     H     0.44200  0.44200  0.00000  0.11601
       8     C     2.99371  2.99371  0.00000  0.01258
       9     C     3.08825  3.08825  0.00000 -0.17650
      10     H     0.44435  0.44435  0.00000  0.11130
      11     H     0.44996  0.44996  0.00000  0.10007
      12     C     3.08873  3.08873  0.00000 -0.17747
      13     H     0.45157  0.45157  0.00000  0.09685
      14     H     0.45091  0.45091  0.00000  0.09818
      15     C     3.08546  3.08546  0.00000 -0.17092
      16     H     0.45578  0.45578  0.00000  0.08843
      17     H     0.44627  0.44627  0.00000  0.10747
      18     C     3.14950  3.14950  0.00000 -0.29900
      19     H     0.45477  0.45477  0.00000  0.09045
      20     H     0.45398  0.45398  0.00000  0.09204
      21     H     0.45483  0.45483  0.00000  0.09034
      22     H     0.44809  0.44809  0.00000  0.10383
      23     H     0.45486  0.45486  0.00000  0.09027

   Total alpha = 36.00000, Total beta = 36.00000, Total charge = -0.00000
