                              Psi4 1.0.54 Driver

  ==> Input File <==

--------------------------------------------------------------------------
set {
	reference rhf
	basis cc-pvtz
}

set_num_threads( 4 )
memory 2 gb

molecule MOL {
0 1

H	 2.526990	 -1.049037	 -1.113216
N	 1.549174	 -0.858076	 -1.131069
C	 1.272756	 0.450512	 -0.573366
C	 0.811777	 -1.897598	 -0.441517
H	 1.821233	 1.197568	 -1.134108
H	 1.574909	 0.527207	 0.472789
C	 -0.214989	 0.735521	 -0.670635
H	 1.026218	 -2.852037	 -0.906719
H	 1.084805	 -1.969259	 0.612968
C	 -0.675364	 -1.609513	 -0.538960
H	 -0.493463	 0.815104	 -1.725486
H	 -0.432129	 1.687662	 -0.201172
N	 -0.976577	 -0.298712	 -0.000000
H	 -1.225385	 -2.352978	 0.025713
H	 -0.985554	 -1.691482	 -1.584739
C	 -2.391156	 -0.021003	 -0.000000
H	 -2.853954	 -0.458728	 -0.875714
H	 -2.853954	 -0.458728	 0.875714
H	 -2.614037	 1.049773	 -0.000000

	symmetry c1
}
set optking {
	frozen_dihedral = ("
		7 13 16 19
	")
}

ee,wfn = optimize('scf', return_wfn=True)
oeprop( wfn, 'DIPOLE', 'QUADRUPOLE', 'MULLIKEN_CHARGES')
f=open( 'psi4out.xyz', 'w' )
f.write( "19  " )
f.write( str(ee) + "\n" )
f.write( MOL.save_string_xyz() )
f.close()
--------------------------------------------------------------------------

    Molecular point group: c1
  Charge       = 0
  Multiplicity = 1
  Basis Set: CC-PVTZ
  Basis Set:
  @DF-RHF Final Energy:  -305.30574391205386
    Total Energy =                       -305.3057439120543108
    Molecular point group: c1
  Basis Set: CC-PVTZ
  Basis Set:
  Basis Set: CC-PVTZ
  Basis Set:
  @DF-RHF Final Energy:  -305.30661996731686
    Total Energy =                       -305.3066199673171468
  Basis Set: CC-PVTZ
  Basis Set:
  Basis Set: CC-PVTZ
  Basis Set:
  @DF-RHF Final Energy:  -305.30673213771246
    Total Energy =                       -305.3067321377124017
  Basis Set: CC-PVTZ
  Basis Set:
  Basis Set: CC-PVTZ
  Basis Set:
  @DF-RHF Final Energy:  -305.30673799510907
    Total Energy =                       -305.3067379951089606
  Basis Set: CC-PVTZ
  Basis Set:
  Charge       = 0
  Multiplicity = 1
  Basis Set: CC-PVTZ
  Basis Set:

    Orbital Energies (a.u.)
    -----------------------

    Doubly Occupied:

       1A    -15.534017     2A    -15.531112     3A    -11.237021
       4A    -11.237001     5A    -11.236073     6A    -11.235785
       7A    -11.233236     8A     -1.248107     9A     -1.186699
      10A     -1.024268    11A     -0.965654    12A     -0.862239
      13A     -0.858432    14A     -0.756428    15A     -0.692473
      16A     -0.634460    17A     -0.626937    18A     -0.607281
      19A     -0.605956    20A     -0.582275    21A     -0.544626
      22A     -0.531022    23A     -0.512292    24A     -0.489565
      25A     -0.469001    26A     -0.458513    27A     -0.365978
      28A     -0.342296

  @DF-RHF Final Energy:  -305.30673867336611

   => Energetics <=

    Nuclear Repulsion Energy =            340.0460949446127188
    One-Electron Energy =               -1087.4881712938263263
    Two-Electron Energy =                 442.1353376758472677
    DFT Exchange-Correlation Energy =       0.0000000000000000
    Empirical Dispersion Energy =           0.0000000000000000
    PCM Polarization Energy =               0.0000000000000000
    EFP Energy =                            0.0000000000000000
    Total Energy =                       -305.3067386733663398
    Molecular point group: c1
  Basis Set: CC-PVTZ
  Basis Set:

  -Total Gradient:
     Atom            X                  Y                   Z
    ------   -----------------  -----------------  -----------------
       1        0.000000275791     0.000004562968     0.000000393089
       2       -0.000010115020     0.000005020876    -0.000002511480
       3        0.000012047704     0.000007585798     0.000013803693
       4       -0.000009732277    -0.000014375013    -0.000015032460
       5        0.000009986558    -0.000000483256    -0.000002081820
       6       -0.000001045736     0.000003414665     0.000002741795
       7        0.000424367484     0.001571455616     0.002884199354
       8        0.000014474795    -0.000007276509    -0.000001898407
       9       -0.000009466999     0.000004619413    -0.000010605008
      10       -0.000004604977    -0.000011683152     0.000019225172
      11       -0.000011054826    -0.000009377375     0.000013571391
      12        0.000004588241    -0.000004310496     0.000001238621
      13       -0.000593564110    -0.002172457349    -0.005211315668
      14       -0.000006870774     0.000000145485    -0.000001583671
      15        0.000008943296     0.000010181418     0.000015586932
      16        0.000304312336     0.000513616023     0.006687226186
      17       -0.000013903444    -0.000003506244    -0.000007043115
      18        0.000023325079    -0.000007308956    -0.000037578491
      19       -0.000141963120     0.000110176090    -0.004348336111

  **** Optimization is complete! (in 5 steps) ****
    Final optimized geometry and variables:
    Molecular point group: c1

    Geometry (in Angstrom), charge = 0, multiplicity = 1:

    H            2.618757096119    -0.585018661315    -0.627037018540
    N            1.642796740820    -0.384514110851    -0.644916091032
    C            1.381562957723     0.933805904266    -0.103142952938
    C            0.896907964148    -1.407601822777     0.059738875991
    H            1.946051571929     1.666932377638    -0.666540768358
    H            1.676721447629     1.015555201482     0.944835257487
    C           -0.101183577990     1.242227863812    -0.213323847147
    H            1.105479520739    -2.371283243057    -0.389000214221
    H            1.167571431335    -1.463380160087     1.115897264633
    C           -0.587510453100    -1.108886812122    -0.046869499712
    H           -0.364933198980     1.333386021375    -1.271628407212
    H           -0.305419840903     2.194718312887     0.259813900413
    N           -0.878529420868     0.217244212802     0.449224587783
    H           -1.145724538790    -1.830360372018     0.539091898348
    H           -0.899045570106    -1.220341926470    -1.089744540908
    C           -2.294104847721     0.496028996435     0.502883849771
    H           -2.823530346582     0.127638375131    -0.379721448143
    H           -2.745135396837     0.039703006590     1.375962106248
    H           -2.463477697175     1.564163111770     0.534208927995

  Mulliken Charges: (a.u.)
   Center  Symbol    Alpha    Beta     Spin     Total
       1     H     0.43992  0.43992  0.00000  0.12016
       2     N     3.64280  3.64280  0.00000 -0.28561
       3     C     3.04180  3.04180  0.00000 -0.08360
       4     C     3.04098  3.04098  0.00000 -0.08197
       5     H     0.45259  0.45259  0.00000  0.09481
       6     H     0.46594  0.46594  0.00000  0.06812
       7     C     3.03193  3.03193  0.00000 -0.06386
       8     H     0.45255  0.45255  0.00000  0.09489
       9     H     0.46581  0.46581  0.00000  0.06838
      10     C     3.03382  3.03382  0.00000 -0.06764
      11     H     0.47033  0.47033  0.00000  0.05935
      12     H     0.45427  0.45427  0.00000  0.09145
      13     N     3.61464  3.61464  0.00000 -0.22927
      14     H     0.45458  0.45458  0.00000  0.09084
      15     H     0.46843  0.46843  0.00000  0.06315
      16     C     3.09516  3.09516  0.00000 -0.19032
      17     H     0.46904  0.46904  0.00000  0.06192
      18     H     0.45047  0.45047  0.00000  0.09906
      19     H     0.45494  0.45494  0.00000  0.09012

   Total alpha = 28.00000, Total beta = 28.00000, Total charge = -0.00000

*** Psi4 exiting successfully. Buy a developer a beer!
