                              Psi4 1.0.54 Driver

  ==> Input File <==

--------------------------------------------------------------------------
set {
	reference rhf
	basis cc-pvtz
}

set_num_threads( 4 )
memory 2 gb

molecule MOL {
0 1

O	 -2.817697	 1.304178	 0.001046
C	 -2.664672	 0.129869	 0.003507
C	 -3.797908	 -0.860100	 -0.001145
O	 -1.481217	 -0.452708	 0.001092
H	 -4.408836	 -0.679689	 -0.875387
H	 -3.443486	 -1.878443	 -0.002770
H	 -4.412123	 -0.683688	 0.871605
C	 -0.332055	 0.384012	 -0.000250
C	 0.892252	 -0.506059	 -0.000295
H	 -0.360822	 1.020205	 -0.874146
H	 -0.359817	 1.021310	 0.872861
C	 2.188199	 0.299473	 -0.001416
H	 0.857046	 -1.152781	 -0.871031
H	 0.857910	 -1.151798	 0.871202
C	 1.959713	 1.799549	 0.161962
H	 2.834552	 -0.052453	 0.798804
H	 2.726289	 0.119224	 -0.928748
C	 3.254418	 2.604994	 0.159705
H	 1.423619	 1.981089	 1.089164
H	 1.314065	 2.152407	 -0.637236
H	 3.907563	 2.298407	 0.969798
H	 3.057361	 3.664184	 0.277141
H	 3.797322	 2.470787	 -0.769864

	symmetry c1
}
set optking {
	frozen_dihedral = ("
		16 12 9 13
	")
}

ee,wfn = optimize('scf', return_wfn=True)
oeprop( wfn, 'DIPOLE', 'QUADRUPOLE', 'MULLIKEN_CHARGES')
f=open( 'psi4out.xyz', 'w' )
f.write( "23  " )
f.write( str(ee) + "\n" )
f.write( MOL.save_string_xyz() )
f.close()
--------------------------------------------------------------------------

    Molecular point group: c1
  Charge       = 0
  Multiplicity = 1
  Basis Set: CC-PVTZ
  Basis Set:
  @DF-RHF Final Energy:  -423.12043239188176
    Total Energy =                       -423.1204323918819910
    Molecular point group: c1
  Basis Set: CC-PVTZ
  Basis Set:
  Basis Set: CC-PVTZ
  Basis Set:
  @DF-RHF Final Energy:  -423.11546853093131
    Total Energy =                       -423.1154685309311390
  Basis Set: CC-PVTZ
  Basis Set:
  Basis Set: CC-PVTZ
  Basis Set:
  @DF-RHF Final Energy:  -423.12428049612510
    Total Energy =                       -423.1242804961251522
  Basis Set: CC-PVTZ
  Basis Set:
  Basis Set: CC-PVTZ
  Basis Set:
  @DF-RHF Final Energy:  -423.12490485434211
    Total Energy =                       -423.1249048543426170
  Basis Set: CC-PVTZ
  Basis Set:
  Basis Set: CC-PVTZ
  Basis Set:
  @DF-RHF Final Energy:  -423.12367406851979
    Total Energy =                       -423.1236740685192217
  Basis Set: CC-PVTZ
  Basis Set:
  Basis Set: CC-PVTZ
  Basis Set:
  @DF-RHF Final Energy:  -423.12491412985275
    Total Energy =                       -423.1249141298523000
  Basis Set: CC-PVTZ
  Basis Set:
  Basis Set: CC-PVTZ
  Basis Set:
  @DF-RHF Final Energy:  -423.12501219390873
    Total Energy =                       -423.1250121939085602
  Basis Set: CC-PVTZ
  Basis Set:
  Charge       = 0
  Multiplicity = 1
  Basis Set: CC-PVTZ
  Basis Set:

    Orbital Energies (a.u.)
    -----------------------

    Doubly Occupied:

       1A    -20.595345     2A    -20.529186     3A    -11.366089
       4A    -11.278712     5A    -11.230417     6A    -11.222557
       7A    -11.221562     8A    -11.219522     9A    -11.210669
      10A     -1.470645    11A     -1.363572    12A     -1.091261
      13A     -1.040987    14A     -1.001927    15A     -0.931719
      16A     -0.854471    17A     -0.789370    18A     -0.778056
      19A     -0.694259    20A     -0.687942    21A     -0.667971
      22A     -0.645945    23A     -0.606089    24A     -0.589090
      25A     -0.577293    26A     -0.569807    27A     -0.568609
      28A     -0.528768    29A     -0.525666    30A     -0.514162
      31A     -0.500063    32A     -0.474441    33A     -0.466267
      34A     -0.460195    35A     -0.448465    36A     -0.439136

  @DF-RHF Final Energy:  -423.12501254481396

   => Energetics <=

    Nuclear Repulsion Energy =            457.9548557208068473
    One-Electron Energy =               -1483.8392585203478120
    Two-Electron Energy =                 602.7593902547271227
    DFT Exchange-Correlation Energy =       0.0000000000000000
    Empirical Dispersion Energy =           0.0000000000000000
    PCM Polarization Energy =               0.0000000000000000
    EFP Energy =                            0.0000000000000000
    Total Energy =                       -423.1250125448138988
    Molecular point group: c1
  Basis Set: CC-PVTZ
  Basis Set:

  -Total Gradient:
     Atom            X                  Y                   Z
    ------   -----------------  -----------------  -----------------
       1       -0.000072911298     0.000067612369    -0.000002429764
       2        0.000116415045    -0.000121881129     0.000011252569
       3       -0.000029511292     0.000026006153    -0.000000407955
       4       -0.000062626498     0.000014180644     0.000015830007
       5        0.000000795182    -0.000001865528     0.000000810643
       6        0.000005067814     0.000012557732    -0.000000343959
       7        0.000002783006    -0.000001283337    -0.000005080928
       8        0.000049066350     0.000002856958    -0.000054147582
       9        0.000980185672    -0.001684035304     0.002029189766
      10       -0.000007393629    -0.000006002574     0.000016849496
      11       -0.000003314826    -0.000001505524     0.000006083632
      12        0.000985045667    -0.001649257854    -0.001948874280
      13       -0.000986911470     0.001683512426    -0.001397444602
      14        0.000005617159    -0.000013142659     0.000002803694
      15        0.000008626346    -0.000012664450    -0.000029549019
      16       -0.000994043302     0.001686341561     0.001341970701
      17        0.000002779902    -0.000003803339    -0.000003282801
      18       -0.000002715277    -0.000004958755     0.000006842181
      19       -0.000011928091     0.000000656460     0.000003502199
      20        0.000011311360     0.000007196876     0.000000824187
      21        0.000006931579    -0.000002832771     0.000004005733
      22       -0.000004172638     0.000001957797     0.000003802803
      23        0.000000903235     0.000000354244    -0.000002206722

  **** Optimization is complete! (in 8 steps) ****
    Final optimized geometry and variables:
    Molecular point group: c1

    Geometry (in Angstrom), charge = 0, multiplicity = 1:

    O           -2.623828684208     0.670043167366    -0.217715952370
    C           -2.397696210781    -0.489137814467    -0.127638583227
    C           -3.466085381779    -1.549021391560    -0.113353892375
    O           -1.182392468604    -0.991375538259    -0.028951635859
    H           -4.042143123134    -1.469028293148    -1.025465411407
    H           -3.049722650451    -2.539820646285    -0.025832226951
    H           -4.133216395384    -1.353660746208     0.715490285589
    C           -0.088338707000    -0.081759295646    -0.031270365560
    C            1.173885202974    -0.916732988603     0.090195748187
    H           -0.114063424335     0.488240482669    -0.948244493120
    H           -0.209403119424     0.607180385442     0.790774527247
    C            2.509337154027    -0.129793786800     0.095707052133
    H            1.168818391558    -1.611050677655    -0.741465457590
    H            1.090219691711    -1.511479152734     0.991455717068
    C            2.427641676326     1.397821645704     0.168794485446
    H            3.095636121836    -0.458561107291     0.946915181083
    H            3.079919478283    -0.395423827777    -0.787274315186
    C            3.810861156451     2.040779586001     0.175679725458
    H            1.894870538581     1.699791564812     1.064748485384
    H            1.863223510087     1.787684413905    -0.671553735651
    H            4.395366804785     1.703836944663     1.025291189158
    H            3.739363727705     3.120723887957     0.230636399158
    H            4.363216880176     1.790830355860    -0.724003721078

  Mulliken Charges: (a.u.)
   Center  Symbol    Alpha    Beta     Spin     Total
       1     O     4.20228  4.20228  0.00000 -0.40456
       2     C     2.81880  2.81880  0.00000  0.36241
       3     C     3.14046  3.14046  0.00000 -0.28092
       4     O     4.14505  4.14505  0.00000 -0.29010
       5     H     0.44216  0.44216  0.00000  0.11567
       6     H     0.44176  0.44176  0.00000  0.11649
       7     H     0.44222  0.44222  0.00000  0.11557
       8     C     2.97777  2.97777  0.00000  0.04445
       9     C     3.08887  3.08887  0.00000 -0.17775
      10     H     0.45259  0.45259  0.00000  0.09482
      11     H     0.45264  0.45264  0.00000  0.09471
      12     C     3.09940  3.09940  0.00000 -0.19879
      13     H     0.44777  0.44777  0.00000  0.10447
      14     H     0.44791  0.44791  0.00000  0.10418
      15     C     3.09399  3.09399  0.00000 -0.18799
      16     H     0.44971  0.44971  0.00000  0.10059
      17     H     0.44954  0.44954  0.00000  0.10091
      18     C     3.15037  3.15037  0.00000 -0.30075
      19     H     0.45051  0.45051  0.00000  0.09898
      20     H     0.45028  0.45028  0.00000  0.09944
      21     H     0.45472  0.45472  0.00000  0.09055
      22     H     0.44648  0.44648  0.00000  0.10703
      23     H     0.45471  0.45471  0.00000  0.09058

   Total alpha = 36.00000, Total beta = 36.00000, Total charge = -0.00000

*** Psi4 exiting successfully. Buy a developer a beer!
