  ==> Input File <==

--------------------------------------------------------------------------
set {
	reference rhf
	basis 6-31G*
}

set_num_threads( 1 )
memory 2 gb

molecule MOL {
0 1

H	 2.591676	 2.013956	 0.335017
O	 3.341076	 1.666752	 -0.126416
C	 3.569581	 0.339145	 0.272707
C	 2.539767	 -0.640285	 -0.279495
H	 4.553106	 0.084646	 -0.100901
H	 3.608576	 0.269204	 1.359154
C	 1.088640	 -0.238137	 -0.004953
H	 2.695332	 -0.736613	 -1.350890
H	 2.733065	 -1.618183	 0.158362
C	 0.081308	 -1.268098	 -0.523877
H	 0.891953	 0.725853	 -0.465824
H	 0.945765	 -0.107948	 1.067884
C	 -1.384115	 -0.955680	 -0.199422
H	 0.197289	 -1.370928	 -1.601291
H	 0.328609	 -2.238617	 -0.098865
C	 -1.946120	 0.289247	 -0.891366
H	 -1.988086	 -1.814050	 -0.486191
H	 -1.499420	 -0.852325	 0.878474
C	 -3.437445	 0.499527	 -0.620866
H	 -1.784975	 0.206639	 -1.965293
H	 -1.402691	 1.174128	 -0.568917
C	 -3.999514	 1.745099	 -1.305186
H	 -3.990653	 -0.375762	 -0.954512
H	 -3.601665	 0.572572	 0.452251
H	 -3.879791	 1.687771	 -2.383427
H	 -5.058035	 1.865405	 -1.096157
H	 -3.491383	 2.643014	 -0.964724

	symmetry c1
}
set optking {
	frozen_dihedral = ("
		14 10 7 4,
		14 10 13 16,
		10 7 4 8,
		10 13 16 20,
		20 16 19 22,
		4 3 2 1
	")
}

ee = energy('scf')
oeprop('DIPOLE', 'QUADRUPOLE', 'MULLIKEN_CHARGES')
f=open( 'psi4out.xyz', 'w' )
f.write( "27  " )
f.write( str(ee) + "\n" )
f.write( MOL.save_string_xyz() )
f.close()
--------------------------------------------------------------------------

    Molecular point group: c1

    Geometry (in Angstrom), charge = 0, multiplicity = 1:

       Center              X                  Y                   Z               Mass
    ------------   -----------------  -----------------  -----------------  -----------------
           H          2.565777378285     1.813743617774     0.738428649158     1.007825032070
           O          3.315177378285     1.466539617774     0.276995649158    15.994914619560
           C          3.543682378285     0.138932617774     0.676118649158    12.000000000000
           C          2.513868378285    -0.840497382226     0.123916649158    12.000000000000
           H          4.527207378285    -0.115566382226     0.302510649158     1.007825032070
           H          3.582677378285     0.068991617774     1.762565649158     1.007825032070
           C          1.062741378285    -0.438349382226     0.398458649158    12.000000000000
           H          2.669433378285    -0.936825382226    -0.947478350842     1.007825032070
           H          2.707166378285    -1.818395382226     0.561773649158     1.007825032070
           C          0.055409378285    -1.468310382226    -0.120465350842    12.000000000000
           H          0.866054378285     0.525640617774    -0.062412350842     1.007825032070
           H          0.919866378285    -0.308160382226     1.471295649158     1.007825032070
           C         -1.410013621715    -1.155892382226     0.203989649158    12.000000000000
           H          0.171390378285    -1.571140382226    -1.197879350842     1.007825032070
           H          0.302710378285    -2.438829382226     0.304546649158     1.007825032070
           C         -1.972018621715     0.089034617774    -0.487954350842    12.000000000000
           H         -2.013984621715    -2.014262382226    -0.082779350842     1.007825032070
           H         -1.525318621715    -1.052537382226     1.281885649158     1.007825032070
           C         -3.463343621715     0.299314617774    -0.217454350842    12.000000000000
           H         -1.810873621715     0.006426617774    -1.561881350842     1.007825032070
           H         -1.428589621715     0.973915617774    -0.165505350842     1.007825032070
           C         -4.025412621715     1.544886617774    -0.901774350842    12.000000000000
           H         -4.016551621715    -0.575974382226    -0.551100350842     1.007825032070
           H         -3.627563621715     0.372359617774     0.855662649158     1.007825032070
           H         -3.905689621715     1.487558617774    -1.980015350842     1.007825032070
           H         -5.083933621715     1.665192617774    -0.692745350842     1.007825032070
           H         -3.517281621715     2.442801617774    -0.561312350842     1.007825032070

  Charge       = 0
  Multiplicity = 1
  Basis Set: 6-31G*
  Basis Set:

    Orbital Energies (a.u.)
    -----------------------

    Doubly Occupied:

       1A    -20.552350     2A    -11.267126     3A    -11.219146
       4A    -11.216964     5A    -11.215782     6A    -11.215417
       7A    -11.215323     8A    -11.213898     9A    -11.209025
      10A     -1.359297    11A     -1.094751    12A     -1.061020
      13A     -1.011266    14A     -0.948686    15A     -0.888417
      16A     -0.819626    17A     -0.800644    18A     -0.777515
      19A     -0.694301    20A     -0.650816    21A     -0.637465
      22A     -0.615739    23A     -0.600439    24A     -0.584097
      25A     -0.578895    26A     -0.552947    27A     -0.542508
      28A     -0.529783    29A     -0.505034    30A     -0.491213
      31A     -0.485846    32A     -0.473965    33A     -0.469709
      34A     -0.460962    35A     -0.450044    36A     -0.441934
      37A     -0.423283

  @DF-RHF Final Energy:  -388.28109311455404

   => Energetics <=

    Nuclear Repulsion Energy =            460.6670429613248530
    One-Electron Energy =               -1439.3455734623414628
    Two-Electron Energy =                 590.3974373864615472
    DFT Exchange-Correlation Energy =       0.0000000000000000
    Empirical Dispersion Energy =           0.0000000000000000
    PCM Polarization Energy =               0.0000000000000000
    EFP Energy =                            0.0000000000000000
    Total Energy =                       -388.2810931145551194

  Mulliken Charges: (a.u.)
   Center  Symbol    Alpha    Beta     Spin     Total
       1     H     0.27941  0.27941  0.00000  0.44117
       2     O     4.37075  4.37075  0.00000 -0.74150
       3     C     2.99746  2.99746  0.00000  0.00507
       4     C     3.16036  3.16036  0.00000 -0.32071
       5     H     0.41441  0.41441  0.00000  0.17117
       6     H     0.43181  0.43181  0.00000  0.13639
       7     C     3.16620  3.16620  0.00000 -0.33240
       8     H     0.41643  0.41643  0.00000  0.16715
       9     H     0.42416  0.42416  0.00000  0.15167
      10     C     3.15192  3.15192  0.00000 -0.30385
      11     H     0.41798  0.41798  0.00000  0.16404
      12     H     0.42725  0.42725  0.00000  0.14550
      13     C     3.15353  3.15353  0.00000 -0.30706
      14     H     0.42159  0.42159  0.00000  0.15683
      15     H     0.42183  0.42183  0.00000  0.15633
      16     C     3.15234  3.15234  0.00000 -0.30469
      17     H     0.42129  0.42129  0.00000  0.15742
      18     H     0.42449  0.42449  0.00000  0.15103
      19     C     3.15123  3.15123  0.00000 -0.30247
      20     H     0.42348  0.42348  0.00000  0.15304
      21     H     0.42369  0.42369  0.00000  0.15261
      22     C     3.23915  3.23915  0.00000 -0.47830
      23     H     0.42292  0.42292  0.00000  0.15416
      24     H     0.42344  0.42344  0.00000  0.15312
      25     H     0.42139  0.42139  0.00000  0.15721
      26     H     0.41931  0.41931  0.00000  0.16139
      27     H     0.42216  0.42216  0.00000  0.15568

   Total alpha = 37.00000, Total beta = 37.00000, Total charge = -0.00000
