                              Psi4 1.0.54 Driver

  ==> Input File <==

--------------------------------------------------------------------------
set {
	reference rhf
	basis cc-pvtz
}

set_num_threads( 4 )
memory 2 gb

molecule MOL {
0 1

H	 2.724450	 -0.411788	 -0.842304
N	 2.326826	 -0.066186	 0.000000
C	 0.934676	 -0.005420	 0.000000
H	 2.719954	 -0.514807	 0.794489
C	 0.226436	 -0.001077	 -1.195129
C	 0.226436	 -0.001077	 1.195129
H	 0.759091	 -0.011439	 -2.128123
C	 -1.153391	 0.009141	 -1.189028
H	 0.759091	 -0.011439	 2.128123
C	 -1.153391	 0.009141	 1.189028
H	 -1.680905	 0.012964	 -2.124348
C	 -1.857876	 0.014675	 0.000000
H	 -1.680905	 0.012964	 2.124348
H	 -2.930222	 0.022904	 0.000000

	symmetry c1
}
set optking {
	frozen_dihedral = ("
		1 2 3 5
	")
}

ee,wfn = optimize('scf', return_wfn=True)
oeprop( wfn, 'DIPOLE', 'QUADRUPOLE', 'MULLIKEN_CHARGES')
f=open( 'psi4out.xyz', 'w' )
f.write( "14  " )
f.write( str(ee) + "\n" )
f.write( MOL.save_string_xyz() )
f.close()
--------------------------------------------------------------------------

    Molecular point group: c1
  Charge       = 0
  Multiplicity = 1
  Basis Set: CC-PVTZ
  Basis Set:
  @DF-RHF Final Energy:  -285.83319618684209
    Total Energy =                       -285.8331961868420308
    Molecular point group: c1
  Basis Set: CC-PVTZ
  Basis Set:
  Basis Set: CC-PVTZ
  Basis Set:
  @DF-RHF Final Energy:  -285.83351941385212
    Total Energy =                       -285.8335194138519455
  Basis Set: CC-PVTZ
  Basis Set:
  Basis Set: CC-PVTZ
  Basis Set:
  @DF-RHF Final Energy:  -285.83365450058801
    Total Energy =                       -285.8336545005876701
  Basis Set: CC-PVTZ
  Basis Set:
  Basis Set: CC-PVTZ
  Basis Set:
  @DF-RHF Final Energy:  -285.83365553562993
    Total Energy =                       -285.8336555356301005
  Basis Set: CC-PVTZ
  Basis Set:
  Charge       = 0
  Multiplicity = 1
  Basis Set: CC-PVTZ
  Basis Set:

    Orbital Energies (a.u.)
    -----------------------

    Doubly Occupied:

       1A    -15.555890     2A    -11.271079     3A    -11.227068
       4A    -11.226991     5A    -11.215531     6A    -11.215214
       7A    -11.210775     8A     -1.227063     9A     -1.130446
      10A     -1.013330    11A     -0.987834    12A     -0.832856
      13A     -0.813658    14A     -0.708331    15A     -0.688525
      16A     -0.655035    17A     -0.598990    18A     -0.594764
      19A     -0.581557    20A     -0.535028    21A     -0.506480
      22A     -0.487216    23A     -0.448502    24A     -0.336177
      25A     -0.294088

  @DF-RHF Final Energy:  -285.83365581435953

   => Energetics <=

    Nuclear Repulsion Energy =            273.7504476935290540
    One-Electron Energy =                -928.4433524110315830
    Two-Electron Energy =                 368.8592489031428840
    DFT Exchange-Correlation Energy =       0.0000000000000000
    Empirical Dispersion Energy =           0.0000000000000000
    PCM Polarization Energy =               0.0000000000000000
    EFP Energy =                            0.0000000000000000
    Total Energy =                       -285.8336558143596449
    Molecular point group: c1
  Basis Set: CC-PVTZ
  Basis Set:

  -Total Gradient:
     Atom            X                  Y                   Z
    ------   -----------------  -----------------  -----------------
       1        0.000011266568     0.000768821515    -0.000259180696
       2        0.000058003121    -0.001281845188     0.000304948537
       3       -0.000058329191     0.001166369385    -0.000003370366
       4        0.000010886719    -0.000039063242     0.000009000942
       5       -0.000031207036    -0.000607983623    -0.000024090791
       6        0.000038616939     0.000026791135    -0.000030727531
       7        0.000004122390    -0.000004417763     0.000004226667
       8        0.000036767618    -0.000016790345    -0.000026682019
       9       -0.000001837980    -0.000002748524    -0.000005888078
      10       -0.000060286636    -0.000010271940    -0.000026042322
      11       -0.000005720250     0.000005112239     0.000006543475
      12        0.000000446984    -0.000017533818     0.000058884942
      13       -0.000001484009     0.000000447579    -0.000003724197
      14       -0.000001245236     0.000013112589    -0.000003898564

  **** Optimization is complete! (in 5 steps) ****
    Final optimized geometry and variables:
    Molecular point group: c1

    Geometry (in Angstrom), charge = 0, multiplicity = 1:

    H            2.746761695462    -0.319606137564    -0.845813954668
    N            2.327151496686    -0.025594773948     0.004841932134
    C            0.934425972091    -0.027900037898    -0.000060712120
    H            2.743135672656    -0.466745478665     0.791487788500
    C            0.226648891309    -0.009877059791    -1.194992153586
    C            0.225957823942    -0.004843481154     1.195304360642
    H            0.758729947921    -0.025972293577    -2.128290208047
    C           -1.152959229473     0.034865874235    -1.189221557464
    H            0.759154173551    -0.010884339974     2.127911756026
    C           -1.152864530738     0.034703858628     1.188779412423
    H           -1.680018133057     0.049544173483    -2.124691402368
    C           -1.857141046375     0.056160304460    -0.000729866939
    H           -1.680460490653     0.050991318449     2.123919999878
    H           -2.929012706907     0.088725428004    -0.000839041640

  Mulliken Charges: (a.u.)
   Center  Symbol    Alpha    Beta     Spin     Total
       1     H     0.42284  0.42284  0.00000  0.15432
       2     N     3.66877  3.66877  0.00000 -0.33753
       3     C     2.88814  2.88814  0.00000  0.22371
       4     H     0.42084  0.42084  0.00000  0.15833
       5     C     3.11840  3.11840  0.00000 -0.23680
       6     C     3.11697  3.11697  0.00000 -0.23394
       7     H     0.43479  0.43479  0.00000  0.13043
       8     C     3.05795  3.05795  0.00000 -0.11591
       9     H     0.43333  0.43333  0.00000  0.13333
      10     C     3.05779  3.05779  0.00000 -0.11558
      11     H     0.42477  0.42477  0.00000  0.15045
      12     C     3.10527  3.10527  0.00000 -0.21054
      13     H     0.42474  0.42474  0.00000  0.15053
      14     H     0.42540  0.42540  0.00000  0.14919

   Total alpha = 25.00000, Total beta = 25.00000, Total charge = -0.00000

*** Psi4 exiting successfully. Buy a developer a beer!
