  ==> Input File <==

--------------------------------------------------------------------------
set {
	reference rhf
	basis cc-pvtz
}

set_num_threads( 4 )
memory 2 gb

molecule MOL {
0 1

H	 2.230722	 -0.954360	 -0.794266
C	 1.469638	 -0.209641	 -0.955440
O	 0.462329	 -0.453336	 -0.000137
H	 1.083919	 -0.307477	 -1.962350
H	 1.901563	 0.774461	 -0.824209
C	 -0.590565	 0.341382	 0.000062
O	 -1.693898	 -0.053880	 0.000252
H	 -0.340426	 1.403822	 0.000200

	symmetry c1
}
set optking {
	frozen_dihedral = ("
		2 3 6 7
	")
}

ee = optimize('scf')
oeprop('DIPOLE', 'QUADRUPOLE', 'MULLIKEN_CHARGES')
f=open( 'psi4out.xyz', 'w' )
f.write( "8  " )
f.write( str(ee) + "\n" )
f.write( MOL.save_string_xyz() )
f.close()
--------------------------------------------------------------------------

    Molecular point group: c1
  Charge       = 0
  Multiplicity = 1
  Basis Set: CC-PVTZ
  Basis Set:
  @DF-RHF Final Energy:  -227.86379499519438
    Total Energy =                       -227.8637949951942971
    Molecular point group: c1
  Basis Set: CC-PVTZ
  Basis Set:
  Basis Set: CC-PVTZ
  Basis Set:
  @DF-RHF Final Energy:  -227.86383629111714
    Total Energy =                       -227.8638362911171953
  Basis Set: CC-PVTZ
  Basis Set:
  Basis Set: CC-PVTZ
  Basis Set:
  @DF-RHF Final Energy:  -227.86384750255814
    Total Energy =                       -227.8638475025580874
  Basis Set: CC-PVTZ
  Basis Set:
  Basis Set: CC-PVTZ
  Basis Set:
  @DF-RHF Final Energy:  -227.86419848186205
    Total Energy =                       -227.8641984818619619
  Basis Set: CC-PVTZ
  Basis Set:
  Basis Set: CC-PVTZ
  Basis Set:
  @DF-RHF Final Energy:  -227.86420142044858
    Total Energy =                       -227.8642014204486941
  Basis Set: CC-PVTZ
  Basis Set:
  Charge       = 0
  Multiplicity = 1
  Basis Set: CC-PVTZ
  Basis Set:

    Orbital Energies (a.u.)
    -----------------------

    Doubly Occupied:

       1A    -20.600524     2A    -20.556247     3A    -11.375738
       4A    -11.300926     5A     -1.476656     6A     -1.387937
       7A     -0.989855     8A     -0.845220     9A     -0.740562
      10A     -0.689790    11A     -0.679600    12A     -0.619559
      13A     -0.569845    14A     -0.526857    15A     -0.473027
      16A     -0.459735

  @DF-RHF Final Energy:  -227.86420198752126

   => Energetics <=

    Nuclear Repulsion Energy =            121.6761184126705047
    One-Electron Energy =                -552.4964797722627736
    Two-Electron Energy =                 202.9561593720709993
    DFT Exchange-Correlation Energy =       0.0000000000000000
    Empirical Dispersion Energy =           0.0000000000000000
    PCM Polarization Energy =               0.0000000000000000
    EFP Energy =                            0.0000000000000000
    Total Energy =                       -227.8642019875212554
    Molecular point group: c1
  Basis Set: CC-PVTZ
  Basis Set:

  -Total Gradient:
     Atom            X                  Y                   Z
    ------   -----------------  -----------------  -----------------
       1       -0.000028128377    -0.000001576527     0.000029120050
       2       -0.002272478961    -0.002404915118    -0.003433638573
       3        0.003378855257     0.003965933458     0.002001364236
       4       -0.000004285246    -0.000006217257     0.000002505536
       5        0.000001812443    -0.000013362568     0.000007708168
       6       -0.001173025715    -0.002124898701     0.007508777578
       7        0.000096056018     0.000603720723    -0.006124620644
       8        0.000001194578    -0.000018684010     0.000008783649

  **** Optimization is complete! (in 6 steps) ****
    Final optimized geometry and variables:
    Molecular point group: c1

    Geometry (in Angstrom), charge = 0, multiplicity = 1:

    H            2.366565473032    -0.778792841378    -0.464541896852
    C            1.539344971837    -0.128085576063    -0.694102467604
    O            0.512522872085    -0.428171355380     0.223122703943
    H            1.203428857060    -0.311158178449    -1.706259875262
    H            1.861665199922     0.903721726830    -0.600585226328
    C           -0.498229241575     0.432118973958     0.288125274835
    O           -1.624809740116     0.119191032858     0.231717887374
    H           -0.175246407797     1.469897650051     0.386637628347

  Mulliken Charges: (a.u.)
   Center  Symbol    Alpha    Beta     Spin     Total
       1     H     0.44224  0.44224  0.00000  0.11553
       2     C     3.02699  3.02699  0.00000 -0.05398
       3     O     4.13570  4.13570  0.00000 -0.27139
       4     H     0.45591  0.45591  0.00000  0.08818
       5     H     0.46602  0.46602  0.00000  0.06796
       6     C     2.83350  2.83350  0.00000  0.33300
       7     O     4.16525  4.16525  0.00000 -0.33050
       8     H     0.47440  0.47440  0.00000  0.05120

   Total alpha = 16.00000, Total beta = 16.00000, Total charge = -0.00000
