  ==> Input File <==

--------------------------------------------------------------------------
set {
	reference rhf
	basis 6-31G*
}

set_num_threads( 1 )
memory 2 gb

molecule MOL {
0 1

H	 -2.646374	 -0.642757	 1.268656
C	 -2.083525	 -0.384536	 0.393091
O	 -0.807605	 -0.127164	 0.768327
F	 -2.118945	 -1.383102	 -0.486752
F	 -2.621877	 0.670592	 -0.209486
C	 -0.436650	 -0.454322	 2.059856
C	 0.315763	 0.744141	 2.623522
Cl	 0.588860	 -1.898379	 2.075485
H	 -1.284789	 -0.649412	 2.692606
F	 0.691282	 0.509532	 3.862910
F	 -0.490961	 1.786534	 2.630713
F	 1.374430	 1.043398	 1.911030

	symmetry c1
}
set optking {
	frozen_dihedral = ("
		10 7 6 9,
		9 6 3 2
	")
}

ee = energy('scf')
oeprop('DIPOLE', 'QUADRUPOLE', 'MULLIKEN_CHARGES')
f=open( 'psi4out.xyz', 'w' )
f.write( "12  " )
f.write( str(ee) + "\n" )
f.write( MOL.save_string_xyz() )
f.close()
--------------------------------------------------------------------------

    Molecular point group: c1

    Geometry (in Angstrom), charge = 0, multiplicity = 1:

       Center              X                  Y                   Z               Mass
    ------------   -----------------  -----------------  -----------------  -----------------
           H         -2.195809611655    -0.528885702526    -0.341507663734     1.007825032070
           C         -1.632960611655    -0.270664702526    -1.217072663734    12.000000000000
           O         -0.357040611655    -0.013292702526    -0.841836663734    15.994914619560
           F         -1.668380611655    -1.269230702526    -2.096915663734    18.998403224000
           F         -2.171312611655     0.784463297474    -1.819649663734    18.998403224000
           C          0.013914388345    -0.340450702526     0.449692336266    12.000000000000
           C          0.766327388345     0.858012297474     1.013358336266    12.000000000000
          CL          1.039424388345    -1.784507702526     0.465321336266    34.968852682000
           H         -0.834224611655    -0.535540702526     1.082442336266     1.007825032070
           F          1.141846388345     0.623403297474     2.252746336266    18.998403224000
           F         -0.040396611655     1.900405297474     1.020549336266    18.998403224000
           F          1.824994388345     1.157269297474     0.300866336266    18.998403224000

  Charge       = 0
  Multiplicity = 1
  Basis Set: 6-31G*
  Basis Set:

    Orbital Energies (a.u.)
    -----------------------

    Doubly Occupied:

       1A   -104.852461     2A    -26.366653     3A    -26.365804
       4A    -26.362353     5A    -26.342091     6A    -26.337709
       7A    -20.653445     8A    -11.534508     9A    -11.491224
      10A    -11.413208    11A    -10.587162    12A     -8.056509
      13A     -8.052952    14A     -8.052858    15A     -1.767191
      16A     -1.708829    17A     -1.663858    18A     -1.662045
      19A     -1.630285    20A     -1.492606    21A     -1.187093
      22A     -1.056309    23A     -0.984918    24A     -0.936211
      25A     -0.860835    26A     -0.859834    27A     -0.850637
      28A     -0.822562    29A     -0.806843    30A     -0.792650
      31A     -0.733186    32A     -0.729634    33A     -0.698355
      34A     -0.690445    35A     -0.683878    36A     -0.679326
      37A     -0.663857    38A     -0.656415    39A     -0.652692
      40A     -0.640149    41A     -0.615395    42A     -0.566268
      43A     -0.527918    44A     -0.485186    45A     -0.478103

  @DF-RHF Final Energy: -1146.30547307063398

   => Energetics <=

    Nuclear Repulsion Energy =            724.6745655351147661
    One-Electron Energy =               -3031.8550400749418259
    Two-Electron Energy =                1160.8750014691952401
    DFT Exchange-Correlation Energy =       0.0000000000000000
    Empirical Dispersion Energy =           0.0000000000000000
    PCM Polarization Energy =               0.0000000000000000
    EFP Energy =                            0.0000000000000000
    Total Energy =                      -1146.3054730706319333

  Mulliken Charges: (a.u.)
   Center  Symbol    Alpha    Beta     Spin     Total
       1     H     0.42914  0.42914  0.00000  0.14171
       2     C     2.56142  2.56142  0.00000  0.87716
       3     O     4.29505  4.29505  0.00000 -0.59009
       4     F     4.67706  4.67706  0.00000 -0.35412
       5     F     4.67500  4.67500  0.00000 -0.35001
       6     C     3.04481  3.04481  0.00000 -0.08962
       7     C     2.42976  2.42976  0.00000  1.14048
       8    CL     8.49433  8.49433  0.00000  0.01134
       9     H     0.37693  0.37693  0.00000  0.24615
      10     F     4.67369  4.67369  0.00000 -0.34738
      11     F     4.67613  4.67613  0.00000 -0.35226
      12     F     4.66667  4.66667  0.00000 -0.33335

   Total alpha = 45.00000, Total beta = 45.00000, Total charge =  0.00000
