  ==> Input File <==

--------------------------------------------------------------------------
set {
	reference rhf
	basis 6-31G*
}

set_num_threads( 1 )
memory 2 gb

molecule MOL {
0 1

H	 -3.161837	 0.500524	 -0.000234
C	 -2.367097	 -0.232926	 -0.000000
O	 -1.158440	 0.455814	 -0.000122
H	 -2.468853	 -0.861886	 -0.882833
H	 -2.468942	 -0.861421	 0.883154
C	 -0.029776	 -0.365156	 0.000148
C	 1.106498	 0.363411	 -0.696080
H	 -0.247922	 -1.303403	 -0.511715
H	 0.251959	 -0.615651	 1.023762
C	 2.389752	 -0.464788	 -0.743269
H	 0.787167	 0.617646	 -1.702089
H	 1.283635	 1.300566	 -0.177368
H	 2.240158	 -1.397415	 -1.280160
H	 3.183330	 0.079000	 -1.244640
H	 2.739850	 -0.710302	 0.255510

	symmetry c1
}
set optking {
	frozen_dihedral = ("
		6 3 2 4,
		11 7 6 8
	")
}

ee = energy('scf')
oeprop('DIPOLE', 'QUADRUPOLE', 'MULLIKEN_CHARGES')
f=open( 'psi4out.xyz', 'w' )
f.write( "15  " )
f.write( str(ee) + "\n" )
f.write( MOL.save_string_xyz() )
f.close()
--------------------------------------------------------------------------

    Molecular point group: c1

    Geometry (in Angstrom), charge = 0, multiplicity = 1:

       Center              X                  Y                   Z               Mass
    ------------   -----------------  -----------------  -----------------  -----------------
           H         -3.118888305810     0.559662740347     0.282424814563     1.007825032070
           C         -2.324148305810    -0.173787259653     0.282658814563    12.000000000000
           O         -1.115491305810     0.514952740347     0.282536814563    15.994914619560
           H         -2.425904305810    -0.802747259653    -0.600174185437     1.007825032070
           H         -2.425993305810    -0.802282259653     1.165812814563     1.007825032070
           C          0.013172694190    -0.306017259653     0.282806814563    12.000000000000
           C          1.149446694190     0.422549740347    -0.413421185437    12.000000000000
           H         -0.204973305810    -1.244264259653    -0.229056185437     1.007825032070
           H          0.294907694190    -0.556512259653     1.306420814563     1.007825032070
           C          2.432700694190    -0.405649259653    -0.460610185437    12.000000000000
           H          0.830115694190     0.676784740347    -1.419430185437     1.007825032070
           H          1.326583694190     1.359704740347     0.105290814563     1.007825032070
           H          2.283106694190    -1.338276259653    -0.997501185437     1.007825032070
           H          3.226278694190     0.138138740347    -0.961981185437     1.007825032070
           H          2.782798694190    -0.651163259653     0.538168814563     1.007825032070

  Charge       = 0
  Multiplicity = 1
  Basis Set: 6-31G*
  Basis Set:

    Orbital Energies (a.u.)
    -----------------------

    Doubly Occupied:

       1A    -20.552390     2A    -11.265870     3A    -11.264476
       4A    -11.213693     5A    -11.212564     6A     -1.378138
       7A     -1.056813     8A     -0.955373     9A     -0.877971
      10A     -0.809001    11A     -0.673960    12A     -0.653435
      13A     -0.632225    14A     -0.605398    15A     -0.566624
      16A     -0.539936    17A     -0.502826    18A     -0.489921
      19A     -0.479528    20A     -0.463034    21A     -0.409985

  @DF-RHF Final Energy:  -232.13752480665431

   => Energetics <=

    Nuclear Repulsion Energy =            189.9984902206719539
    One-Electron Energy =                -691.0657384527978593
    Two-Electron Energy =                 268.9297234254715931
    DFT Exchange-Correlation Energy =       0.0000000000000000
    Empirical Dispersion Energy =           0.0000000000000000
    PCM Polarization Energy =               0.0000000000000000
    EFP Energy =                            0.0000000000000000
    Total Energy =                       -232.1375248066543122

  Mulliken Charges: (a.u.)
   Center  Symbol    Alpha    Beta     Spin     Total
       1     H     0.41271  0.41271  0.00000  0.17458
       2     C     3.08023  3.08023  0.00000 -0.16046
       3     O     4.30569  4.30569  0.00000 -0.61139
       4     H     0.42975  0.42975  0.00000  0.14049
       5     H     0.43040  0.43040  0.00000  0.13921
       6     C     2.98268  2.98268  0.00000  0.03465
       7     C     3.15852  3.15852  0.00000 -0.31704
       8     H     0.43398  0.43398  0.00000  0.13205
       9     H     0.42984  0.42984  0.00000  0.14032
      10     C     3.24838  3.24838  0.00000 -0.49676
      11     H     0.41642  0.41642  0.00000  0.16716
      12     H     0.41384  0.41384  0.00000  0.17233
      13     H     0.42141  0.42141  0.00000  0.15718
      14     H     0.41559  0.41559  0.00000  0.16883
      15     H     0.42058  0.42058  0.00000  0.15885

   Total alpha = 21.00000, Total beta = 21.00000, Total charge = -0.00000
