                              Psi4 1.0.54 Driver

  ==> Input File <==

--------------------------------------------------------------------------
set {
	reference rhf
	basis cc-pvtz
}

set_num_threads( 4 )
memory 2 gb

molecule MOL {
0 1

H	 2.555388	 -0.751045	 -1.325369
O	 1.836529	 -1.061409	 -0.795603
C	 0.868720	 -0.149711	 -0.823406
C	 -0.318151	 -0.570512	 0.000144
O	 0.969957	 0.857150	 -1.434922
C	 -1.454884	 0.441630	 -0.000560
H	 -0.646819	 -1.532391	 -0.380194
H	 0.041319	 -0.758553	 1.006783
C	 -2.822577	 -0.232186	 0.000063
H	 -1.359760	 1.084704	 -0.867077
H	 -1.359641	 1.085996	 0.864983
H	 -2.954352	 -0.858985	 -0.875745
H	 -3.615886	 0.505352	 0.000019
H	 -2.953878	 -0.858359	 0.876394

	symmetry c1
}
set optking {
	frozen_dihedral = ("
		7 4 6 10
	")
}

ee,wfn = optimize('scf', return_wfn=True)
oeprop( wfn, 'DIPOLE', 'QUADRUPOLE', 'MULLIKEN_CHARGES')
f=open( 'psi4out.xyz', 'w' )
f.write( "14  " )
f.write( str(ee) + "\n" )
f.write( MOL.save_string_xyz() )
f.close()
--------------------------------------------------------------------------

    Molecular point group: c1
  Charge       = 0
  Multiplicity = 1
  Basis Set: CC-PVTZ
  Basis Set:
  @DF-RHF Final Energy:  -305.99753873767020
    Total Energy =                       -305.9975387376700837
    Molecular point group: c1
  Basis Set: CC-PVTZ
  Basis Set:
  Basis Set: CC-PVTZ
  Basis Set:
  @DF-RHF Final Energy:  -305.99782338036516
    Total Energy =                       -305.9978233803651619
  Basis Set: CC-PVTZ
  Basis Set:
  Basis Set: CC-PVTZ
  Basis Set:
  @DF-RHF Final Energy:  -305.99774543722248
    Total Energy =                       -305.9977454372224202
  Basis Set: CC-PVTZ
  Basis Set:
  Basis Set: CC-PVTZ
  Basis Set:
  @DF-RHF Final Energy:  -305.99788878260085
    Total Energy =                       -305.9978887826010805
  Basis Set: CC-PVTZ
  Basis Set:
  Basis Set: CC-PVTZ
  Basis Set:
  @DF-RHF Final Energy:  -305.99788981130092
    Total Energy =                       -305.9978898113006949
  Basis Set: CC-PVTZ
  Basis Set:
  Charge       = 0
  Multiplicity = 1
  Basis Set: CC-PVTZ
  Basis Set:

    Orbital Energies (a.u.)
    -----------------------

    Doubly Occupied:

       1A    -20.604693     2A    -20.541696     3A    -11.374921
       4A    -11.239673     5A    -11.222744     6A    -11.215322
       7A     -1.478619     8A     -1.370087     9A     -1.082267
      10A     -0.981391    11A     -0.859913    12A     -0.792963
      13A     -0.705053    14A     -0.694790    15A     -0.665357
      16A     -0.616367    17A     -0.598123    18A     -0.572910
      19A     -0.550382    20A     -0.503683    21A     -0.492267
      22A     -0.485089    23A     -0.478034    24A     -0.449526

  @DF-RHF Final Energy:  -305.99789010156326

   => Energetics <=

    Nuclear Repulsion Energy =            240.3974060099077406
    One-Electron Energy =                -893.6388483620112311
    Two-Electron Energy =                 347.2435522505404037
    DFT Exchange-Correlation Energy =       0.0000000000000000
    Empirical Dispersion Energy =           0.0000000000000000
    PCM Polarization Energy =               0.0000000000000000
    EFP Energy =                            0.0000000000000000
    Total Energy =                       -305.9978901015630868
    Molecular point group: c1
  Basis Set: CC-PVTZ
  Basis Set:

  -Total Gradient:
     Atom            X                  Y                   Z
    ------   -----------------  -----------------  -----------------
       1       -0.000003846192    -0.000002473965    -0.000000121399
       2        0.000017431425    -0.000010920384     0.000006962662
       3       -0.000004713736     0.000025248301    -0.000016381022
       4        0.001875557757     0.001882629213    -0.003694901862
       5       -0.000012568125    -0.000016270190     0.000003873988
       6       -0.002753938276    -0.003032366647    -0.001693442769
       7       -0.001103485887    -0.001069035352     0.003325632272
       8       -0.000001794038    -0.000009726763    -0.000002143288
       9       -0.000011689284     0.000006478582     0.000002439741
      10        0.001996744619     0.002221321743     0.002063471365
      11       -0.000005908577    -0.000004749085     0.000002060003
      12        0.000007600320     0.000007919111     0.000004464972
      13       -0.000005225256     0.000000964065     0.000000456747
      14        0.000005835250     0.000000981370    -0.000002371409

  **** Optimization is complete! (in 6 steps) ****
    Final optimized geometry and variables:
    Molecular point group: c1

    Geometry (in Angstrom), charge = 0, multiplicity = 1:

    H            2.713471677641    -0.687603743415    -0.619191620331
    O            1.943466788060    -0.984400063575    -0.158017073846
    C            1.010484887701    -0.040813936239    -0.246781433682
    C           -0.250681705520    -0.443526386298     0.468303157281
    O            1.196385477138     0.973500207357    -0.825050453573
    C           -1.371342904829     0.597767259157     0.432462488016
    H           -0.574444074186    -1.393360327121     0.055956291014
    H            0.034887684785    -0.676482428526     1.488844388828
    C           -2.760168393289    -0.028863596114     0.403945592125
    H           -1.223993853032     1.253896399724    -0.414045483579
    H           -1.284166821355     1.235668552040     1.305479427848
    H           -2.902143067584    -0.624646456095    -0.491410946293
    H           -3.528704653455     0.734443605466     0.419398850214
    H           -2.920289968283    -0.675808182386     1.260375214467

  Mulliken Charges: (a.u.)
   Center  Symbol    Alpha    Beta     Spin     Total
       1     H     0.38245  0.38245  0.00000  0.23510
       2     O     4.16011  4.16011  0.00000 -0.32022
       3     C     2.80176  2.80176  0.00000  0.39648
       4     C     3.11043  3.11043  0.00000 -0.22087
       5     O     4.19039  4.19039  0.00000 -0.38078
       6     C     3.08545  3.08545  0.00000 -0.17090
       7     H     0.43866  0.43866  0.00000  0.12268
       8     H     0.43596  0.43596  0.00000  0.12809
       9     C     3.14891  3.14891  0.00000 -0.29782
      10     H     0.43739  0.43739  0.00000  0.12521
      11     H     0.45231  0.45231  0.00000  0.09538
      12     H     0.45457  0.45457  0.00000  0.09085
      13     H     0.44642  0.44642  0.00000  0.10715
      14     H     0.45519  0.45519  0.00000  0.08963

   Total alpha = 24.00000, Total beta = 24.00000, Total charge = -0.00000

*** Psi4 exiting successfully. Buy a developer a beer!
