  ==> Input File <==

--------------------------------------------------------------------------
set {
	reference rhf
	basis cc-pvtz
}

set_num_threads( 4 )
memory 2 gb

molecule MOL {
0 1

H	 -1.383951	 -0.574812	 -1.138697
O	 -1.432053	 -0.565244	 -0.200812
C	 -0.727158	 0.534527	 0.310686
C	 0.680222	 0.664433	 -0.252229
H	 -1.306802	 1.408001	 0.044211
H	 -0.690821	 0.490158	 1.397609
C	 1.605391	 -0.489360	 0.123098
H	 0.615089	 0.745647	 -1.332226
H	 1.101414	 1.597893	 0.110950
H	 1.247627	 -1.432485	 -0.275204
H	 2.601435	 -0.332816	 -0.273062
H	 1.691776	 -0.589902	 1.200774

	symmetry c1
}
set optking {
	frozen_dihedral = ("
		1 2 3 4
	")
}

ee = optimize('scf')
oeprop('DIPOLE', 'QUADRUPOLE', 'MULLIKEN_CHARGES')
f=open( 'psi4out.xyz', 'w' )
f.write( "12  " )
f.write( str(ee) + "\n" )
f.write( MOL.save_string_xyz() )
f.close()
--------------------------------------------------------------------------

    Molecular point group: c1
  Charge       = 0
  Multiplicity = 1
  Basis Set: CC-PVTZ
  Basis Set:
  @DF-RHF Final Energy:  -193.18903251861758
    Total Energy =                       -193.1890325186175517
    Molecular point group: c1
  Basis Set: CC-PVTZ
  Basis Set:
  Basis Set: CC-PVTZ
  Basis Set:
  @DF-RHF Final Energy:  -193.19028323060766
    Total Energy =                       -193.1902832306075197
  Basis Set: CC-PVTZ
  Basis Set:
  Basis Set: CC-PVTZ
  Basis Set:
  @DF-RHF Final Energy:  -193.19067099852938
    Total Energy =                       -193.1906709985296402
  Basis Set: CC-PVTZ
  Basis Set:
  Basis Set: CC-PVTZ
  Basis Set:
  @DF-RHF Final Energy:  -193.19067459659510
    Total Energy =                       -193.1906745965951018
  Basis Set: CC-PVTZ
  Basis Set:
  Basis Set: CC-PVTZ
  Basis Set:
  @DF-RHF Final Energy:  -193.19067657675581
    Total Energy =                       -193.1906765767560046
  Basis Set: CC-PVTZ
  Basis Set:
  Charge       = 0
  Multiplicity = 1
  Basis Set: CC-PVTZ
  Basis Set:

    Orbital Energies (a.u.)
    -----------------------

    Doubly Occupied:

       1A    -20.546374     2A    -11.265950     3A    -11.220723
       4A    -11.208705     5A     -1.364565     6A     -1.051442
       7A     -0.923919     8A     -0.817821     9A     -0.674622
      10A     -0.640118    11A     -0.634059    12A     -0.569248
      13A     -0.537049    14A     -0.518196    15A     -0.487362
      16A     -0.468400    17A     -0.433656

  @DF-RHF Final Energy:  -193.19067668754465

   => Energetics <=

    Nuclear Repulsion Energy =            133.2466233532876174
    One-Electron Energy =                -526.1501873485806300
    Two-Electron Energy =                 199.7128873077482467
    DFT Exchange-Correlation Energy =       0.0000000000000000
    Empirical Dispersion Energy =           0.0000000000000000
    PCM Polarization Energy =               0.0000000000000000
    EFP Energy =                            0.0000000000000000
    Total Energy =                       -193.1906766875447374
    Molecular point group: c1
  Basis Set: CC-PVTZ
  Basis Set:

  -Total Gradient:
     Atom            X                  Y                   Z
    ------   -----------------  -----------------  -----------------
       1        0.001131442066    -0.000740222132     0.000106828188
       2       -0.001526985965     0.001091585246    -0.000424400686
       3        0.000681733094    -0.000841672015     0.000962036379
       4       -0.000299287161     0.000473188489    -0.000644123124
       5        0.000009634954     0.000002294058     0.000001205874
       6        0.000004507972     0.000007928166     0.000003496106
       7       -0.000001487452     0.000004716817    -0.000004933154
       8        0.000000709896    -0.000002169456     0.000001942256
       9        0.000007823102     0.000005037430    -0.000001133002
      10       -0.000002845642    -0.000003717391    -0.000003075503
      11       -0.000006137743     0.000000610608     0.000000883337
      12        0.000000892878     0.000002420179     0.000001273330

  **** Optimization is complete! (in 6 steps) ****
    Final optimized geometry and variables:
    Molecular point group: c1

    Geometry (in Angstrom), charge = 0, multiplicity = 1:

    H           -1.348109351455    -0.624676035583    -1.108642375604
    O           -1.412998451330    -0.592772534977    -0.171253519619
    C           -0.728279821602     0.530033036824     0.317075589051
    C            0.685337907200     0.661196943046    -0.228888552388
    H           -1.288133943287     1.435438026542     0.095462380369
    H           -0.704896559487     0.419752479983     1.393919003258
    C            1.599053583815    -0.501323152203     0.145084443928
    H            0.637455865643     0.759730766836    -1.311913050409
    H            1.104073466403     1.592906817473     0.140319251278
    H            1.201129459488    -1.443280156667    -0.210154972740
    H            2.587258022466    -0.371078994884    -0.280408756276
    H            1.708178790142    -0.575665013919     1.221812595907

  Mulliken Charges: (a.u.)
   Center  Symbol    Alpha    Beta     Spin     Total
       1     H     0.39434  0.39434  0.00000  0.21132
       2     O     4.20442  4.20442  0.00000 -0.40883
       3     C     2.96791  2.96791  0.00000  0.06418
       4     C     3.09641  3.09641  0.00000 -0.19282
       5     H     0.46392  0.46392  0.00000  0.07216
       6     H     0.46136  0.46136  0.00000  0.07729
       7     C     3.14407  3.14407  0.00000 -0.28814
       8     H     0.45952  0.45952  0.00000  0.08096
       9     H     0.45289  0.45289  0.00000  0.09421
      10     H     0.45015  0.45015  0.00000  0.09970
      11     H     0.44997  0.44997  0.00000  0.10005
      12     H     0.45504  0.45504  0.00000  0.08993

   Total alpha = 17.00000, Total beta = 17.00000, Total charge =  0.00000
