                              Psi4 1.0.54 Driver

  ==> Input File <==

--------------------------------------------------------------------------
set {
	reference rhf
	basis cc-pvtz
}

set_num_threads( 4 )
memory 2 gb

molecule MOL {
0 1

O	 -2.081319	 -0.951530	 -0.502732
N	 -1.613558	 0.006676	 0.014756
C	 -0.329345	 -0.171618	 0.743966
O	 -2.068523	 1.100482	 -0.024385
C	 -0.137051	 0.975651	 1.727778
H	 0.441441	 -0.187615	 -0.008399
H	 -0.400111	 -1.122260	 1.245467
C	 1.171144	 0.831774	 2.501141
H	 -0.144080	 1.912032	 1.182161
H	 -0.974303	 0.993128	 2.415848
C	 1.384838	 1.964574	 3.498929
H	 2.002224	 0.803720	 1.802602
H	 1.177161	 -0.118630	 3.026597
H	 1.416902	 2.925675	 2.997974
H	 0.584467	 1.997837	 4.229692
H	 2.317903	 1.838053	 4.034226

	symmetry c1
}
set optking {
	frozen_dihedral = ("
		5 3 2 1
	")
}

ee,wfn = optimize('scf', return_wfn=True)
oeprop( wfn, 'DIPOLE', 'QUADRUPOLE', 'MULLIKEN_CHARGES')
f=open( 'psi4out.xyz', 'w' )
f.write( "16  " )
f.write( str(ee) + "\n" )
f.write( MOL.save_string_xyz() )
f.close()
--------------------------------------------------------------------------

    Molecular point group: c1
  Charge       = 0
  Multiplicity = 1
  Basis Set: CC-PVTZ
  Basis Set:
  @DF-RHF Final Energy:  -360.90690936854025
    Total Energy =                       -360.9069093685399139
    Molecular point group: c1
  Basis Set: CC-PVTZ
  Basis Set:
  Basis Set: CC-PVTZ
  Basis Set:
  @DF-RHF Final Energy:  -360.90787440097165
    Total Energy =                       -360.9078744009714796
  Basis Set: CC-PVTZ
  Basis Set:
  Basis Set: CC-PVTZ
  Basis Set:
  @DF-RHF Final Energy:  -360.90485441139020
    Total Energy =                       -360.9048544113901471
  Basis Set: CC-PVTZ
  Basis Set:
  Basis Set: CC-PVTZ
  Basis Set:
  @DF-RHF Final Energy:  -360.90784439258721
    Total Energy =                       -360.9078443925874353
  Basis Set: CC-PVTZ
  Basis Set:
  Basis Set: CC-PVTZ
  Basis Set:
  @DF-RHF Final Energy:  -360.90843771144557
    Total Energy =                       -360.9084377114460267
  Basis Set: CC-PVTZ
  Basis Set:
  Basis Set: CC-PVTZ
  Basis Set:
  @DF-RHF Final Energy:  -360.90854525978074
    Total Energy =                       -360.9085452597810217
  Basis Set: CC-PVTZ
  Basis Set:
  Basis Set: CC-PVTZ
  Basis Set:
  @DF-RHF Final Energy:  -360.90854850247365
    Total Energy =                       -360.9085485024735362
  Basis Set: CC-PVTZ
  Basis Set:
  Charge       = 0
  Multiplicity = 1
  Basis Set: CC-PVTZ
  Basis Set:

    Orbital Energies (a.u.)
    -----------------------

    Doubly Occupied:

       1A    -20.592011     2A    -20.588107     3A    -15.837739
       4A    -11.298041     5A    -11.244013     6A    -11.239853
       7A    -11.224313     8A     -1.636474     9A     -1.420530
      10A     -1.134138    11A     -1.058704    12A     -0.948861
      13A     -0.843470    14A     -0.821899    15A     -0.759631
      16A     -0.750178    17A     -0.730508    18A     -0.668029
      19A     -0.615321    20A     -0.603225    21A     -0.565761
      22A     -0.535679    23A     -0.522403    24A     -0.502003
      25A     -0.495035    26A     -0.485809    27A     -0.469275
      28A     -0.453284

  @DF-RHF Final Energy:  -360.90854861803865

   => Energetics <=

    Nuclear Repulsion Energy =            312.4974344888043447
    One-Electron Energy =               -1110.7233811830130890
    Two-Electron Energy =                 437.3173980761700932
    DFT Exchange-Correlation Energy =       0.0000000000000000
    Empirical Dispersion Energy =           0.0000000000000000
    PCM Polarization Energy =               0.0000000000000000
    EFP Energy =                            0.0000000000000000
    Total Energy =                       -360.9085486180385942
    Molecular point group: c1
  Basis Set: CC-PVTZ
  Basis Set:

  -Total Gradient:
     Atom            X                  Y                   Z
    ------   -----------------  -----------------  -----------------
       1        0.000160443631     0.000126194268    -0.000251888966
       2       -0.000140330755    -0.000133731741     0.000268825445
       3       -0.000104840416    -0.000158154229     0.000154755123
       4       -0.000026475757     0.000040054619     0.000000706315
       5        0.000099110642     0.000134139278    -0.000191190127
       6        0.000002275609     0.000003841216     0.000004695846
       7        0.000008056584     0.000006841109     0.000008066105
       8        0.000003134385    -0.000005712001     0.000013017691
       9       -0.000004189456    -0.000006003302    -0.000006033717
      10       -0.000001113330    -0.000007005251    -0.000000241253
      11        0.000001561394     0.000000335615    -0.000006850356
      12       -0.000002996996    -0.000000598648     0.000001806839
      13        0.000003047728    -0.000000737312     0.000005480315
      14       -0.000002076725     0.000000714808     0.000001434208
      15        0.000001939441    -0.000001570727    -0.000001540225
      16        0.000002454021     0.000001392298    -0.000001043238

  **** Optimization is complete! (in 8 steps) ****
    Final optimized geometry and variables:
    Molecular point group: c1

    Geometry (in Angstrom), charge = 0, multiplicity = 1:

    O           -1.388719359910    -1.730075581817    -1.470135637533
    N           -1.065045798532    -0.675858904195    -1.035421047437
    C            0.250895966211    -0.629766684180    -0.329556870769
    O           -1.682867027869     0.327915850124    -1.145002654893
    C            0.404214375941     0.558318023138     0.598112441487
    H            0.979561866790    -0.618610160150    -1.128765509662
    H            0.325157013396    -1.576308141412     0.180065650278
    C            1.756761276065     0.522690912895     1.307792338016
    H            0.303326224590     1.474987973402     0.033784084758
    H           -0.396329347228     0.549910783977     1.328943376685
    C            1.949750491156     1.705273953767     2.250479122125
    H            2.553584156480     0.517322332432     0.569268276315
    H            1.851367273475    -0.403422618640     1.867471912701
    H            1.894324810229     2.645693083039     1.713636838411
    H            1.187220244564     1.718750929581     3.021319350908
    H            2.915124864398     1.658319614911     2.739547329240

  Mulliken Charges: (a.u.)
   Center  Symbol    Alpha    Beta     Spin     Total
       1     O     4.17360  4.17360  0.00000 -0.34721
       2     N     3.27289  3.27289  0.00000  0.45421
       3     C     3.05025  3.05025  0.00000 -0.10050
       4     O     4.16963  4.16963  0.00000 -0.33926
       5     C     3.09470  3.09470  0.00000 -0.18941
       6     H     0.43451  0.43451  0.00000  0.13098
       7     H     0.43120  0.43120  0.00000  0.13761
       8     C     3.09430  3.09430  0.00000 -0.18860
       9     H     0.43580  0.43580  0.00000  0.12839
      10     H     0.44236  0.44236  0.00000  0.11528
      11     C     3.14801  3.14801  0.00000 -0.29602
      12     H     0.45183  0.45183  0.00000  0.09634
      13     H     0.45139  0.45139  0.00000  0.09723
      14     H     0.45180  0.45180  0.00000  0.09640
      15     H     0.45212  0.45212  0.00000  0.09576
      16     H     0.44559  0.44559  0.00000  0.10881

   Total alpha = 28.00000, Total beta = 28.00000, Total charge = -0.00000

*** Psi4 exiting successfully. Buy a developer a beer!
