  ==> Input File <==

--------------------------------------------------------------------------
set {
	reference rhf
	basis 6-31G*
}

set_num_threads( 4 )
memory 2 gb

molecule MOL {
0 1

H	 1.022861	 1.078468	 1.629680
C	 1.147003	 0.580507	 0.659975
C	 0.065331	 0.871482	 -0.349150
O	 2.084386	 -0.123329	 0.465948
C	 -1.339775	 0.583656	 0.198860
H	 0.267931	 0.293952	 -1.243759
H	 0.140695	 1.926959	 -0.606925
C	 -1.808407	 -0.848507	 -0.061364
H	 -2.036183	 1.280685	 -0.256307
H	 -1.360094	 0.788874	 1.267089
H	 -1.828843	 -1.063152	 -1.125336
H	 -2.808409	 -1.004529	 0.329750
H	 -1.153967	 -1.577789	 0.406873

	symmetry c1
}
set optking {
	frozen_dihedral = ("
		6 3 5 9
	")
}

ee = optimize('scf')
oeprop('DIPOLE', 'QUADRUPOLE', 'MULLIKEN_CHARGES')
f=open( 'psi4out.xyz', 'w' )
f.write( "13  " )
f.write( str(ee) + "\n" )
f.write( MOL.save_string_xyz() )
f.close()
--------------------------------------------------------------------------

    Molecular point group: c1
  Charge       = 0
  Multiplicity = 1
  Basis Set: 6-31G*
  Basis Set:
  @DF-RHF Final Energy:  -230.98274072035667
    Total Energy =                       -230.9827407203565883
    Molecular point group: c1
  Basis Set: 6-31G*
  Basis Set:
  Basis Set: 6-31G*
  Basis Set:
  @DF-RHF Final Energy:  -230.98299182915929
    Total Energy =                       -230.9829918291592890
  Basis Set: 6-31G*
  Basis Set:
  Basis Set: 6-31G*
  Basis Set:
  @DF-RHF Final Energy:  -230.98170650525145
    Total Energy =                       -230.9817065052511964
  Basis Set: 6-31G*
  Basis Set:
  Basis Set: 6-31G*
  Basis Set:
  @DF-RHF Final Energy:  -230.98305381935961
    Total Energy =                       -230.9830538193594975
  Basis Set: 6-31G*
  Basis Set:
  Basis Set: 6-31G*
  Basis Set:
  @DF-RHF Final Energy:  -230.98306859511823
    Total Energy =                       -230.9830685951181124
  Basis Set: 6-31G*
  Basis Set:
  Basis Set: 6-31G*
  Basis Set:
  @DF-RHF Final Energy:  -230.98307282816651
    Total Energy =                       -230.9830728281665415
  Basis Set: 6-31G*
  Basis Set:
  Basis Set: 6-31G*
  Basis Set:
  @DF-RHF Final Energy:  -230.98307713380211
    Total Energy =                       -230.9830771338021407
  Basis Set: 6-31G*
  Basis Set:
  Charge       = 0
  Multiplicity = 1
  Basis Set: 6-31G*
  Basis Set:

    Orbital Energies (a.u.)
    -----------------------

    Doubly Occupied:

       1A    -20.563575     2A    -11.327060     3A    -11.238932
       4A    -11.235672     5A    -11.220700     6A     -1.403421
       7A     -1.085521     8A     -0.973496     9A     -0.843932
      10A     -0.791927    11A     -0.668204    12A     -0.648323
      13A     -0.625757    14A     -0.588477    15A     -0.560085
      16A     -0.535863    17A     -0.502245    18A     -0.495953
      19A     -0.480772    20A     -0.410669

  @DF-RHF Final Energy:  -230.98307715793490

   => Energetics <=

    Nuclear Repulsion Energy =            173.2500017956189424
    One-Electron Energy =                -656.0649937985635916
    Two-Electron Energy =                 251.8319148450096918
    DFT Exchange-Correlation Energy =       0.0000000000000000
    Empirical Dispersion Energy =           0.0000000000000000
    PCM Polarization Energy =               0.0000000000000000
    EFP Energy =                            0.0000000000000000
    Total Energy =                       -230.9830771579349857
    Molecular point group: c1
  Basis Set: 6-31G*
  Basis Set:

  -Total Gradient:
     Atom            X                  Y                   Z
    ------   -----------------  -----------------  -----------------
       1       -0.000003539223     0.000011587584     0.000007216248
       2       -0.000006715188     0.000016411603     0.000048360019
       3       -0.001604000518     0.003939235617    -0.001973340593
       4       -0.000027304189     0.000008355279    -0.000031429981
       5       -0.000278870598    -0.003606154602    -0.002812983200
       6        0.001370345385    -0.002734145972     0.002057213963
       7       -0.000013383094    -0.000007822344     0.000016545264
       8        0.000022252162     0.000010697760    -0.000027268916
       9        0.000553515569     0.002341831059     0.002713298957
      10       -0.000005552402     0.000012619293     0.000003609463
      11       -0.000025535465    -0.000008506217    -0.000009751187
      12        0.000014664655     0.000014517094     0.000025598240
      13        0.000004122900     0.000001373847    -0.000017068276

  **** Optimization is complete! (in 8 steps) ****
    Final optimized geometry and variables:
    Molecular point group: c1

    Geometry (in Angstrom), charge = 0, multiplicity = 1:

    H            1.025925287584     0.904081104668     1.434337726862
    C            1.108786365568     0.378105799658     0.475270863820
    C            0.050334725110     0.730174088594    -0.541289953330
    O            1.981088535183    -0.409243920012     0.299502954338
    C           -1.362858372407     0.425163863050    -0.008349399909
    H            0.268213127921     0.158989277281    -1.436123819115
    H            0.147223731014     1.789853683005    -0.765333058117
    C           -1.788427784464    -1.023837764600    -0.236260588502
    H           -2.074393907101     1.109581028755    -0.458407827198
    H           -1.396514607850     0.647009865743     1.057322719084
    H           -1.841929647138    -1.251203851610    -1.296355886587
    H           -2.765392650411    -1.214325398896     0.195800059666
    H           -1.084075875102    -1.716778897199     0.214038071089

  Mulliken Charges: (a.u.)
   Center  Symbol    Alpha    Beta     Spin     Total
       1     H     0.43189  0.43189  0.00000  0.13621
       2     C     2.83348  2.83348  0.00000  0.33303
       3     C     3.20763  3.20763  0.00000 -0.41527
       4     O     4.23600  4.23600  0.00000 -0.47200
       5     C     3.16774  3.16774  0.00000 -0.33547
       6     H     0.39890  0.39890  0.00000  0.20219
       7     H     0.40713  0.40713  0.00000  0.18575
       8     C     3.24070  3.24070  0.00000 -0.48139
       9     H     0.41183  0.41183  0.00000  0.17633
      10     H     0.41849  0.41849  0.00000  0.16302
      11     H     0.41678  0.41678  0.00000  0.16644
      12     H     0.41595  0.41595  0.00000  0.16811
      13     H     0.41348  0.41348  0.00000  0.17304

   Total alpha = 20.00000, Total beta = 20.00000, Total charge = -0.00000
