  ==> Input File <==

--------------------------------------------------------------------------
set {
	reference rhf
	basis cc-pvtz
}

set_num_threads( 4 )
memory 2 gb

molecule MOL {
0 1

H	 3.694297	 -0.673900	 3.242602
C	 3.073499	 -1.059242	 2.442459
C	 1.792235	 -0.244905	 2.301500
H	 3.658090	 -1.030638	 1.528964
H	 2.858288	 -2.099304	 2.663761
C	 0.888791	 -0.753025	 1.187691
H	 2.030733	 0.794959	 2.107675
H	 1.246686	 -0.266804	 3.241964
N	 -0.305983	 0.053814	 1.064149
H	 1.423912	 -0.708462	 0.243854
H	 0.658002	 -1.808316	 1.361417
C	 -1.215959	 -0.382435	 0.027143
H	 -0.783760	 0.084875	 1.940552
C	 -2.451944	 0.502410	 -0.038737
H	 -0.691090	 -0.336063	 -0.922351
H	 -1.522898	 -1.424315	 0.158871
C	 -3.752217	 -0.292550	 0.005776
H	 -2.407325	 1.093801	 -0.946480
H	 -2.431979	 1.206234	 0.790023
H	 -3.817783	 -0.982946	 -0.828547
H	 -4.612613	 0.364348	 -0.042306
H	 -3.830160	 -0.871666	 0.919868

	symmetry c1
}
set optking {
	frozen_dihedral = ("
		15 12 14 18
	")
}

ee = optimize('scf')
oeprop('DIPOLE', 'QUADRUPOLE', 'MULLIKEN_CHARGES')
f=open( 'psi4out.xyz', 'w' )
f.write( "22  " )
f.write( str(ee) + "\n" )
f.write( MOL.save_string_xyz() )
f.close()
--------------------------------------------------------------------------

    Molecular point group: c1
  Charge       = 0
  Multiplicity = 1
  Basis Set: CC-PVTZ
  Basis Set:
  @DF-RHF Final Energy:  -290.48385810790865
    Total Energy =                       -290.4838581079088158
    Molecular point group: c1
  Basis Set: CC-PVTZ
  Basis Set:
  Basis Set: CC-PVTZ
  Basis Set:
  @DF-RHF Final Energy:  -290.48419228365896
    Total Energy =                       -290.4841922836591266
  Basis Set: CC-PVTZ
  Basis Set:
  Basis Set: CC-PVTZ
  Basis Set:
  @DF-RHF Final Energy:  -290.48428782303648
    Total Energy =                       -290.4842878230361976
  Basis Set: CC-PVTZ
  Basis Set:
  Basis Set: CC-PVTZ
  Basis Set:
  @DF-RHF Final Energy:  -290.48428915079353
    Total Energy =                       -290.4842891507939271
  Basis Set: CC-PVTZ
  Basis Set:
  Charge       = 0
  Multiplicity = 1
  Basis Set: CC-PVTZ
  Basis Set:

    Orbital Energies (a.u.)
    -----------------------

    Doubly Occupied:

       1A    -15.528449     2A    -11.236450     3A    -11.235847
       4A    -11.211825     5A    -11.211717     6A    -11.207747
       7A    -11.207539     8A     -1.206793     9A     -1.058641
      10A     -1.025897    11A     -0.928278    12A     -0.870313
      13A     -0.811063    14A     -0.794486    15A     -0.667977
      16A     -0.631165    17A     -0.618817    18A     -0.600982
      19A     -0.576363    20A     -0.563642    21A     -0.543285
      22A     -0.527997    23A     -0.507451    24A     -0.488096
      25A     -0.481408    26A     -0.472309    27A     -0.464839
      28A     -0.451352    29A     -0.360712

  @DF-RHF Final Energy:  -290.48428931294984

   => Energetics <=

    Nuclear Repulsion Energy =            314.0719551290952722
    One-Electron Energy =               -1014.1296103361191854
    Two-Electron Energy =                 409.5733658940740725
    DFT Exchange-Correlation Energy =       0.0000000000000000
    Empirical Dispersion Energy =           0.0000000000000000
    PCM Polarization Energy =               0.0000000000000000
    EFP Energy =                            0.0000000000000000
    Total Energy =                       -290.4842893129498407
    Molecular point group: c1
  Basis Set: CC-PVTZ
  Basis Set:

  -Total Gradient:
     Atom            X                  Y                   Z
    ------   -----------------  -----------------  -----------------
       1       -0.000002216956     0.000001400258    -0.000001014230
       2       -0.000002397834     0.000002096389    -0.000002526418
       3        0.000005310926    -0.000005502820     0.000002541291
       4        0.000001312091    -0.000000399305    -0.000000879936
       5       -0.000001066802     0.000000470268     0.000000202503
       6       -0.000003663435     0.000009728258     0.000008701623
       7        0.000001764387     0.000001817316     0.000000850609
       8       -0.000000742141     0.000000187573     0.000002120054
       9       -0.000012066596    -0.000025057259    -0.000022364729
      10        0.000001776086    -0.000001029480    -0.000001870193
      11        0.000002239508    -0.000004092519     0.000000096779
      12       -0.001605711178    -0.002331337744    -0.001112000563
      13       -0.000000979867    -0.000002310930    -0.000014648880
      14        0.001492899117     0.002218207327     0.001450077571
      15        0.001111924957     0.001615760156     0.000710111594
      16       -0.000000372689     0.000010769046     0.000004271238
      17        0.000009678486     0.000010362075     0.000010396956
      18       -0.001002278586    -0.001505392569    -0.001032766025
      19       -0.000001530566    -0.000003777301     0.000004959705
      20        0.000011657111    -0.000001542225     0.000003028688
      21       -0.000003006096     0.000003091136    -0.000003887245
      22       -0.000002529926     0.000006552349    -0.000005400391

  **** Optimization is complete! (in 5 steps) ****
    Final optimized geometry and variables:
    Molecular point group: c1

    Geometry (in Angstrom), charge = 0, multiplicity = 1:

    H            3.996778163075    -0.345575007862     2.227720453028
    C            3.372721942543    -0.732029688245     1.430627732619
    C            2.088397106545     0.078711113626     1.297447863919
    H            3.952147326868    -0.700925976398     0.513931495448
    H            3.161604661236    -1.772873873520     1.652198542757
    C            1.180824464101    -0.430351285349     0.187303178955
    H            2.323013595780     1.119500396106     1.103921082143
    H            1.547773466650     0.053672879794     2.240683229596
    N           -0.015117056607     0.375047163547     0.068839214527
    H            1.712077722777    -0.385021768737    -0.758807231012
    H            0.952272650829    -1.486147847892     0.361538122704
    C           -0.932156718892    -0.071691323420    -0.961904811511
    H           -0.487888414114     0.405956608296     0.948210146919
    C           -2.179891368499     0.825048812484    -1.038755405067
    H           -0.393079332617    -0.035954535227    -1.901748806703
    H           -1.232338823856    -1.111404374094    -0.812659647795
    C           -3.490694575511     0.043003528439    -1.025017887759
    H           -2.143879803886     1.422199434400    -1.942660969621
    H           -2.163944306223     1.522987608236    -0.209941642371
    H           -3.545719773753    -0.646224567107    -1.861201711341
    H           -4.344086005462     0.708333214118    -1.090065168373
    H           -3.591447256392    -0.538621681046    -0.114278841751

  Mulliken Charges: (a.u.)
   Center  Symbol    Alpha    Beta     Spin     Total
       1     H     0.44772  0.44772  0.00000  0.10456
       2     C     3.15358  3.15358  0.00000 -0.30717
       3     C     3.08032  3.08032  0.00000 -0.16063
       4     H     0.45473  0.45473  0.00000  0.09054
       5     H     0.45614  0.45614  0.00000  0.08771
       6     C     3.02055  3.02055  0.00000 -0.04110
       7     H     0.44904  0.44904  0.00000  0.10192
       8     H     0.45976  0.45976  0.00000  0.08049
       9     N     3.63751  3.63751  0.00000 -0.27502
      10     H     0.45933  0.45933  0.00000  0.08133
      11     H     0.47535  0.47535  0.00000  0.04929
      12     C     3.03359  3.03359  0.00000 -0.06719
      13     H     0.44507  0.44507  0.00000  0.10986
      14     C     3.08908  3.08908  0.00000 -0.17816
      15     H     0.45680  0.45680  0.00000  0.08640
      16     H     0.47047  0.47047  0.00000  0.05905
      17     C     3.14953  3.14953  0.00000 -0.29906
      18     H     0.44972  0.44972  0.00000  0.10056
      19     H     0.45065  0.45065  0.00000  0.09869
      20     H     0.45512  0.45512  0.00000  0.08975
      21     H     0.44911  0.44911  0.00000  0.10179
      22     H     0.45681  0.45681  0.00000  0.08638

   Total alpha = 29.00000, Total beta = 29.00000, Total charge = -0.00000
