  ==> Input File <==

--------------------------------------------------------------------------
set {
	reference rhf
	basis cc-pvtz
}

set_num_threads( 4 )
memory 2 gb

molecule MOL {
0 1

H	 3.098325	 1.334142	 1.423132
N	 2.268597	 0.780921	 1.389745
C	 1.860978	 0.530248	 0.016256
H	 1.560855	 1.281317	 1.885783
C	 0.644130	 -0.381765	 -0.031064
H	 2.689157	 0.048297	 -0.492418
H	 1.644813	 1.445838	 -0.535943
C	 -0.678115	 0.376691	 0.025731
H	 0.693998	 -0.977147	 -0.936845
H	 0.693309	 -1.082142	 0.800523
C	 -1.900706	 -0.535531	 -0.022488
H	 -0.725296	 1.079516	 -0.802982
H	 -0.715474	 0.974884	 0.933278
C	 -3.220513	 0.226854	 0.028039
H	 -1.865036	 -1.134397	 -0.928236
H	 -1.857948	 -1.236381	 0.806820
H	 -3.309098	 0.911849	 -0.808725
H	 -4.066838	 -0.449485	 -0.008086
H	 -3.301685	 0.809374	 0.939860

	symmetry c1
}
set optking {
	frozen_dihedral = ("
		6 3 5 9
	")
}

ee = optimize('scf')
oeprop('DIPOLE', 'QUADRUPOLE', 'MULLIKEN_CHARGES')
f=open( 'psi4out.xyz', 'w' )
f.write( "19  " )
f.write( str(ee) + "\n" )
f.write( MOL.save_string_xyz() )
f.close()
--------------------------------------------------------------------------

    Molecular point group: c1
  Charge       = 0
  Multiplicity = 1
  Basis Set: CC-PVTZ
  Basis Set:
  @DF-RHF Final Energy:  -251.44484850048485
    Total Energy =                       -251.4448485004849090
    Molecular point group: c1
  Basis Set: CC-PVTZ
  Basis Set:
  Basis Set: CC-PVTZ
  Basis Set:
  @DF-RHF Final Energy:  -251.44513916654105
    Total Energy =                       -251.4451391665412530
  Basis Set: CC-PVTZ
  Basis Set:
  Basis Set: CC-PVTZ
  Basis Set:
  @DF-RHF Final Energy:  -251.44521242936452
    Total Energy =                       -251.4452124293646307
  Basis Set: CC-PVTZ
  Basis Set:
  Charge       = 0
  Multiplicity = 1
  Basis Set: CC-PVTZ
  Basis Set:

    Orbital Energies (a.u.)
    -----------------------

    Doubly Occupied:

       1A    -15.526749     2A    -11.238019     3A    -11.212473
       4A    -11.211700     5A    -11.207336     6A    -11.206202
       7A     -1.178060     8A     -1.073677     9A     -0.998662
      10A     -0.905609    11A     -0.814892    12A     -0.785620
      13A     -0.667409    14A     -0.645126    15A     -0.616123
      16A     -0.588764    17A     -0.560891    18A     -0.550492
      19A     -0.534544    20A     -0.501235    21A     -0.486469
      22A     -0.465217    23A     -0.462077    24A     -0.445382
      25A     -0.383145

  @DF-RHF Final Energy:  -251.44521319497406

   => Energetics <=

    Nuclear Repulsion Energy =            248.4057091297142108
    One-Electron Energy =                -831.1700943381298430
    Two-Electron Energy =                 331.3191720134416300
    DFT Exchange-Correlation Energy =       0.0000000000000000
    Empirical Dispersion Energy =           0.0000000000000000
    PCM Polarization Energy =               0.0000000000000000
    EFP Energy =                            0.0000000000000000
    Total Energy =                       -251.4452131949740306
    Molecular point group: c1
  Basis Set: CC-PVTZ
  Basis Set:

  -Total Gradient:
     Atom            X                  Y                   Z
    ------   -----------------  -----------------  -----------------
       1        0.000030025865     0.000023324518     0.000007068723
       2        0.000019471090    -0.000011419798     0.000052270558
       3        0.001630344863    -0.002757666276     0.004549801309
       4       -0.000010319506     0.000001984294    -0.000011016009
       5       -0.002536447726     0.003826341437    -0.003128598730
       6       -0.001006840704     0.001699915158    -0.003343375413
       7        0.000002909040     0.000004246437     0.000005735993
       8       -0.000032255638     0.000022087957    -0.000049853691
       9        0.001860092330    -0.002781027205     0.001919629839
      10        0.000006490978    -0.000005517842    -0.000001265287
      11        0.000036014897     0.000004514750    -0.000009440383
      12        0.000020494572    -0.000007610940    -0.000008669881
      13        0.000009830885    -0.000008871225    -0.000010940994
      14       -0.000014125568    -0.000003033711     0.000033230143
      15        0.000001996747     0.000007172202    -0.000003581962
      16       -0.000011053728    -0.000013865104    -0.000012266855
      17        0.000008480960    -0.000013969077     0.000003386414
      18       -0.000010345373     0.000003130483     0.000009194391
      19       -0.000004763985     0.000010263941    -0.000001308162

  **** Optimization is complete! (in 4 steps) ****
    Final optimized geometry and variables:
    Molecular point group: c1

    Geometry (in Angstrom), charge = 0, multiplicity = 1:

    H            3.243890539447     1.149598534151     1.192687410573
    N            2.413993335080     0.596305985628     1.155436456957
    C            2.033240294885     0.326596270154    -0.223196761360
    H            1.701735312857     1.110931985126     1.629508526081
    C            0.793833340937    -0.564113048842    -0.307969919122
    H            2.862684742562    -0.163359636716    -0.718797674494
    H            1.850299354653     1.239526357079    -0.793330609572
    C           -0.530582172004     0.191542597905    -0.243075937377
    H            0.840365366611    -1.155479555760    -1.217652625584
    H            0.845224053204    -1.279035296870     0.507606622271
    C           -1.750080898345    -0.725136990744    -0.273941307316
    H           -0.586510156168     0.890653391881    -1.074061829345
    H           -0.565941152220     0.793607242823     0.662494295768
    C           -3.072693041950     0.031722527998    -0.213916654618
    H           -1.720724765413    -1.327906210106    -1.177619040552
    H           -1.695275487255    -1.421864893627     0.557717385091
    H           -3.173190754793     0.711860404074    -1.053306879412
    H           -3.916296669337    -0.648560452071    -0.237428682036
    H           -3.147116673144     0.618517807760     0.695759640627

  Mulliken Charges: (a.u.)
   Center  Symbol    Alpha    Beta     Spin     Total
       1     H     0.42966  0.42966  0.00000  0.14069
       2     N     3.68677  3.68677  0.00000 -0.37354
       3     C     3.03526  3.03526  0.00000 -0.07052
       4     H     0.43121  0.43121  0.00000  0.13757
       5     C     3.09547  3.09547  0.00000 -0.19094
       6     H     0.45196  0.45196  0.00000  0.09608
       7     H     0.46833  0.46833  0.00000  0.06334
       8     C     3.08430  3.08430  0.00000 -0.16860
       9     H     0.45138  0.45138  0.00000  0.09725
      10     H     0.44959  0.44959  0.00000  0.10083
      11     C     3.08458  3.08458  0.00000 -0.16916
      12     H     0.45527  0.45527  0.00000  0.08947
      13     H     0.45956  0.45956  0.00000  0.08089
      14     C     3.14983  3.14983  0.00000 -0.29965
      15     H     0.45445  0.45445  0.00000  0.09111
      16     H     0.45296  0.45296  0.00000  0.09409
      17     H     0.45549  0.45549  0.00000  0.08902
      18     H     0.44832  0.44832  0.00000  0.10336
      19     H     0.45564  0.45564  0.00000  0.08872

   Total alpha = 25.00000, Total beta = 25.00000, Total charge = -0.00000
