                              Psi4 1.0.54 Driver

  ==> Input File <==

--------------------------------------------------------------------------
set {
	reference rhf
	basis cc-pvtz
}

set_num_threads( 4 )
memory 2 gb

molecule MOL {
0 1

H	 -2.346905	 -0.725648	 -1.247059
O	 -2.321472	 -0.864941	 -0.318626
C	 -2.021813	 0.336996	 0.342658
C	 -0.669613	 0.837286	 -0.127252
H	 -2.780861	 1.084746	 0.127159
H	 -2.006390	 0.184138	 1.420053
C	 0.490865	 -0.082543	 0.241244
H	 -0.708709	 0.967192	 -1.204587
H	 -0.507562	 1.822272	 0.303070
C	 1.839800	 0.429565	 -0.255472
H	 0.305636	 -1.070211	 -0.165276
H	 0.527397	 -0.195943	 1.322876
C	 3.001144	 -0.485193	 0.119072
H	 1.804373	 0.541073	 -1.335756
H	 2.020437	 1.423114	 0.146921
H	 2.866892	 -1.477297	 -0.298806
H	 3.943543	 -0.095749	 -0.249061
H	 3.085064	 -0.590459	 1.195790

	symmetry c1
}
set optking {
	frozen_dihedral = ("
		1 2 3 4
	")
}

ee,wfn = optimize('scf', return_wfn=True)
oeprop( wfn, 'DIPOLE', 'QUADRUPOLE', 'MULLIKEN_CHARGES')
f=open( 'psi4out.xyz', 'w' )
f.write( "18  " )
f.write( str(ee) + "\n" )
f.write( MOL.save_string_xyz() )
f.close()
--------------------------------------------------------------------------

    Molecular point group: c1
  Charge       = 0
  Multiplicity = 1
  Basis Set: CC-PVTZ
  Basis Set:
  @DF-RHF Final Energy:  -271.28472921303069
    Total Energy =                       -271.2847292130305732
    Molecular point group: c1
  Basis Set: CC-PVTZ
  Basis Set:
  Basis Set: CC-PVTZ
  Basis Set:
  @DF-RHF Final Energy:  -271.07279716538005
    Total Energy =                       -271.0727971653798818
  Basis Set: CC-PVTZ
  Basis Set:
  Basis Set: CC-PVTZ
  Basis Set:
  @DF-RHF Final Energy:  -271.20106435284697
    Total Energy =                       -271.2010643528469700
  Basis Set: CC-PVTZ
  Basis Set:
  Basis Set: CC-PVTZ
  Basis Set:
  @DF-RHF Final Energy:  -271.27747915201371
    Total Energy =                       -271.2774791520134272
  Basis Set: CC-PVTZ
  Basis Set:
  @DF-RHF Final Energy:  -271.28458287961439
    Total Energy =                       -271.2845828796143905
  Basis Set: CC-PVTZ
  Basis Set:
  @DF-RHF Final Energy:  -271.28631506316788
    Total Energy =                       -271.2863150631678195
  Basis Set: CC-PVTZ
  Basis Set:
  Basis Set: CC-PVTZ
  Basis Set:
  @DF-RHF Final Energy:  -271.28651989647523
    Total Energy =                       -271.2865198964755109
  Basis Set: CC-PVTZ
  Basis Set:
  Basis Set: CC-PVTZ
  Basis Set:
  @DF-RHF Final Energy:  -271.28653144055767
    Total Energy =                       -271.2865314405576100
  Basis Set: CC-PVTZ
  Basis Set:
  Charge       = 0
  Multiplicity = 1
  Basis Set: CC-PVTZ
  Basis Set:

    Orbital Energies (a.u.)
    -----------------------

    Doubly Occupied:

       1A    -20.546387     2A    -11.265703     3A    -11.216300
       4A    -11.213649     5A    -11.210188     6A    -11.206164
       7A     -1.364321     8A     -1.080428     9A     -1.011978
      10A     -0.918005    11A     -0.830642    12A     -0.793781
      13A     -0.680423    14A     -0.653604    15A     -0.618116
      16A     -0.611536    17A     -0.575916    18A     -0.553709
      19A     -0.539467    20A     -0.494312    21A     -0.487948
      22A     -0.480352    23A     -0.464355    24A     -0.459631
      25A     -0.426110

  @DF-RHF Final Energy:  -271.28653233894670

   => Energetics <=

    Nuclear Repulsion Energy =            249.0573945849060635
    One-Electron Energy =                -861.2818009226889444
    Two-Electron Energy =                 340.9378739988359257
    DFT Exchange-Correlation Energy =       0.0000000000000000
    Empirical Dispersion Energy =           0.0000000000000000
    PCM Polarization Energy =               0.0000000000000000
    EFP Energy =                            0.0000000000000000
    Total Energy =                       -271.2865323389469268
    Molecular point group: c1
  Basis Set: CC-PVTZ
  Basis Set:

  -Total Gradient:
     Atom            X                  Y                   Z
    ------   -----------------  -----------------  -----------------
       1        0.000356498770    -0.000295568296    -0.000050047407
       2       -0.000484185749     0.000373521635    -0.000011280413
       3        0.000233192560    -0.000214757922     0.000248265676
       4       -0.000112820106     0.000117665895    -0.000215648757
       5        0.000011749625     0.000006682917     0.000009399013
       6        0.000003854751    -0.000009879063    -0.000011733496
       7        0.000021385320     0.000033655234     0.000011423992
       8       -0.000021874626     0.000023531365    -0.000007182956
       9        0.000002998811    -0.000014126710     0.000008325266
      10       -0.000017219987    -0.000014963947    -0.000017395039
      11        0.000002177097     0.000007690703    -0.000000336838
      12        0.000018245131    -0.000014359978     0.000019499539
      13        0.000000945349     0.000001452972     0.000011429968
      14       -0.000012969234     0.000020471782    -0.000022055420
      15       -0.000012225514    -0.000017937810     0.000011559879
      16        0.000007093064     0.000012754296    -0.000001502992
      17       -0.000010323203    -0.000002760881     0.000001306319
      18        0.000013477942    -0.000013072188     0.000015973667

  **** Optimization is complete! (in 9 steps) ****
    Final optimized geometry and variables:
    Molecular point group: c1

    Geometry (in Angstrom), charge = 0, multiplicity = 1:

    H           -2.765947135526     0.085882398693    -0.509186333393
    O           -2.523150890128     0.173242826628     0.394854447211
    C           -1.595399255646     1.215805938792     0.540157819963
    C           -0.315031620682     1.000038536409    -0.252468697524
    H           -2.046382492495     2.163301140837     0.255772309741
    H           -1.374541106058     1.269441327150     1.598620108788
    C            0.477698045448    -0.231885183201     0.174338572153
    H           -0.562601168773     0.929323611113    -1.310771614783
    H            0.301792709154     1.888943141883    -0.145473680757
    C            1.740612118945    -0.451453750092    -0.653561729641
    H           -0.157230099278    -1.108621848011     0.107189281654
    H            0.748928873397    -0.132819091021     1.222909785498
    C            2.534512568382    -1.678645372279    -0.218399533026
    H            1.470027484847    -0.551587146059    -1.701461184443
    H            2.374179475606     0.429089922868    -0.586703225349
    H            1.938061303993    -2.580628591287    -0.305176652209
    H            3.422133841356    -1.808954754513    -0.826842356362
    H            2.851941058961    -1.592797565354     0.815505712322

  Mulliken Charges: (a.u.)
   Center  Symbol    Alpha    Beta     Spin     Total
       1     H     0.39513  0.39513  0.00000  0.20974
       2     O     4.20381  4.20381  0.00000 -0.40762
       3     C     2.97558  2.97558  0.00000  0.04884
       4     C     3.10357  3.10357  0.00000 -0.20713
       5     H     0.46091  0.46091  0.00000  0.07818
       6     H     0.45915  0.45915  0.00000  0.08169
       7     C     3.08409  3.08409  0.00000 -0.16819
       8     H     0.45898  0.45898  0.00000  0.08205
       9     H     0.45276  0.45276  0.00000  0.09449
      10     C     3.08359  3.08359  0.00000 -0.16719
      11     H     0.44747  0.44747  0.00000  0.10505
      12     H     0.45561  0.45561  0.00000  0.08879
      13     C     3.14952  3.14952  0.00000 -0.29904
      14     H     0.45550  0.45550  0.00000  0.08899
      15     H     0.45594  0.45594  0.00000  0.08813
      16     H     0.45459  0.45459  0.00000  0.09083
      17     H     0.44890  0.44890  0.00000  0.10219
      18     H     0.45490  0.45490  0.00000  0.09021

   Total alpha = 25.00000, Total beta = 25.00000, Total charge = -0.00000

*** Psi4 exiting successfully. Buy a developer a beer!
