                              Psi4 1.0.54 Driver

  ==> Input File <==

--------------------------------------------------------------------------
set {
	reference rhf
	basis cc-pvtz
}

set_num_threads( 4 )
memory 2 gb

molecule MOL {
0 1

H	 1.773314	 0.890289	 0.798726
C	 0.912674	 0.980529	 0.152300
O	 0.000000	 0.000000	 0.518769
H	 0.492917	 1.977967	 0.265334
H	 1.235530	 0.858831	 -0.879596
C	 -1.165153	 0.000000	 -0.236961
H	 -1.229451	 0.882440	 -0.870223
H	 -2.002557	 0.000000	 0.445289
H	 -1.229451	 -0.882440	 -0.870223

	symmetry c1
}
set optking {
	frozen_dihedral = ("
		2 3 6 7
	")
}

ee,wfn = optimize('scf', return_wfn=True)
oeprop( wfn, 'DIPOLE', 'QUADRUPOLE', 'MULLIKEN_CHARGES')
f=open( 'psi4out.xyz', 'w' )
f.write( "9  " )
f.write( str(ee) + "\n" )
f.write( MOL.save_string_xyz() )
f.close()
--------------------------------------------------------------------------

    Molecular point group: c1
  Charge       = 0
  Multiplicity = 1
  Basis Set: CC-PVTZ
  Basis Set:
  @DF-RHF Final Energy:  -154.12330565819701
    Total Energy =                       -154.1233056581971255
    Molecular point group: c1
  Basis Set: CC-PVTZ
  Basis Set:
  Basis Set: CC-PVTZ
  Basis Set:
  @DF-RHF Final Energy:  -154.12359660405309
    Total Energy =                       -154.1235966040531480
  Basis Set: CC-PVTZ
  Basis Set:
  Basis Set: CC-PVTZ
  Basis Set:
  @DF-RHF Final Energy:  -154.12369203756339
    Total Energy =                       -154.1236920375633872
  Basis Set: CC-PVTZ
  Basis Set:
  Charge       = 0
  Multiplicity = 1
  Basis Set: CC-PVTZ
  Basis Set:

    Orbital Energies (a.u.)
    -----------------------

    Doubly Occupied:

       1A    -20.546780     2A    -11.263596     3A    -11.262684
       4A     -1.377923     5A     -0.975824     6A     -0.872624
       7A     -0.658942     8A     -0.654988     9A     -0.644873
      10A     -0.558527    11A     -0.527999    12A     -0.475391
      13A     -0.414998

  @DF-RHF Final Energy:  -154.12369265571527

   => Energetics <=

    Nuclear Repulsion Energy =             84.5903420972655340
    One-Electron Energy =                -376.9577725994678872
    Two-Electron Energy =                 138.2437378464870221
    DFT Exchange-Correlation Energy =       0.0000000000000000
    Empirical Dispersion Energy =           0.0000000000000000
    PCM Polarization Energy =               0.0000000000000000
    EFP Energy =                            0.0000000000000000
    Total Energy =                       -154.1236926557153311
    Molecular point group: c1
  Basis Set: CC-PVTZ
  Basis Set:

  -Total Gradient:
     Atom            X                  Y                   Z
    ------   -----------------  -----------------  -----------------
       1        0.000030740086     0.000024918148    -0.000003689604
       2       -0.000347986861     0.000790805525     0.000770136635
       3        0.000745751432    -0.001282123166    -0.001504016768
       4       -0.000029887093    -0.000038989185    -0.000003130157
       5       -0.000032490907    -0.000003694183     0.000016617500
       6       -0.001053261249     0.001236539727     0.001798420431
       7        0.000709084728    -0.000728888274    -0.001058670810
       8       -0.000037206254     0.000002295096    -0.000005243603
       9        0.000015256117    -0.000000863689    -0.000010423624

  **** Optimization is complete! (in 4 steps) ****
    Final optimized geometry and variables:
    Molecular point group: c1

    Geometry (in Angstrom), charge = 0, multiplicity = 1:

    H            1.878885718661     0.529010344567     0.649316989579
    C            1.019560037760     0.634006379682     0.002651997638
    O            0.087648081672    -0.324989876714     0.380664543796
    H            0.623453467512     1.640948948949     0.110689762675
    H            1.342559268269     0.499251294962    -1.027368954302
    C           -1.100125654094    -0.337424531610    -0.349965933560
    H           -1.185466961990     0.527779179765    -0.999784801860
    H           -1.941393293342    -0.344027373158     0.331767779662
    H           -1.149795868396    -1.226486467977    -0.970635792766

  Mulliken Charges: (a.u.)
   Center  Symbol    Alpha    Beta     Spin     Total
       1     H     0.44976  0.44976  0.00000  0.10047
       2     C     3.02081  3.02081  0.00000 -0.04162
       3     O     4.17267  4.17267  0.00000 -0.34533
       4     H     0.47280  0.47280  0.00000  0.05440
       5     H     0.47331  0.47331  0.00000  0.05338
       6     C     3.01644  3.01644  0.00000 -0.03288
       7     H     0.47482  0.47482  0.00000  0.05036
       8     H     0.45697  0.45697  0.00000  0.08605
       9     H     0.46241  0.46241  0.00000  0.07518

   Total alpha = 13.00000, Total beta = 13.00000, Total charge = -0.00000

*** Psi4 exiting successfully. Buy a developer a beer!
