  ==> Input File <==

--------------------------------------------------------------------------
set {
	reference rhf
	basis 6-31G*
}

set_num_threads( 1 )
memory 2 gb

molecule MOL {
0 1

O	 1.667502	 0.388415	 0.437748
C	 2.701189	 0.057885	 -0.047330
C	 3.449267	 0.808941	 -1.122077
O	 3.347903	 -1.046386	 0.304773
C	 2.749210	 2.096127	 -1.552413
H	 4.448299	 0.996484	 -0.742664
H	 3.573455	 0.131273	 -1.962934
C	 3.440977	 2.815812	 -2.715171
H	 2.671756	 2.764426	 -0.700066
H	 1.730719	 1.856734	 -1.838404
C	 4.827597	 3.379595	 -2.391840
H	 2.799299	 3.633711	 -3.034568
H	 3.515167	 2.140874	 -3.566619
C	 5.428065	 4.181867	 -3.548040
H	 4.758532	 4.015646	 -1.510654
H	 5.509279	 2.572467	 -2.133332
C	 6.815927	 4.745707	 -3.238116
H	 4.757598	 5.000417	 -3.804330
H	 5.487453	 3.549504	 -4.432511
C	 7.406862	 5.548735	 -4.396409
H	 6.758589	 5.377058	 -2.353950
H	 7.488642	 3.928612	 -2.985941
H	 8.390221	 5.934956	 -4.146517
H	 6.774084	 6.394576	 -4.650063
H	 7.509143	 4.935055	 -5.287032
C	 4.728119	 -1.109107	 -0.004993
H	 4.882018	 -1.033965	 -1.071845
H	 5.068212	 -2.067527	 0.355250
H	 5.265056	 -0.311663	 0.488280

	symmetry c1
}
set optking {
	frozen_dihedral = ("
		21 17 14 11,
		17 14 11 15,
		15 11 8 5,
		6 3 5 9,
		11 8 5 9,
		2 4 26 27,
		6 3 2 1
	")
}

ee = energy('scf')
oeprop('DIPOLE', 'QUADRUPOLE', 'MULLIKEN_CHARGES')
f=open( 'psi4out.xyz', 'w' )
f.write( "29  " )
f.write( str(ee) + "\n" )
f.write( MOL.save_string_xyz() )
f.close()
--------------------------------------------------------------------------

    Molecular point group: c1

    Geometry (in Angstrom), charge = 0, multiplicity = 1:

       Center              X                  Y                   Z               Mass
    ------------   -----------------  -----------------  -----------------  -----------------
           O         -2.575129245417    -1.571932130821     2.082194490475    15.994914619560
           C         -1.541442245417    -1.902462130821     1.597116490475    12.000000000000
           C         -0.793364245417    -1.151406130821     0.522369490475    12.000000000000
           O         -0.894728245417    -3.006733130821     1.949219490475    15.994914619560
           C         -1.493421245417     0.135779869179     0.092033490475    12.000000000000
           H          0.205667754583    -0.963863130821     0.901782490475     1.007825032070
           H         -0.669176245417    -1.829074130821    -0.318487509525     1.007825032070
           C         -0.801654245417     0.855464869179    -1.070724509525    12.000000000000
           H         -1.570875245417     0.804078869179     0.944380490475     1.007825032070
           H         -2.511912245417    -0.103613130821    -0.193957509525     1.007825032070
           C          0.584965754583     1.419247869179    -0.747393509525    12.000000000000
           H         -1.443332245417     1.673363869179    -1.390121509525     1.007825032070
           H         -0.727464245417     0.180526869179    -1.922172509525     1.007825032070
           C          1.185433754583     2.221519869179    -1.903593509525    12.000000000000
           H          0.515900754583     2.055298869179     0.133792490475     1.007825032070
           H          1.266647754583     0.612119869179    -0.488885509525     1.007825032070
           C          2.573295754583     2.785359869179    -1.593669509525    12.000000000000
           H          0.514966754583     3.040069869179    -2.159883509525     1.007825032070
           H          1.244821754583     1.589156869179    -2.788064509525     1.007825032070
           C          3.164230754583     3.588387869179    -2.751962509525    12.000000000000
           H          2.515957754583     3.416710869179    -0.709503509525     1.007825032070
           H          3.246010754583     1.968264869179    -1.341494509525     1.007825032070
           H          4.147589754583     3.974608869179    -2.502070509525     1.007825032070
           H          2.531452754583     4.434228869179    -3.005616509525     1.007825032070
           H          3.266511754583     2.974707869179    -3.642585509525     1.007825032070
           C          0.485487754583    -3.069454130821     1.639453490475    12.000000000000
           H          0.639386754583    -2.994312130821     0.572601490475     1.007825032070
           H          0.825580754583    -4.027874130821     1.999696490475     1.007825032070
           H          1.022424754583    -2.272010130821     2.132726490475     1.007825032070

  Charge       = 0
  Multiplicity = 1
  Basis Set: 6-31G*
  Basis Set:

    Orbital Energies (a.u.)
    -----------------------

    Doubly Occupied:

       1A    -20.605703     2A    -20.544328     3A    -11.374337
       4A    -11.297347     5A    -11.241129     6A    -11.222928
       7A    -11.221920     8A    -11.221264     9A    -11.219980
      10A    -11.218836    11A    -11.212472    12A     -1.467701
      13A     -1.368805    14A     -1.102640    15A     -1.070053
      16A     -1.016317    17A     -0.988471    18A     -0.949759
      19A     -0.873458    20A     -0.808453    21A     -0.795979
      22A     -0.759954    23A     -0.707185    24A     -0.695509
      25A     -0.678503    26A     -0.654775    27A     -0.630737
      28A     -0.608928    29A     -0.598697    30A     -0.591749
      31A     -0.569774    32A     -0.559763    33A     -0.547282
      34A     -0.540549    35A     -0.525308    36A     -0.510414
      37A     -0.501524    38A     -0.482601    39A     -0.474219
      40A     -0.466767    41A     -0.463868    42A     -0.451562
      43A     -0.443838    44A     -0.428611

  @DF-RHF Final Energy:  -501.01750340932006

   => Energetics <=

    Nuclear Repulsion Energy =            620.4995969755908618
    One-Electron Energy =               -1911.6059565366451807
    Two-Electron Energy =                 790.0888561517360813
    DFT Exchange-Correlation Energy =       0.0000000000000000
    Empirical Dispersion Energy =           0.0000000000000000
    PCM Polarization Energy =               0.0000000000000000
    EFP Energy =                            0.0000000000000000
    Total Energy =                       -501.0175034093183513

  Mulliken Charges: (a.u.)
   Center  Symbol    Alpha    Beta     Spin     Total
       1     O     4.27192  4.27192  0.00000 -0.54383
       2     C     2.58931  2.58931  0.00000  0.82137
       3     C     3.24753  3.24753  0.00000 -0.49507
       4     O     4.30082  4.30082  0.00000 -0.60164
       5     C     3.14957  3.14957  0.00000 -0.29915
       6     H     0.40105  0.40105  0.00000  0.19790
       7     H     0.39978  0.39978  0.00000  0.20044
       8     C     3.15675  3.15675  0.00000 -0.31350
       9     H     0.41188  0.41188  0.00000  0.17623
      10     H     0.40643  0.40643  0.00000  0.18715
      11     C     3.15432  3.15432  0.00000 -0.30863
      12     H     0.41695  0.41695  0.00000  0.16611
      13     H     0.42459  0.42459  0.00000  0.15082
      14     C     3.15029  3.15029  0.00000 -0.30059
      15     H     0.42185  0.42185  0.00000  0.15631
      16     H     0.42755  0.42755  0.00000  0.14489
      17     C     3.15146  3.15146  0.00000 -0.30292
      18     H     0.42223  0.42223  0.00000  0.15555
      19     H     0.42401  0.42401  0.00000  0.15197
      20     C     3.23945  3.23945  0.00000 -0.47890
      21     H     0.42237  0.42237  0.00000  0.15526
      22     H     0.42451  0.42451  0.00000  0.15097
      23     H     0.41884  0.41884  0.00000  0.16232
      24     H     0.42093  0.42093  0.00000  0.15814
      25     H     0.42175  0.42175  0.00000  0.15651
      26     C     3.10422  3.10422  0.00000 -0.20845
      27     H     0.41296  0.41296  0.00000  0.17409
      28     H     0.39578  0.39578  0.00000  0.20844
      29     H     0.41090  0.41090  0.00000  0.17819

   Total alpha = 44.00000, Total beta = 44.00000, Total charge =  0.00000
