                              Psi4 1.0.54 Driver

  ==> Input File <==

--------------------------------------------------------------------------
set {
	reference rhf
	basis cc-pvtz
}

set_num_threads( 4 )
memory 2 gb

molecule MOL {
0 1

H	 -3.162190	 0.493205	 -0.000107
C	 -2.363908	 -0.234727	 0.000005
O	 -1.158738	 0.454634	 -0.000087
H	 -2.464314	 -0.863616	 -0.882153
H	 -2.464327	 -0.863359	 0.882345
C	 -0.028611	 -0.359694	 0.000037
C	 1.212847	 0.509314	 -0.000053
H	 -0.034155	 -1.007047	 -0.877198
H	 -0.034195	 -1.006836	 0.877430
C	 2.174522	 0.151022	 1.127404
H	 1.707047	 0.405550	 -0.959702
H	 0.908319	 1.546666	 0.084293
H	 2.511182	 -0.877305	 1.048103
H	 3.051393	 0.786282	 1.103664
H	 1.707224	 0.271721	 2.099069

	symmetry c1
}
set optking {
	frozen_dihedral = ("
		11 7 6 8
	")
}

ee,wfn = optimize('scf', return_wfn=True)
oeprop( wfn, 'DIPOLE', 'QUADRUPOLE', 'MULLIKEN_CHARGES')
f=open( 'psi4out.xyz', 'w' )
f.write( "15  " )
f.write( str(ee) + "\n" )
f.write( MOL.save_string_xyz() )
f.close()
--------------------------------------------------------------------------

    Molecular point group: c1
  Charge       = 0
  Multiplicity = 1
  Basis Set: CC-PVTZ
  Basis Set:
  @DF-RHF Final Energy:  -232.22218348045519
    Total Energy =                       -232.2221834804553282
    Molecular point group: c1
  Basis Set: CC-PVTZ
  Basis Set:
  Basis Set: CC-PVTZ
  Basis Set:
  @DF-RHF Final Energy:  -232.22253661087558
    Total Energy =                       -232.2225366108755225
  Basis Set: CC-PVTZ
  Basis Set:
  Basis Set: CC-PVTZ
  Basis Set:
  @DF-RHF Final Energy:  -232.22264535361978
    Total Energy =                       -232.2226453536197823
  Basis Set: CC-PVTZ
  Basis Set:
  Basis Set: CC-PVTZ
  Basis Set:
  @DF-RHF Final Energy:  -232.22264708301165
    Total Energy =                       -232.2226470830116796
  Basis Set: CC-PVTZ
  Basis Set:
  Charge       = 0
  Multiplicity = 1
  Basis Set: CC-PVTZ
  Basis Set:

    Orbital Energies (a.u.)
    -----------------------

    Doubly Occupied:

       1A    -20.547429     2A    -11.264771     3A    -11.261340
       4A    -11.212605     5A    -11.209070     6A     -1.380834
       7A     -1.054613     8A     -0.954880     9A     -0.878395
      10A     -0.809240    11A     -0.672941    12A     -0.658155
      13A     -0.633210    14A     -0.596997    15A     -0.571617
      16A     -0.545717    17A     -0.494152    18A     -0.490162
      19A     -0.480331    20A     -0.462413    21A     -0.414293

  @DF-RHF Final Energy:  -232.22264744069295

   => Energetics <=

    Nuclear Repulsion Energy =            190.1193317197342196
    One-Electron Energy =                -691.4976245584957724
    Two-Electron Energy =                 269.1556453980686001
    DFT Exchange-Correlation Energy =       0.0000000000000000
    Empirical Dispersion Energy =           0.0000000000000000
    PCM Polarization Energy =               0.0000000000000000
    EFP Energy =                            0.0000000000000000
    Total Energy =                       -232.2226474406929810
    Molecular point group: c1
  Basis Set: CC-PVTZ
  Basis Set:

  -Total Gradient:
     Atom            X                  Y                   Z
    ------   -----------------  -----------------  -----------------
       1       -0.000009296804    -0.000007363749     0.000001548427
       2       -0.000041496039    -0.000003198622    -0.000001930852
       3        0.000086296226    -0.000052239744    -0.000001582570
       4       -0.000004821460     0.000001016856     0.000003616544
       5       -0.000005347427     0.000001413744    -0.000002648879
       6        0.001308563070    -0.001847264315     0.001240697871
       7       -0.001339485153     0.002003809155    -0.000961586818
       8       -0.000879470989     0.001260562510    -0.000888694479
       9       -0.000001594779     0.000010303741    -0.000006669562
      10       -0.000019842989     0.000003596714     0.000002241503
      11        0.000910360438    -0.001372032960     0.000625082034
      12       -0.000003070213     0.000000938733     0.000002090076
      13       -0.000006048754    -0.000001676243     0.000000558056
      14       -0.000002512444     0.000000967831    -0.000009700360
      15        0.000007767317     0.000001166349    -0.000003020991

  **** Optimization is complete! (in 5 steps) ****
    Final optimized geometry and variables:
    Molecular point group: c1

    Geometry (in Angstrom), charge = 0, multiplicity = 1:

    H           -3.108769705205     0.400115025069    -0.242754003893
    C           -2.309857352245    -0.327348561331    -0.242425731341
    O           -1.105255658604     0.361887074435    -0.223376635936
    H           -2.401645738797    -0.947431370219    -1.131923216859
    H           -2.419224510581    -0.965767400491     0.632038387152
    C            0.025650149151    -0.458026657475    -0.215103059814
    C            1.285053670814     0.413748294109    -0.221912074576
    H            0.000655249232    -1.107065513081    -1.088450296024
    H            0.005409994362    -1.096461984016     0.666634973402
    C            2.270341855755     0.060467207427     0.888594206073
    H            1.788131095370     0.323512803129    -1.177991129298
    H            0.971583386783     1.444370102173    -0.122094504850
    H            2.600530499433    -0.970483015300     0.810739241290
    H            3.150560623330     0.691014687435     0.842625000121
    H            1.818156880062     0.189711625843     1.865971869626

  Mulliken Charges: (a.u.)
   Center  Symbol    Alpha    Beta     Spin     Total
       1     H     0.44704  0.44704  0.00000  0.10592
       2     C     3.02910  3.02910  0.00000 -0.05821
       3     O     4.17192  4.17192  0.00000 -0.34383
       4     H     0.47226  0.47226  0.00000  0.05547
       5     H     0.47341  0.47341  0.00000  0.05319
       6     C     2.96340  2.96340  0.00000  0.07321
       7     C     3.08661  3.08661  0.00000 -0.17322
       8     H     0.47360  0.47360  0.00000  0.05280
       9     H     0.47413  0.47413  0.00000  0.05174
      10     C     3.15244  3.15244  0.00000 -0.30488
      11     H     0.45307  0.45307  0.00000  0.09386
      12     H     0.44428  0.44428  0.00000  0.11145
      13     H     0.45667  0.45667  0.00000  0.08665
      14     H     0.44894  0.44894  0.00000  0.10212
      15     H     0.45312  0.45312  0.00000  0.09375

   Total alpha = 21.00000, Total beta = 21.00000, Total charge =  0.00000

*** Psi4 exiting successfully. Buy a developer a beer!
