  ==> Input File <==

--------------------------------------------------------------------------
set {
	reference rhf
	basis 6-31G*
}

set_num_threads( 4 )
memory 2 gb

molecule MOL {
0 1

H	 -1.748661	 -2.220942	 -0.005015
C	 -1.343207	 -1.225221	 -0.013879
N	 -0.055091	 -1.100174	 -0.261126
C	 -2.150779	 -0.125890	 0.222726
C	 0.449969	 0.122615	 -0.277109
H	 -3.200618	 -0.238980	 0.422496
N	 -1.660212	 1.097703	 0.209594
C	 -0.371804	 1.219904	 -0.038265
C	 1.928147	 0.267347	 -0.541394
H	 0.029131	 2.217482	 -0.051283
C	 2.431467	 -0.715072	 -1.604190
H	 2.117204	 1.283468	 -0.870968
H	 2.477252	 0.122714	 0.383668
H	 3.490445	 -0.566037	 -1.789533
H	 1.899233	 -0.571823	 -2.537295
H	 2.287296	 -1.742924	 -1.286313

	symmetry c1
}
set optking {
	frozen_dihedral = ("
		12 9 5 3
	")
}

ee = optimize('scf')
oeprop('DIPOLE', 'QUADRUPOLE', 'MULLIKEN_CHARGES')
f=open( 'psi4out.xyz', 'w' )
f.write( "16  " )
f.write( str(ee) + "\n" )
f.write( MOL.save_string_xyz() )
f.close()
--------------------------------------------------------------------------

    Molecular point group: c1
  Charge       = 0
  Multiplicity = 1
  Basis Set: 6-31G*
  Basis Set:
  @DF-RHF Final Energy:  -340.75738394709924
    Total Energy =                       -340.7573839470989583
    Molecular point group: c1
  Basis Set: 6-31G*
  Basis Set:
  Basis Set: 6-31G*
  Basis Set:
  @DF-RHF Final Energy:  -340.75759730017353
    Total Energy =                       -340.7575973001738134
  Basis Set: 6-31G*
  Basis Set:
  Basis Set: 6-31G*
  Basis Set:
  @DF-RHF Final Energy:  -340.75762962226321
    Total Energy =                       -340.7576296222632095
  Basis Set: 6-31G*
  Basis Set:
  Basis Set: 6-31G*
  Basis Set:
  @DF-RHF Final Energy:  -340.75763516774572
    Total Energy =                       -340.7576351677456614
  Basis Set: 6-31G*
  Basis Set:
  Basis Set: 6-31G*
  Basis Set:
  @DF-RHF Final Energy:  -340.75764316049504
    Total Energy =                       -340.7576431604951495
  Basis Set: 6-31G*
  Basis Set:
  Basis Set: 6-31G*
  Basis Set:
  @DF-RHF Final Energy:  -340.75764490716676
    Total Energy =                       -340.7576449071667639
  Basis Set: 6-31G*
  Basis Set:
  Charge       = 0
  Multiplicity = 1
  Basis Set: 6-31G*
  Basis Set:

    Orbital Energies (a.u.)
    -----------------------

    Doubly Occupied:

       1A    -15.586805     2A    -15.582043     3A    -11.282333
       4A    -11.276084     5A    -11.272220     6A    -11.271643
       7A    -11.234060     8A    -11.213329     9A     -1.313485
      10A     -1.222070    11A     -1.083455    12A     -1.013376
      13A     -0.908498    14A     -0.889827    15A     -0.825217
      16A     -0.717471    17A     -0.707154    18A     -0.658314
      19A     -0.622412    20A     -0.602511    21A     -0.570655
      22A     -0.559680    23A     -0.521130    24A     -0.503480
      25A     -0.500676    26A     -0.485097    27A     -0.429555
      28A     -0.394554    29A     -0.344892

  @DF-RHF Final Energy:  -340.75764531109604

   => Energetics <=

    Nuclear Repulsion Energy =            349.6935480008248192
    One-Electron Energy =               -1153.7183372654656068
    Two-Electron Energy =                 463.2671439535448599
    DFT Exchange-Correlation Energy =       0.0000000000000000
    Empirical Dispersion Energy =           0.0000000000000000
    PCM Polarization Energy =               0.0000000000000000
    EFP Energy =                            0.0000000000000000
    Total Energy =                       -340.7576453110958710
    Molecular point group: c1
  Basis Set: 6-31G*
  Basis Set:

  -Total Gradient:
     Atom            X                  Y                   Z
    ------   -----------------  -----------------  -----------------
       1       -0.000004951521     0.000000747690     0.000015694925
       2        0.000060929905    -0.000032962565    -0.000032756708
       3       -0.000252149513    -0.000006657825    -0.000755639954
       4        0.000001824206     0.000096723854    -0.000037199494
       5        0.000179858158    -0.000024865748     0.000880776203
       6        0.000005395393    -0.000006297079     0.000028631193
       7       -0.000074027101    -0.000056893584    -0.000005981197
       8        0.000073188149    -0.000060228492     0.000036181756
       9        0.000109180794     0.000298594634     0.000758801615
      10       -0.000010274205    -0.000002727887     0.000000051087
      11       -0.000000440957     0.000037284295     0.000001095568
      12       -0.000112344984    -0.000242896429    -0.000886552174
      13        0.000016523092     0.000010603533    -0.000001934945
      14        0.000002959355    -0.000013719702    -0.000000465206
      15        0.000004168220    -0.000004408080     0.000000773587
      16        0.000000161010     0.000007703382    -0.000001476255

  **** Optimization is complete! (in 7 steps) ****
    Final optimized geometry and variables:
    Molecular point group: c1

    Geometry (in Angstrom), charge = 0, multiplicity = 1:

    H           -1.726013586918    -2.146142560490     0.306806650915
    C           -1.312798379403    -1.153611830802     0.298907696641
    N           -0.024711622447    -1.038826742718     0.035066109821
    C           -2.105607754209    -0.050980833218     0.553972779042
    C            0.492778024584     0.175724438156     0.022305272123
    H           -3.153505411715    -0.154494638436     0.768329773386
    N           -1.602725143741     1.169879702276     0.539831451339
    C           -0.319145089264     1.280789141248     0.275367050859
    C            1.971405500439     0.333391354180    -0.252816202330
    H            0.090537829261     2.275022157945     0.258535634091
    C            2.513961487640    -0.643397202641    -1.296505333556
    H            2.160258525630     1.352865378085    -0.574953469750
    H            2.511488253746     0.200067379830     0.681883516132
    H            3.574687201386    -0.473633714572    -1.450565887204
    H            2.010331757707    -0.514590332129    -2.249091767806
    H            2.372854178847    -1.668382046782    -0.980701494443

  Mulliken Charges: (a.u.)
   Center  Symbol    Alpha    Beta     Spin     Total
       1     H     0.39392  0.39392  0.00000  0.21216
       2     C     2.98920  2.98920  0.00000  0.02160
       3     N     3.75713  3.75713  0.00000 -0.51426
       4     C     2.99875  2.99875  0.00000  0.00250
       5     C     2.87016  2.87016  0.00000  0.25969
       6     H     0.39421  0.39421  0.00000  0.21158
       7     N     3.72887  3.72887  0.00000 -0.45774
       8     C     2.99967  2.99967  0.00000  0.00066
       9     C     3.17154  3.17154  0.00000 -0.34307
      10     H     0.39507  0.39507  0.00000  0.20986
      11     C     3.23953  3.23953  0.00000 -0.47906
      12     H     0.41397  0.41397  0.00000  0.17207
      13     H     0.40628  0.40628  0.00000  0.18744
      14     H     0.41922  0.41922  0.00000  0.16157
      15     H     0.41811  0.41811  0.00000  0.16377
      16     H     0.40438  0.40438  0.00000  0.19125

   Total alpha = 29.00000, Total beta = 29.00000, Total charge = -0.00000
