  ==> Input File <==

--------------------------------------------------------------------------
set {
	reference rhf
	basis cc-pvtz
}

set_num_threads( 4 )
memory 2 gb

molecule MOL {
0 1

H	 3.721907	 -0.933076	 -0.066039
O	 2.824271	 -1.154299	 0.131461
C	 2.076458	 -0.067370	 -0.038225
C	 0.626018	 -0.337582	 0.258241
O	 2.538288	 0.965419	 -0.381593
C	 -0.267326	 0.883135	 0.076490
H	 0.325620	 -1.161483	 -0.378003
H	 0.574537	 -0.713685	 1.275261
C	 -1.726822	 0.642622	 0.463839
H	 -0.210803	 1.217591	 -0.953497
H	 0.129920	 1.693110	 0.675679
C	 -2.480891	 -0.340606	 -0.429852
H	 -2.243098	 1.597649	 0.438609
H	 -1.776542	 0.301208	 1.495542
C	 -1.626026	 -0.867918	 -1.577729
H	 -2.828752	 -1.175331	 0.172860
H	 -3.368103	 0.130728	 -0.840527
H	 -2.182876	 -1.563928	 -2.194310
H	 -0.747557	 -1.384360	 -1.205871
H	 -1.286773	 -0.058970	 -2.216216

	symmetry c1
}
set optking {
	frozen_dihedral = ("
		16 12 9 6
	")
}

ee = optimize('scf')
oeprop('DIPOLE', 'QUADRUPOLE', 'MULLIKEN_CHARGES')
f=open( 'psi4out.xyz', 'w' )
f.write( "20  " )
f.write( str(ee) + "\n" )
f.write( MOL.save_string_xyz() )
f.close()
--------------------------------------------------------------------------

    Molecular point group: c1
  Charge       = 0
  Multiplicity = 1
  Basis Set: CC-PVTZ
  Basis Set:
  @DF-RHF Final Energy:  -384.06364449084629
    Total Energy =                       -384.0636444908459453
    Molecular point group: c1
  Basis Set: CC-PVTZ
  Basis Set:
  Basis Set: CC-PVTZ
  Basis Set:
  @DF-RHF Final Energy:  -384.07896746261946
    Total Energy =                       -384.0789674626188344
  Basis Set: CC-PVTZ
  Basis Set:
  Basis Set: CC-PVTZ
  Basis Set:
  @DF-RHF Final Energy:  -384.08223274021606
    Total Energy =                       -384.0822327402164547
  Basis Set: CC-PVTZ
  Basis Set:
  Basis Set: CC-PVTZ
  Basis Set:
  @DF-RHF Final Energy:  -384.08105502274503
    Total Energy =                       -384.0810550227449767
  Basis Set: CC-PVTZ
  Basis Set:
  @DF-RHF Final Energy:  -384.08317437049993
    Total Energy =                       -384.0831743705002737
  Basis Set: CC-PVTZ
  Basis Set:
  @DF-RHF Final Energy:  -384.08356455286088
    Total Energy =                       -384.0835645528610485
  Basis Set: CC-PVTZ
  Basis Set:
  Basis Set: CC-PVTZ
  Basis Set:
  @DF-RHF Final Energy:  -384.08360805769951
    Total Energy =                       -384.0836080576995073
  Basis Set: CC-PVTZ
  Basis Set:
  Basis Set: CC-PVTZ
  Basis Set:
  @DF-RHF Final Energy:  -384.08362861996477
    Total Energy =                       -384.0836286199644292
  Basis Set: CC-PVTZ
  Basis Set:
  Charge       = 0
  Multiplicity = 1
  Basis Set: CC-PVTZ
  Basis Set:

    Orbital Energies (a.u.)
    -----------------------

    Doubly Occupied:

       1A    -20.603629     2A    -20.540261     3A    -11.373026
       4A    -11.237941     5A    -11.220452     6A    -11.219088
       7A    -11.218558     8A    -11.211476     9A     -1.477154
      10A     -1.368650    11A     -1.093734    12A     -1.037342
      13A     -0.962606    14A     -0.882963    15A     -0.812983
      16A     -0.768727    17A     -0.703114    18A     -0.691050
      19A     -0.669346    20A     -0.630971    21A     -0.622049
      22A     -0.588213    23A     -0.569310    24A     -0.561640
      25A     -0.537273    26A     -0.510976    27A     -0.510079
      28A     -0.483976    29A     -0.468991    30A     -0.459348
      31A     -0.454710    32A     -0.442891

  @DF-RHF Final Energy:  -384.08362937278940

   => Energetics <=

    Nuclear Repulsion Energy =            383.6582078409030032
    One-Electron Energy =               -1283.6186254353988261
    Two-Electron Energy =                 515.8767882217065335
    DFT Exchange-Correlation Energy =       0.0000000000000000
    Empirical Dispersion Energy =           0.0000000000000000
    PCM Polarization Energy =               0.0000000000000000
    EFP Energy =                            0.0000000000000000
    Total Energy =                       -384.0836293727892325
    Molecular point group: c1
  Basis Set: CC-PVTZ
  Basis Set:

  -Total Gradient:
     Atom            X                  Y                   Z
    ------   -----------------  -----------------  -----------------
       1        0.000025009900    -0.000010722687     0.000003697406
       2        0.000016327557     0.000031557280    -0.000019793402
       3       -0.000044933167    -0.000015635553     0.000001639650
       4       -0.000008852694     0.000009221712    -0.000040900782
       5        0.000026414790    -0.000015769885     0.000018405318
       6       -0.000906278166     0.002455135748    -0.001658286805
       7       -0.000038193451    -0.000028797141    -0.000002439314
       8       -0.000003736240     0.000004700119     0.000007307351
       9        0.000545389235    -0.003125560424     0.002637537173
      10        0.000005724558    -0.000004914374     0.000034631305
      11       -0.000002070522     0.000008137584    -0.000000121855
      12        0.003670025079    -0.001319694168    -0.002105077069
      13       -0.000004162015    -0.000005808022     0.000005166109
      14       -0.000006384117    -0.000001474096     0.000002075526
      15       -0.000000803243    -0.000007991904     0.000022203846
      16       -0.003315315327     0.002022838645     0.001088043951
      17       -0.000007240405     0.000006596000     0.000020482770
      18        0.000004638002    -0.000003083826    -0.000011493527
      19        0.000045435834     0.000003302413    -0.000002703668
      20       -0.000000995618    -0.000002037421    -0.000000373982

  **** Optimization is complete! (in 9 steps) ****
    Final optimized geometry and variables:
    Molecular point group: c1

    Geometry (in Angstrom), charge = 0, multiplicity = 1:

    H            3.532020357030    -0.772973879521     0.303940838547
    O            2.651053283467    -0.988109367857     0.571098247624
    C            1.849384779066     0.014986373962     0.223669490093
    C            0.421523774369    -0.249265609393     0.618534495269
    O            2.253422969523     0.980444307775    -0.326646658379
    C           -0.534688770762     0.877079153505     0.242077761840
    H            0.139495170168    -1.196049519557     0.174637182758
    H            0.415930879683    -0.416684761925     1.690913871858
    C           -1.991520676978     0.598913872507     0.630823507406
    H           -0.448764824607     1.091974807464    -0.813864612969
    H           -0.209719130816     1.775798308979     0.752054827618
    C           -2.843717830682    -0.320952147678    -0.288831181300
    H           -2.488888350014     1.560406466726     0.683567205110
    H           -2.013621167706     0.207996331016     1.642961130028
    C           -2.237540281628    -0.788352345019    -1.610356902767
    H           -3.181093197185    -1.181086064876     0.279454747039
    H           -3.755974492883     0.215314974550    -0.528284778425
    H           -2.960762311815    -1.389940754821    -2.148815035975
    H           -1.351727212383    -1.395814407016    -1.475723394295
    H           -1.972999092934     0.046133738840    -2.248623382782

  Mulliken Charges: (a.u.)
   Center  Symbol    Alpha    Beta     Spin     Total
       1     H     0.38243  0.38243  0.00000  0.23515
       2     O     4.16079  4.16079  0.00000 -0.32159
       3     C     2.80315  2.80315  0.00000  0.39370
       4     C     3.11306  3.11306  0.00000 -0.22613
       5     O     4.19124  4.19124  0.00000 -0.38248
       6     C     3.09849  3.09849  0.00000 -0.19697
       7     H     0.43714  0.43714  0.00000  0.12572
       8     H     0.43531  0.43531  0.00000  0.12937
       9     C     3.10941  3.10941  0.00000 -0.21882
      10     H     0.44237  0.44237  0.00000  0.11527
      11     H     0.43684  0.43684  0.00000  0.12632
      12     C     3.09135  3.09135  0.00000 -0.18270
      13     H     0.44252  0.44252  0.00000  0.11495
      14     H     0.45137  0.45137  0.00000  0.09726
      15     C     3.15940  3.15940  0.00000 -0.31880
      16     H     0.44938  0.44938  0.00000  0.10124
      17     H     0.44953  0.44953  0.00000  0.10094
      18     H     0.44202  0.44202  0.00000  0.11596
      19     H     0.45408  0.45408  0.00000  0.09185
      20     H     0.45013  0.45013  0.00000  0.09975

   Total alpha = 32.00000, Total beta = 32.00000, Total charge = -0.00000
