  ==> Input File <==

--------------------------------------------------------------------------
set {
	reference rhf
	basis 6-31G*
}

set_num_threads( 4 )
memory 2 gb

molecule MOL {
0 1

H	 -1.070890	 -1.366565	 0.180696
O	 -1.422729	 -0.573567	 -0.196946
C	 -0.731407	 0.539437	 0.309156
C	 0.680193	 0.672443	 -0.251532
H	 -1.319765	 1.404033	 0.030086
H	 -0.700012	 0.506517	 1.397677
C	 1.708731	 -0.204920	 0.462644
H	 0.657585	 0.422763	 -1.308317
H	 0.979390	 1.715750	 -0.177152
H	 1.479376	 -1.259902	 0.346012
H	 2.703165	 -0.047089	 0.058717
H	 1.746857	 0.016969	 1.526399

	symmetry c1
}
set optking {
	frozen_dihedral = ("
		8 4 3 2
	")
}

ee = optimize('scf')
oeprop('DIPOLE', 'QUADRUPOLE', 'MULLIKEN_CHARGES')
f=open( 'psi4out.xyz', 'w' )
f.write( "12  " )
f.write( str(ee) + "\n" )
f.write( MOL.save_string_xyz() )
f.close()
--------------------------------------------------------------------------

    Molecular point group: c1
  Charge       = 0
  Multiplicity = 1
  Basis Set: 6-31G*
  Basis Set:
  @DF-RHF Final Energy:  -193.10833671960978
    Total Energy =                       -193.1083367196097242
    Molecular point group: c1
  Basis Set: 6-31G*
  Basis Set:
  Basis Set: 6-31G*
  Basis Set:
  @DF-RHF Final Energy:  -193.10851853901451
    Total Energy =                       -193.1085185390145966
  Basis Set: 6-31G*
  Basis Set:
  Basis Set: 6-31G*
  Basis Set:
  @DF-RHF Final Energy:  -193.10856832813909
    Total Energy =                       -193.1085683281390288
  Basis Set: 6-31G*
  Basis Set:
  Basis Set: 6-31G*
  Basis Set:
  @DF-RHF Final Energy:  -193.10856955243531
    Total Energy =                       -193.1085695524353412
  Basis Set: 6-31G*
  Basis Set:
  Charge       = 0
  Multiplicity = 1
  Basis Set: 6-31G*
  Basis Set:

    Orbital Energies (a.u.)
    -----------------------

    Doubly Occupied:

       1A    -20.553287     2A    -11.267747     3A    -11.218623
       4A    -11.217965     5A     -1.359689     6A     -1.051176
       7A     -0.925342     8A     -0.811855     9A     -0.695362
      10A     -0.638789    11A     -0.593654    12A     -0.588933
      13A     -0.546284    14A     -0.509189    15A     -0.490951
      16A     -0.467998    17A     -0.430116

  @DF-RHF Final Energy:  -193.10857001162327

   => Energetics <=

    Nuclear Repulsion Energy =            132.5011545033494826
    One-Electron Energy =                -524.4855331426975908
    Two-Electron Energy =                 198.8758086277248935
    DFT Exchange-Correlation Energy =       0.0000000000000000
    Empirical Dispersion Energy =           0.0000000000000000
    PCM Polarization Energy =               0.0000000000000000
    EFP Energy =                            0.0000000000000000
    Total Energy =                       -193.1085700116232147
    Molecular point group: c1
  Basis Set: 6-31G*
  Basis Set:

  -Total Gradient:
     Atom            X                  Y                   Z
    ------   -----------------  -----------------  -----------------
       1        0.000001384828     0.000036550163     0.000010319785
       2       -0.001168572234     0.001771883110    -0.002453445286
       3        0.001738015630    -0.003275947233     0.003524960583
       4       -0.001328920664     0.005318561581    -0.002011719943
       5       -0.000007006117    -0.000014710771    -0.000000598560
       6       -0.000001126923     0.000002970607    -0.000003391853
       7       -0.000007424014    -0.000001200898     0.000006013017
       8        0.000772162690    -0.003835234130     0.000938011064
       9        0.000000467454    -0.000004968127    -0.000009059852
      10        0.000007344007    -0.000005819912    -0.000004543356
      11       -0.000005474488     0.000002276099     0.000002018230
      12       -0.000000850166     0.000005639513     0.000001436172

  **** Optimization is complete! (in 5 steps) ****
    Final optimized geometry and variables:
    Molecular point group: c1

    Geometry (in Angstrom), charge = 0, multiplicity = 1:

    H           -1.050096236166    -1.446163534195     0.072906787514
    O           -1.433798596322    -0.657747707090    -0.284041876437
    C           -0.766071950205     0.469326355424     0.224314308728
    C            0.650102987086     0.619936507545    -0.328440185952
    H           -1.369343151815     1.315452959757    -0.078526251043
    H           -0.753424851346     0.454917830806     1.313100471054
    C            1.672435835733    -0.280020724246     0.371106220630
    H            0.621890667334     0.361726698119    -1.382494680231
    H            0.962741608116     1.657111366827    -0.244004462168
    H            1.403973925085    -1.329949432103     0.283279209397
    H            2.659651122067    -0.165188662521    -0.064319150027
    H            1.747446718300    -0.044481308820     1.429119567814

  Mulliken Charges: (a.u.)
   Center  Symbol    Alpha    Beta     Spin     Total
       1     H     0.28167  0.28167  0.00000  0.43666
       2     O     4.37003  4.37003  0.00000 -0.74007
       3     C     2.99611  2.99611  0.00000  0.00777
       4     C     3.16643  3.16643  0.00000 -0.33286
       5     H     0.41432  0.41432  0.00000  0.17135
       6     H     0.43136  0.43136  0.00000  0.13729
       7     C     3.24552  3.24552  0.00000 -0.49103
       8     H     0.41128  0.41128  0.00000  0.17744
       9     H     0.42098  0.42098  0.00000  0.15804
      10     H     0.42713  0.42713  0.00000  0.14573
      11     H     0.41463  0.41463  0.00000  0.17075
      12     H     0.42054  0.42054  0.00000  0.15892

   Total alpha = 17.00000, Total beta = 17.00000, Total charge = -0.00000
