  ==> Input File <==

--------------------------------------------------------------------------
set {
	reference rhf
	basis cc-pvtz
}

set_num_threads( 4 )
memory 2 gb

molecule MOL {
0 1

H	 -2.266619	 1.169943	 0.000098
O	 -1.438073	 1.611259	 0.000041
C	 -0.408657	 0.734701	 0.000005
C	 -0.732806	 -0.609299	 0.000056
C	 0.917855	 1.150006	 -0.000117
H	 -1.767953	 -0.889302	 0.000135
C	 0.266854	 -1.558851	 0.000005
C	 1.901462	 0.174277	 -0.000166
C	 1.269939	 2.617057	 -0.000187
H	 0.007661	 -2.600388	 0.000051
C	 1.592860	 -1.171374	 -0.000098
H	 2.931566	 0.478996	 -0.000251
H	 0.880432	 3.125121	 0.877580
H	 2.341929	 2.752255	 -0.000286
H	 0.880275	 3.125070	 -0.877917
H	 2.375803	 -1.904429	 -0.000133

	symmetry c1
}
set optking {
	frozen_dihedral = ("
		4 3 2 1
	")
}

ee = optimize('scf')
oeprop('DIPOLE', 'QUADRUPOLE', 'MULLIKEN_CHARGES')
f=open( 'psi4out.xyz', 'w' )
f.write( "16  " )
f.write( str(ee) + "\n" )
f.write( MOL.save_string_xyz() )
f.close()
--------------------------------------------------------------------------

    Molecular point group: c1
  Charge       = 0
  Multiplicity = 1
  Basis Set: CC-PVTZ
  Basis Set:
  @DF-RHF Final Energy:  -344.71795806510937
    Total Energy =                       -344.7179580651090305
    Molecular point group: c1
  Basis Set: CC-PVTZ
  Basis Set:
  Basis Set: CC-PVTZ
  Basis Set:
  @DF-RHF Final Energy:  -344.72015654584987
    Total Energy =                       -344.7201565458498749
  Basis Set: CC-PVTZ
  Basis Set:
  Basis Set: CC-PVTZ
  Basis Set:
  @DF-RHF Final Energy:  -344.72038615894292
    Total Energy =                       -344.7203861589430858
  Basis Set: CC-PVTZ
  Basis Set:
  Basis Set: CC-PVTZ
  Basis Set:
  @DF-RHF Final Energy:  -344.72040706384934
    Total Energy =                       -344.7204070638488247
  Basis Set: CC-PVTZ
  Basis Set:
  Charge       = 0
  Multiplicity = 1
  Basis Set: CC-PVTZ
  Basis Set:

    Orbital Energies (a.u.)
    -----------------------

    Doubly Occupied:

       1A    -20.583512     2A    -11.291733     3A    -11.228964
       4A    -11.228656     5A    -11.225934     6A    -11.223614
       7A    -11.216585     8A    -11.212827     9A     -1.413795
      10A     -1.152841    11A     -1.047531    12A     -1.006234
      13A     -0.931980    14A     -0.849175    15A     -0.802442
      16A     -0.735972    17A     -0.675990    18A     -0.653646
      19A     -0.604127    20A     -0.603892    21A     -0.581364
      22A     -0.560817    23A     -0.552922    24A     -0.541917
      25A     -0.502351    26A     -0.483412    27A     -0.478499
      28A     -0.333847    29A     -0.308244

  @DF-RHF Final Energy:  -344.72041216251432

   => Energetics <=

    Nuclear Repulsion Energy =            351.0433976435951990
    One-Electron Energy =               -1163.4619771992202004
    Two-Electron Energy =                 467.6981673931108503
    DFT Exchange-Correlation Energy =       0.0000000000000000
    Empirical Dispersion Energy =           0.0000000000000000
    PCM Polarization Energy =               0.0000000000000000
    EFP Energy =                            0.0000000000000000
    Total Energy =                       -344.7204121625141511
    Molecular point group: c1
  Basis Set: CC-PVTZ
  Basis Set:

  -Total Gradient:
     Atom            X                  Y                   Z
    ------   -----------------  -----------------  -----------------
       1        0.000009218791     0.000039127184    -0.000000074185
       2        0.000069955395    -0.000139008287    -0.000000401902
       3       -0.000067472126     0.000144921725     0.000001143658
       4        0.000000136713    -0.000022783892    -0.000000138866
       5       -0.000052687624     0.000053204840    -0.000000321155
       6        0.000025841282    -0.000005821237    -0.000000042402
       7       -0.000075616353    -0.000020044608    -0.000000173006
       8        0.000012547338    -0.000121918742    -0.000000249277
       9        0.000066281717     0.000021696574     0.000000141739
      10        0.000032330098    -0.000024556035    -0.000000024307
      11        0.000073719290     0.000124669700     0.000000226401
      12       -0.000000416235     0.000020875371     0.000000007779
      13       -0.000017106653    -0.000005725422    -0.000000710891
      14       -0.000022931246    -0.000022088920    -0.000000070713
      15       -0.000017047967    -0.000005740205     0.000000701261
      16       -0.000036752424    -0.000036808045    -0.000000014133

  **** Optimization is complete! (in 5 steps) ****
    Final optimized geometry and variables:
    Molecular point group: c1

    Geometry (in Angstrom), charge = 0, multiplicity = 1:

    H           -2.602134467842     0.857946224197     0.000157449969
    O           -1.743486218711     1.239890871697     0.000090610334
    C           -0.790329919107     0.280351495666     0.000053893127
    C           -1.108634653692    -1.062107564657     0.000114232995
    C            0.536378915555     0.703698022324    -0.000059216473
    H           -2.140061362276    -1.366174542945     0.000197691477
    C           -0.103039487110    -2.012979266011     0.000065818389
    C            1.518750122101    -0.266555971766    -0.000105341131
    C            0.863650802974     2.173693264274    -0.000127215451
    H           -0.359422718348    -3.055155873827     0.000113301964
    C            1.215587305632    -1.618919665630    -0.000042855331
    H            2.547877012697     0.041234007540    -0.000192077983
    H            0.448761730855     2.666431584414     0.871022699194
    H            1.934599047903     2.325040563749    -0.000215410587
    H            0.448626415892     2.666380660211    -0.871241454662
    H            2.002463888208    -2.347805377381    -0.000081425459

  Mulliken Charges: (a.u.)
   Center  Symbol    Alpha    Beta     Spin     Total
       1     H     0.39056  0.39056  0.00000  0.21889
       2     O     4.17028  4.17028  0.00000 -0.34056
       3     C     2.86225  2.86225  0.00000  0.27550
       4     C     3.13352  3.13352  0.00000 -0.26704
       5     C     2.99675  2.99675  0.00000  0.00650
       6     H     0.43743  0.43743  0.00000  0.12515
       7     C     3.07184  3.07184  0.00000 -0.14367
       8     C     3.08182  3.08182  0.00000 -0.16364
       9     C     3.14437  3.14437  0.00000 -0.28874
      10     H     0.42263  0.42263  0.00000  0.15475
      11     C     3.09137  3.09137  0.00000 -0.18273
      12     H     0.42522  0.42522  0.00000  0.14956
      13     H     0.44644  0.44644  0.00000  0.10712
      14     H     0.45415  0.45415  0.00000  0.09170
      15     H     0.44644  0.44644  0.00000  0.10712
      16     H     0.42496  0.42496  0.00000  0.15008

   Total alpha = 29.00000, Total beta = 29.00000, Total charge =  0.00000
