                              Psi4 1.0.54 Driver

  ==> Input File <==

--------------------------------------------------------------------------
set {
	reference rhf
	basis cc-pvtz
}

set_num_threads( 4 )
memory 2 gb

molecule MOL {
0 1

H	 0.826484	 0.640780	 2.358022
C	 1.423275	 0.431905	 1.460322
C	 0.692262	 0.592428	 0.156232
O	 2.554166	 0.103715	 1.565251
C	 -0.554654	 -0.292621	 0.086567
H	 1.378171	 0.371349	 -0.650917
H	 0.398521	 1.636873	 0.074202
C	 -1.846385	 0.513195	 -0.016346
H	 -0.473986	 -0.956115	 -0.769708
H	 -0.597929	 -0.929215	 0.966651
C	 -3.089953	 -0.365049	 -0.098564
H	 -1.798267	 1.154820	 -0.891143
H	 -1.925398	 1.173265	 0.842889
H	 -3.055079	 -1.012299	 -0.968245
H	 -3.988403	 0.236438	 -0.170014
H	 -3.183055	 -0.995885	 0.779079

	symmetry c1
}
set optking {
	frozen_dihedral = ("
		6 3 5 9
	")
}

ee,wfn = optimize('scf', return_wfn=True)
oeprop( wfn, 'DIPOLE', 'QUADRUPOLE', 'MULLIKEN_CHARGES')
f=open( 'psi4out.xyz', 'w' )
f.write( "16  " )
f.write( str(ee) + "\n" )
f.write( MOL.save_string_xyz() )
f.close()
--------------------------------------------------------------------------

    Molecular point group: c1
  Charge       = 0
  Multiplicity = 1
  Basis Set: CC-PVTZ
  Basis Set:
  @DF-RHF Final Energy:  -270.11404573197103
    Total Energy =                       -270.1140457319708617
    Molecular point group: c1
  Basis Set: CC-PVTZ
  Basis Set:
  Basis Set: CC-PVTZ
  Basis Set:
  @DF-RHF Final Energy:  -270.11404477725432
    Total Energy =                       -270.1140447772540938
  Basis Set: CC-PVTZ
  Basis Set:
  Basis Set: CC-PVTZ
  Basis Set:
  @DF-RHF Final Energy:  -270.11101364679405
    Total Energy =                       -270.1110136467940492
  Basis Set: CC-PVTZ
  Basis Set:
  Basis Set: CC-PVTZ
  Basis Set:
  @DF-RHF Final Energy:  -270.11438843760152
    Total Energy =                       -270.1143884376015194
  Basis Set: CC-PVTZ
  Basis Set:
  Basis Set: CC-PVTZ
  Basis Set:
  @DF-RHF Final Energy:  -270.11443466052327
    Total Energy =                       -270.1144346605232158
  Basis Set: CC-PVTZ
  Basis Set:
  Basis Set: CC-PVTZ
  Basis Set:
  @DF-RHF Final Energy:  -270.11444087480862
    Total Energy =                       -270.1144408748083379
  Basis Set: CC-PVTZ
  Basis Set:
  Basis Set: CC-PVTZ
  Basis Set:
  @DF-RHF Final Energy:  -270.11444692997117
    Total Energy =                       -270.1144469299709954
  Basis Set: CC-PVTZ
  Basis Set:
  Charge       = 0
  Multiplicity = 1
  Basis Set: CC-PVTZ
  Basis Set:

    Orbital Energies (a.u.)
    -----------------------

    Doubly Occupied:

       1A    -20.551519     2A    -11.321726     3A    -11.234592
       4A    -11.233924     5A    -11.228848     6A    -11.217467
       7A     -1.406916     8A     -1.096638     9A     -1.019566
      10A     -0.907523    11A     -0.817900    12A     -0.794011
      13A     -0.672836    14A     -0.657680    15A     -0.620808
      16A     -0.609418    17A     -0.583415    18A     -0.557321
      19A     -0.536315    20A     -0.508931    21A     -0.485120
      22A     -0.484132    23A     -0.476152    24A     -0.412281

  @DF-RHF Final Energy:  -270.11444771363267

   => Energetics <=

    Nuclear Repulsion Energy =            229.7402881412309910
    One-Electron Energy =                -820.8393946692224290
    Two-Electron Energy =                 320.9846588143590793
    DFT Exchange-Correlation Energy =       0.0000000000000000
    Empirical Dispersion Energy =           0.0000000000000000
    PCM Polarization Energy =               0.0000000000000000
    EFP Energy =                            0.0000000000000000
    Total Energy =                       -270.1144477136323871
    Molecular point group: c1
  Basis Set: CC-PVTZ
  Basis Set:

  -Total Gradient:
     Atom            X                  Y                   Z
    ------   -----------------  -----------------  -----------------
       1       -0.000007388903    -0.000010822841    -0.000001330700
       2        0.000082728830     0.000020851877     0.000035725123
       3        0.000229999604    -0.000270597159     0.000229034585
       4       -0.000102559052     0.000005933915    -0.000026078292
       5       -0.000241114250     0.000255999784    -0.000241545215
       6       -0.000130275923     0.000196255563    -0.000190725323
       7        0.000012668921    -0.000009885675     0.000018844161
       8        0.000029148895     0.000002614062    -0.000001657105
       9        0.000134589079    -0.000185841058     0.000174444123
      10       -0.000005775769     0.000000772700    -0.000000975245
      11       -0.000005430503    -0.000007775537     0.000004604083
      12        0.000000957512     0.000000716885     0.000001180391
      13       -0.000004016858    -0.000001549535    -0.000002228302
      14        0.000001816832     0.000004119309     0.000000328880
      15        0.000004385652     0.000000848121     0.000000930538
      16        0.000000265939    -0.000001640411    -0.000000551703

  **** Optimization is complete! (in 8 steps) ****
    Final optimized geometry and variables:
    Molecular point group: c1

    Geometry (in Angstrom), charge = 0, multiplicity = 1:

    H            0.923677576029     0.373103903256     1.825985697259
    C            1.561619701195     0.282857322578     0.936349088219
    C            0.840752975040     0.407004054573    -0.378135415526
    O            2.723480507398     0.103838281992     1.056927365195
    C           -0.420791474146    -0.479990124641    -0.449412129926
    H            1.542802708917     0.183353292068    -1.168760878762
    H            0.562580984967     1.453094119097    -0.480872012272
    C           -1.724325588719     0.306662346785    -0.562849017657
    H           -0.331637286452    -1.151970850719    -1.294797516068
    H           -0.472496561257    -1.119765768748     0.427872223477
    C           -2.956282028171    -0.587773614962    -0.634809169709
    H           -1.682010399176     0.938288824899    -1.445716182563
    H           -1.813458763027     0.978007779015     0.287238117741
    H           -2.910803419123    -1.247094894092    -1.494997935977
    H           -3.862406124093     0.000718281856    -0.716682257012
    H           -3.043015616520    -1.207480913461     0.251355993587

  Mulliken Charges: (a.u.)
   Center  Symbol    Alpha    Beta     Spin     Total
       1     H     0.46661  0.46661  0.00000  0.06678
       2     C     2.90302  2.90302  0.00000  0.19395
       3     C     3.08702  3.08702  0.00000 -0.17404
       4     O     4.16425  4.16425  0.00000 -0.32851
       5     C     3.10639  3.10639  0.00000 -0.21279
       6     H     0.43742  0.43742  0.00000  0.12516
       7     H     0.44882  0.44882  0.00000  0.10236
       8     C     3.08454  3.08454  0.00000 -0.16908
       9     H     0.44200  0.44200  0.00000  0.11599
      10     H     0.45149  0.45149  0.00000  0.09702
      11     C     3.14964  3.14964  0.00000 -0.29927
      12     H     0.45106  0.45106  0.00000  0.09789
      13     H     0.45372  0.45372  0.00000  0.09256
      14     H     0.45350  0.45350  0.00000  0.09301
      15     H     0.44665  0.44665  0.00000  0.10671
      16     H     0.45387  0.45387  0.00000  0.09226

   Total alpha = 24.00000, Total beta = 24.00000, Total charge = -0.00000

*** Psi4 exiting successfully. Buy a developer a beer!
