  ==> Input File <==

--------------------------------------------------------------------------
set {
	reference rhf
	basis 6-31G*
}

set_num_threads( 1 )
memory 2 gb

molecule MOL {
0 1

H	 -1.836216	 1.387520	 -0.000064
C	 -1.301823	 0.443321	 -0.000031
O	 -0.003969	 0.658512	 0.000451
O	 -1.829879	 -0.616434	 -0.000857
C	 0.802242	 -0.191632	 -0.814697
C	 2.240230	 0.249390	 -0.647336
H	 0.472427	 -0.105630	 -1.840925
H	 0.656886	 -1.216225	 -0.501050
H	 2.365365	 1.280130	 -0.958706
H	 2.889253	 -0.373925	 -1.253538
H	 2.550873	 0.164219	 0.387620

	symmetry c1
}
set optking {
	frozen_dihedral = ("
		7 5 3 2
	")
}

ee = energy('scf')
oeprop('DIPOLE', 'QUADRUPOLE', 'MULLIKEN_CHARGES')
f=open( 'psi4out.xyz', 'w' )
f.write( "11  " )
f.write( str(ee) + "\n" )
f.write( MOL.save_string_xyz() )
f.close()
--------------------------------------------------------------------------

    Molecular point group: c1

    Geometry (in Angstrom), charge = 0, multiplicity = 1:

       Center              X                  Y                   Z               Mass
    ------------   -----------------  -----------------  -----------------  -----------------
           H         -1.818787912009     1.281748773721     0.293716055993     1.007825032070
           C         -1.284394912009     0.337549773721     0.293749055993    12.000000000000
           O          0.013459087991     0.552740773721     0.294231055993    15.994914619560
           O         -1.812450912009    -0.722205226279     0.292923055993    15.994914619560
           C          0.819670087991    -0.297403226279    -0.520916944007    12.000000000000
           C          2.257658087991     0.143618773721    -0.353555944007    12.000000000000
           H          0.489855087991    -0.211401226279    -1.547144944007     1.007825032070
           H          0.674314087991    -1.321996226279    -0.207269944007     1.007825032070
           H          2.382793087991     1.174358773721    -0.664925944007     1.007825032070
           H          2.906681087991    -0.479696226279    -0.959757944007     1.007825032070
           H          2.568301087991     0.058447773721     0.681400055993     1.007825032070

  Charge       = 0
  Multiplicity = 1
  Basis Set: 6-31G*
  Basis Set:

    Orbital Energies (a.u.)
    -----------------------

    Doubly Occupied:

       1A    -20.604316     2A    -20.560942     3A    -11.378713
       4A    -11.295523     5A    -11.227858     6A     -1.473871
       7A     -1.374872     8A     -1.052747     9A     -0.899777
      10A     -0.812023    11A     -0.740243    12A     -0.686906
      13A     -0.670552    14A     -0.612414    15A     -0.563999
      16A     -0.551706    17A     -0.526224    18A     -0.510463
      19A     -0.463330    20A     -0.449446

  @DF-RHF Final Energy:  -266.82009019260784

   => Energetics <=

    Nuclear Repulsion Energy =            178.7683155881703669
    One-Electron Energy =                -718.2649190162687773
    Two-Electron Energy =                 272.6765132354909156
    DFT Exchange-Correlation Energy =       0.0000000000000000
    Empirical Dispersion Energy =           0.0000000000000000
    PCM Polarization Energy =               0.0000000000000000
    EFP Energy =                            0.0000000000000000
    Total Energy =                       -266.8200901926074948

  Mulliken Charges: (a.u.)
   Center  Symbol    Alpha    Beta     Spin     Total
       1     H     0.41649  0.41649  0.00000  0.16702
       2     C     2.72662  2.72662  0.00000  0.54677
       3     O     4.29475  4.29475  0.00000 -0.58950
       4     O     4.25383  4.25383  0.00000 -0.50766
       5     C     3.00715  3.00715  0.00000 -0.01429
       6     C     3.24912  3.24912  0.00000 -0.49825
       7     H     0.41505  0.41505  0.00000  0.16990
       8     H     0.40282  0.40282  0.00000  0.19436
       9     H     0.41074  0.41074  0.00000  0.17851
      10     H     0.41535  0.41535  0.00000  0.16929
      11     H     0.40807  0.40807  0.00000  0.18386

   Total alpha = 20.00000, Total beta = 20.00000, Total charge =  0.00000
