                              Psi4 1.0.54 Driver

  ==> Input File <==

--------------------------------------------------------------------------
set {
	reference rhf
	basis cc-pvtz
}

set_num_threads( 4 )
memory 2 gb

molecule MOL {
0 1

O	 -2.071633	 -1.227563	 -0.223463
C	 -1.652164	 -0.152425	 0.058082
C	 -0.327811	 0.006324	 0.778296
C	 -2.402515	 1.108629	 -0.298924
C	 -0.510597	 0.733940	 2.115677
H	 0.126778	 -0.964270	 0.946884
H	 0.326771	 0.582688	 0.137074
C	 0.804481	 0.929834	 2.864291
H	 -1.200823	 0.178338	 2.745429
H	 -0.970623	 1.697752	 1.926449
C	 0.629291	 1.664217	 4.189113
H	 1.263634	 -0.038057	 3.045644
H	 1.494649	 1.482325	 2.233449
H	 -0.029179	 1.117832	 4.856133
H	 0.201047	 2.648929	 4.036411
H	 1.579674	 1.791279	 4.694117
H	 -3.240910	 0.874416	 -0.936711
H	 -1.747554	 1.818823	 -0.790984
H	 -2.760419	 1.579708	 0.610998

	symmetry c1
}
set optking {
	frozen_dihedral = ("
		5 3 2 4
	")
}

ee,wfn = optimize('scf', return_wfn=True)
oeprop( wfn, 'DIPOLE', 'QUADRUPOLE', 'MULLIKEN_CHARGES')
f=open( 'psi4out.xyz', 'w' )
f.write( "19  " )
f.write( str(ee) + "\n" )
f.write( MOL.save_string_xyz() )
f.close()
--------------------------------------------------------------------------

    Molecular point group: c1
  Charge       = 0
  Multiplicity = 1
  Basis Set: CC-PVTZ
  Basis Set:
  @DF-RHF Final Energy:  -309.17573910596963
    Total Energy =                       -309.1757391059695124
    Molecular point group: c1
  Basis Set: CC-PVTZ
  Basis Set:
  Basis Set: CC-PVTZ
  Basis Set:
  @DF-RHF Final Energy:  -309.15281024980396
    Total Energy =                       -309.1528102498038493
  Basis Set: CC-PVTZ
  Basis Set:
  Basis Set: CC-PVTZ
  Basis Set:
  @DF-RHF Final Energy:  -309.17629694146615
    Total Energy =                       -309.1762969414662621
  Basis Set: CC-PVTZ
  Basis Set:
  Basis Set: CC-PVTZ
  Basis Set:
  @DF-RHF Final Energy:  -309.17589560794465
    Total Energy =                       -309.1758956079447671
  Basis Set: CC-PVTZ
  Basis Set:
  @DF-RHF Final Energy:  -309.17642179974069
    Total Energy =                       -309.1764217997405240
  @DF-RHF Final Energy:  -309.17682527208922
    Total Energy =                       -309.1768252720889905
  @DF-RHF Final Energy:  -309.17682720595064
    Total Energy =                       -309.1768272059509854
  Basis Set: CC-PVTZ
  Basis Set:
  @DF-RHF Final Energy:  -309.17683598685272
    Total Energy =                       -309.1768359868526090
  Basis Set: CC-PVTZ
  Basis Set:
  Basis Set: CC-PVTZ
  Basis Set:
  @DF-RHF Final Energy:  -309.17683924047748
    Total Energy =                       -309.1768392404774772
  Basis Set: CC-PVTZ
  Basis Set:
  Basis Set: CC-PVTZ
  Basis Set:
  @DF-RHF Final Energy:  -309.17684069816613
    Total Energy =                       -309.1768406981661315
  Basis Set: CC-PVTZ
  Basis Set:
  Charge       = 0
  Multiplicity = 1
  Basis Set: CC-PVTZ
  Basis Set:

    Orbital Energies (a.u.)
    -----------------------

    Doubly Occupied:

       1A    -20.537382     2A    -11.319413     3A    -11.230964
       4A    -11.228413     5A    -11.226219     6A    -11.224769
       7A    -11.215022     8A     -1.397035     9A     -1.095420
      10A     -1.030295    11A     -0.983275    12A     -0.894648
      13A     -0.810026    14A     -0.734229    15A     -0.665492
      16A     -0.648333    17A     -0.628341    18A     -0.615172
      19A     -0.583340    20A     -0.575960    21A     -0.555684
      22A     -0.534720    23A     -0.510614    24A     -0.505128
      25A     -0.485948    26A     -0.478195    27A     -0.474262
      28A     -0.399596

  @DF-RHF Final Energy:  -309.17684099499166

   => Energetics <=

    Nuclear Repulsion Energy =            301.7335729219523159
    One-Electron Energy =               -1016.6450348325641926
    Two-Electron Energy =                 405.7346209156204395
    DFT Exchange-Correlation Energy =       0.0000000000000000
    Empirical Dispersion Energy =           0.0000000000000000
    PCM Polarization Energy =               0.0000000000000000
    EFP Energy =                            0.0000000000000000
    Total Energy =                       -309.1768409949914940
    Molecular point group: c1
  Basis Set: CC-PVTZ
  Basis Set:

  -Total Gradient:
     Atom            X                  Y                   Z
    ------   -----------------  -----------------  -----------------
       1        0.000014234304    -0.000000683610    -0.000019012518
       2        0.000023568684     0.000036616276    -0.000205725739
       3       -0.000000881513    -0.000115350731     0.000166849047
       4       -0.000048086169    -0.000015753427     0.000151455221
       5       -0.000008971346     0.000092536670    -0.000072264652
       6       -0.000003055251    -0.000004278233    -0.000000180504
       7       -0.000002018702    -0.000006779006     0.000000140325
       8        0.000003299308    -0.000003402443     0.000003981636
       9        0.000008050102     0.000001736841    -0.000003019771
      10       -0.000002880524    -0.000000523647     0.000003726563
      11       -0.000000168982     0.000002118613    -0.000003978437
      12        0.000000025446    -0.000000544319    -0.000000365943
      13       -0.000004535233    -0.000001909210     0.000004885551
      14        0.000003686290     0.000001442365    -0.000004930798
      15        0.000001430516     0.000000245653     0.000001621711
      16       -0.000006088250    -0.000000319922    -0.000000766640
      17       -0.000000661579     0.000000871760     0.000001869225
      18        0.000008952820    -0.000001701425    -0.000016244207
      19        0.000014100075     0.000015677795    -0.000008040073

  **** Optimization is complete! (in 11 steps) ****
    Final optimized geometry and variables:
    Molecular point group: c1

    Geometry (in Angstrom), charge = 0, multiplicity = 1:

    O           -1.532308604531    -1.785522297024    -1.177198066420
    C           -1.142074502292    -0.671544845561    -1.041660335636
    C            0.297522579465    -0.384494687581    -0.665296698759
    C           -2.069423947933     0.507461599763    -1.238000292725
    C            0.456076334221     0.380412949984     0.652179472418
    H            0.807784944140    -1.336531032201    -0.612403852456
    H            0.747965294051     0.190200895808    -1.470969908906
    C            1.919388608045     0.570641012897     1.042048654415
    H           -0.058401735100    -0.158381045605     1.443267837554
    H           -0.020381990230     1.352917635461     0.578632768620
    C            2.091816742839     1.329362578157     2.353331364437
    H            2.397317723597    -0.401131269121     1.121071184645
    H            2.435584072075     1.101189882256     0.246707423674
    H            1.613309767697     0.805840124690     3.174059113324
    H            1.654055862160     2.320253198722     2.293797032188
    H            3.140002365021     1.445886561598     2.602214322682
    H           -2.973596991979     0.176356269452    -1.725294960524
    H           -1.594707738239     1.286915833973    -1.822472503688
    H           -2.325028275114     0.933311911135    -0.274115946251

  Mulliken Charges: (a.u.)
   Center  Symbol    Alpha    Beta     Spin     Total
       1     O     4.17262  4.17262  0.00000 -0.34523
       2     C     2.85779  2.85779  0.00000  0.28442
       3     C     3.09655  3.09655  0.00000 -0.19310
       4     C     3.16374  3.16374  0.00000 -0.32749
       5     C     3.10285  3.10285  0.00000 -0.20570
       6     H     0.43854  0.43854  0.00000  0.12292
       7     H     0.44847  0.44847  0.00000  0.10306
       8     C     3.08570  3.08570  0.00000 -0.17139
       9     H     0.44580  0.44580  0.00000  0.10840
      10     H     0.45116  0.45116  0.00000  0.09768
      11     C     3.14916  3.14916  0.00000 -0.29832
      12     H     0.44972  0.44972  0.00000  0.10056
      13     H     0.45355  0.45355  0.00000  0.09289
      14     H     0.45342  0.45342  0.00000  0.09316
      15     H     0.45518  0.45518  0.00000  0.08965
      16     H     0.44669  0.44669  0.00000  0.10663
      17     H     0.43245  0.43245  0.00000  0.13510
      18     H     0.44915  0.44915  0.00000  0.10169
      19     H     0.44746  0.44746  0.00000  0.10507

   Total alpha = 28.00000, Total beta = 28.00000, Total charge = -0.00000

*** Psi4 exiting successfully. Buy a developer a beer!
