                              Psi4 1.0.54 Driver

  ==> Input File <==

--------------------------------------------------------------------------
set {
	reference rhf
	basis cc-pvtz
}

set_num_threads( 4 )
memory 2 gb

molecule MOL {
0 1

H	 -2.098992	 -1.087625	 -0.000000
C	 -1.133530	 -0.612984	 -0.000000
N	 -1.143480	 0.703953	 0.000000
C	 0.010722	 -1.389744	 0.000000
C	 0.004350	 1.352795	 0.000000
C	 1.211665	 -0.701658	 -0.000000
C	 -0.050482	 -2.894985	 -0.000000
C	 1.214604	 0.675565	 0.000000
C	 -0.065812	 2.855478	 -0.000000
H	 2.142605	 -1.239436	 -0.000000
H	 0.439046	 -3.308022	 -0.874664
H	 -1.075241	 -3.242027	 -0.000000
H	 0.439046	 -3.308022	 0.874664
H	 2.138724	 1.219527	 -0.000000
H	 -0.604189	 3.202563	 -0.873116
H	 0.919663	 3.301735	 -0.000000
H	 -0.604189	 3.202563	 0.873116

	symmetry c1
}
ee,wfn = energy('scf', return_wfn=True)
oeprop( wfn, 'DIPOLE', 'QUADRUPOLE', 'MULLIKEN_CHARGES')
oeprop( wfn, 'GRID_ESP')
f=open( 'psi4out.xyz', 'w' )
f.write( "17  " )
f.write( str(ee) + "\n" )
f.write( MOL.save_string_xyz() )
f.close()
--------------------------------------------------------------------------

    Molecular point group: c1

    Geometry (in Angstrom), charge = 0, multiplicity = 1:

       Center              X                  Y                   Z               Mass
    ------------   -----------------  -----------------  -----------------  -----------------
           H         -2.098951998437    -1.087648500145     0.000000000000     1.007825032070
           C         -1.133489998437    -0.613007500145     0.000000000000    12.000000000000
           N         -1.143439998437     0.703929499855     0.000000000000    14.003074004780
           C          0.010762001563    -1.389767500145     0.000000000000    12.000000000000
           C          0.004390001563     1.352771499855     0.000000000000    12.000000000000
           C          1.211705001563    -0.701681500145     0.000000000000    12.000000000000
           C         -0.050441998437    -2.895008500145     0.000000000000    12.000000000000
           C          1.214644001563     0.675541499855     0.000000000000    12.000000000000
           C         -0.065771998437     2.855454499855     0.000000000000    12.000000000000
           H          2.142645001563    -1.239459500145     0.000000000000     1.007825032070
           H          0.439086001563    -3.308045500145    -0.874664000000     1.007825032070
           H         -1.075200998437    -3.242050500145     0.000000000000     1.007825032070
           H          0.439086001563    -3.308045500145     0.874664000000     1.007825032070
           H          2.138764001563     1.219503499855     0.000000000000     1.007825032070
           H         -0.604148998437     3.202539499855    -0.873116000000     1.007825032070
           H          0.919703001563     3.301711499855     0.000000000000     1.007825032070
           H         -0.604148998437     3.202539499855     0.873116000000     1.007825032070

  Charge       = 0
  Multiplicity = 1
  Basis Set: CC-PVTZ
  Basis Set:

    Orbital Energies (a.u.)
    -----------------------

    Doubly Occupied:

       1A    -15.546412     2A    -11.266755     3A    -11.257121
       4A    -11.242815     5A    -11.234440     6A    -11.225849
       7A    -11.225002     8A    -11.213963     9A     -1.262841
      10A     -1.099676    11A     -1.060699    12A     -0.986500
      13A     -0.914167    14A     -0.856590    15A     -0.809644
      16A     -0.687968    17A     -0.672330    18A     -0.626537
      19A     -0.592831    20A     -0.575878    21A     -0.575362
      22A     -0.558449    23A     -0.546480    24A     -0.534676
      25A     -0.508701    26A     -0.501134    27A     -0.403010
      28A     -0.375170    29A     -0.326057

  @DF-RHF Final Energy:  -324.88133851093835

   => Energetics <=

    Nuclear Repulsion Energy =            346.8937272706679096
    One-Electron Energy =               -1126.1759338776359982
    Two-Electron Energy =                 454.4008680960295692
    DFT Exchange-Correlation Energy =       0.0000000000000000
    Empirical Dispersion Energy =           0.0000000000000000
    PCM Polarization Energy =               0.0000000000000000
    EFP Energy =                            0.0000000000000000
    Total Energy =                       -324.8813385109385194

  Mulliken Charges: (a.u.)
   Center  Symbol    Alpha    Beta     Spin     Total
       1     H     0.42404  0.42404  0.00000  0.15193
       2     C     3.08427  3.08427  0.00000 -0.16855
       3     N     3.60100  3.60100  0.00000 -0.20201
       4     C     2.94075  2.94075  0.00000  0.11851
       5     C     2.94471  2.94471  0.00000  0.11058
       6     C     3.10304  3.10304  0.00000 -0.20609
       7     C     3.14066  3.14066  0.00000 -0.28131
       8     C     3.09165  3.09165  0.00000 -0.18330
       9     C     3.13530  3.13530  0.00000 -0.27060
      10     H     0.42447  0.42447  0.00000  0.15106
      11     H     0.44794  0.44794  0.00000  0.10412
      12     H     0.45024  0.45024  0.00000  0.09952
      13     H     0.44794  0.44794  0.00000  0.10412
      14     H     0.41679  0.41679  0.00000  0.16642
      15     H     0.44596  0.44596  0.00000  0.10807
      16     H     0.45527  0.45527  0.00000  0.08947
      17     H     0.44596  0.44596  0.00000  0.10808

   Total alpha = 29.00000, Total beta = 29.00000, Total charge = -0.00000

*** Psi4 exiting successfully. Buy a developer a beer!
