  ==> Input File <==

--------------------------------------------------------------------------
set {
	reference rhf
	basis 6-31G*
}

set_num_threads( 4 )
memory 2 gb

molecule MOL {
0 1

O	 -0.988096	 -1.408613	 0.050699
C	 -0.676749	 -0.249230	 -0.009274
C	 -1.746085	 0.827156	 -0.009539
N	 0.623947	 0.147590	 -0.102813
H	 -1.701500	 1.431508	 -0.908902
H	 -2.703425	 0.330732	 0.036390
H	 -1.647323	 1.487769	 0.845106
C	 0.930423	 1.558899	 0.024296
C	 1.681874	 -0.668348	 -0.657143
H	 1.855574	 1.679217	 0.577138
H	 0.132680	 2.052953	 0.551039
H	 1.050621	 2.026449	 -0.950574
H	 2.613693	 -0.425886	 -0.160188
H	 1.494497	 -1.719234	 -0.503965
H	 1.814618	 -0.492337	 -1.723075

	symmetry c1
}
set optking {
	frozen_dihedral = ("
		8 4 2 3
	")
}

ee = optimize('scf')
oeprop('DIPOLE', 'QUADRUPOLE', 'MULLIKEN_CHARGES')
f=open( 'psi4out.xyz', 'w' )
f.write( "15  " )
f.write( str(ee) + "\n" )
f.write( MOL.save_string_xyz() )
f.close()
--------------------------------------------------------------------------

    Molecular point group: c1
  Charge       = 0
  Multiplicity = 1
  Basis Set: 6-31G*
  Basis Set:
  @DF-RHF Final Energy:  -286.02166511748419
    Total Energy =                       -286.0216651174841900
    Molecular point group: c1
  Basis Set: 6-31G*
  Basis Set:
  Basis Set: 6-31G*
  Basis Set:
  @DF-RHF Final Energy:  -286.02395757230113
    Total Energy =                       -286.0239575723010148
  Basis Set: 6-31G*
  Basis Set:
  Basis Set: 6-31G*
  Basis Set:
  @DF-RHF Final Energy:  -286.02706046121045
    Total Energy =                       -286.0270604612104535
  Basis Set: 6-31G*
  Basis Set:
  Basis Set: 6-31G*
  Basis Set:
  @DF-RHF Final Energy:  -286.02771546943643
    Total Energy =                       -286.0277154694364299
  Basis Set: 6-31G*
  Basis Set:
  @DF-RHF Final Energy:  -286.02809832859418
    Total Energy =                       -286.0280983285941829
  @DF-RHF Final Energy:  -286.02835727668003
    Total Energy =                       -286.0283572766799125
  @DF-RHF Final Energy:  -286.02876279231833
    Total Energy =                       -286.0287627923185028
  @DF-RHF Final Energy:  -286.02902150086186
    Total Energy =                       -286.0290215008616315
  @DF-RHF Final Energy:  -286.02937357386952
    Total Energy =                       -286.0293735738695204
  @DF-RHF Final Energy:  -286.02957418318778
    Total Energy =                       -286.0295741831876057
  @DF-RHF Final Energy:  -286.02966378782776
    Total Energy =                       -286.0296637878275305
  @DF-RHF Final Energy:  -286.02971412649822
    Total Energy =                       -286.0297141264983338
  @DF-RHF Final Energy:  -286.02973822198430
    Total Energy =                       -286.0297382219845304
  @DF-RHF Final Energy:  -286.02974501067104
    Total Energy =                       -286.0297450106710926
  @DF-RHF Final Energy:  -286.02975103131439
    Total Energy =                       -286.0297510313143334
  @DF-RHF Final Energy:  -286.02976732622221
    Total Energy =                       -286.0297673262220997
  @DF-RHF Final Energy:  -286.02977103190176
    Total Energy =                       -286.0297710319015323
  @DF-RHF Final Energy:  -286.02977456444864
    Total Energy =                       -286.0297745644487577
  @DF-RHF Final Energy:  -286.02977793531829
    Total Energy =                       -286.0297779353183500
  @DF-RHF Final Energy:  -286.02978708129245
    Total Energy =                       -286.0297870812923975
  @DF-RHF Final Energy:  -286.02978914269676
    Total Energy =                       -286.0297891426965862
  Basis Set: 6-31G*
  Basis Set:
  @DF-RHF Final Energy:  -286.02979110933182
    Total Energy =                       -286.0297911093318248
  Basis Set: 6-31G*
  Basis Set:
  Basis Set: 6-31G*
  Basis Set:
  @DF-RHF Final Energy:  -286.02979643854667
    Total Energy =                       -286.0297964385467822
  Basis Set: 6-31G*
  Basis Set:
  Basis Set: 6-31G*
  Basis Set:
  @DF-RHF Final Energy:  -286.02980090445203
    Total Energy =                       -286.0298009044519176
  Basis Set: 6-31G*
  Basis Set:
  Charge       = 0
  Multiplicity = 1
  Basis Set: 6-31G*
  Basis Set:

    Orbital Energies (a.u.)
    -----------------------

    Doubly Occupied:

       1A    -20.513506     2A    -15.584231     3A    -11.341755
       4A    -11.266501     5A    -11.247767     6A    -11.228329
       7A     -1.383732     8A     -1.243798     9A     -1.014187
      10A     -0.972869    11A     -0.919602    12A     -0.738184
      13A     -0.681140    14A     -0.659282    15A     -0.651387
      16A     -0.589711    17A     -0.576021    18A     -0.567128
      19A     -0.561227    20A     -0.547083    21A     -0.529698
      22A     -0.503633    23A     -0.409773    24A     -0.366061

  @DF-RHF Final Energy:  -286.02980188333129

   => Energetics <=

    Nuclear Repulsion Energy =            252.3271057858868005
    One-Electron Energy =                -888.5206052029097918
    Two-Electron Energy =                 350.1636975336916748
    DFT Exchange-Correlation Energy =       0.0000000000000000
    Empirical Dispersion Energy =           0.0000000000000000
    PCM Polarization Energy =               0.0000000000000000
    EFP Energy =                            0.0000000000000000
    Total Energy =                       -286.0298018833312881
    Molecular point group: c1
  Basis Set: 6-31G*
  Basis Set:

  -Total Gradient:
     Atom            X                  Y                   Z
    ------   -----------------  -----------------  -----------------
       1        0.000005276689    -0.000000564044     0.000020484985
       2       -0.000083201895     0.000040964078    -0.000294742160
       3        0.000027695592    -0.000007297253     0.000115598802
       4        0.000094322427    -0.000063393031     0.000283639955
       5        0.000007987386     0.000007504512     0.000004624399
       6       -0.000002360244     0.000000924832    -0.000011082210
       7       -0.000006443139    -0.000009291120     0.000006610818
       8       -0.000048601695     0.000035514509    -0.000161267470
       9        0.000002488059    -0.000003589136     0.000032793065
      10        0.000031168651    -0.000007266304    -0.000015356283
      11       -0.000002624304    -0.000005149818     0.000037756530
      12       -0.000026428607     0.000011369801    -0.000019323198
      13       -0.000007612388    -0.000010831689     0.000004718059
      14        0.000000439179     0.000003691194    -0.000013763496
      15        0.000007894292     0.000007413470     0.000009308202

  **** Optimization is complete! (in 25 steps) ****
    Final optimized geometry and variables:
    Molecular point group: c1

    Geometry (in Angstrom), charge = 0, multiplicity = 1:

    O           -0.894666578543    -1.470584403949     0.057832963736
    C           -0.654060149578    -0.293177676409     0.089467672852
    C           -1.753605663931     0.698123510485     0.422603773694
    N            0.586256158127     0.199350431589    -0.184600577962
    H           -1.908598384171     1.407935563186    -0.382490858106
    H           -2.660430141979     0.133045227314     0.575418384246
    H           -1.526975597208     1.255926087791     1.324861990657
    C            0.985326883031     1.574351639797     0.017441346630
    C            1.673072008703    -0.731790753834    -0.414144910008
    H            1.506409589885     1.706287803500     0.963709565391
    H            0.138797702197     2.241394770925    -0.001837618006
    H            1.657993268098     1.872917336673    -0.778574762734
    H            2.297375914124    -0.832905993710     0.470822670345
    H            1.270949691757    -1.696616741601    -0.669565694320
    H            2.292401586557    -0.372435906489    -1.228955310834

  Mulliken Charges: (a.u.)
   Center  Symbol    Alpha    Beta     Spin     Total
       1     O     4.30517  4.30517  0.00000 -0.61035
       2     C     2.62309  2.62309  0.00000  0.75381
       3     C     3.29895  3.29895  0.00000 -0.59791
       4     N     3.82409  3.82409  0.00000 -0.64818
       5     H     0.40686  0.40686  0.00000  0.18628
       6     H     0.39027  0.39027  0.00000  0.21945
       7     H     0.40772  0.40772  0.00000  0.18456
       8     C     3.14140  3.14140  0.00000 -0.28280
       9     C     3.14520  3.14520  0.00000 -0.29041
      10     H     0.41628  0.41628  0.00000  0.16743
      11     H     0.40688  0.40688  0.00000  0.18623
      12     H     0.41121  0.41121  0.00000  0.17757
      13     H     0.41975  0.41975  0.00000  0.16050
      14     H     0.38407  0.38407  0.00000  0.23187
      15     H     0.41903  0.41903  0.00000  0.16193

   Total alpha = 24.00000, Total beta = 24.00000, Total charge = -0.00000
