  ==> Input File <==

--------------------------------------------------------------------------
set {
	reference rhf
	basis cc-pvtz
}

set_num_threads( 4 )
memory 2 gb

molecule MOL {
0 1

H	 -3.436473	 1.252944	 -1.023892
O	 -3.458596	 0.315260	 -0.960865
C	 -3.176635	 -0.080824	 0.355601
C	 -1.763371	 0.265266	 0.799691
H	 -3.321825	 -1.153438	 0.379502
H	 -3.895468	 0.357385	 1.043382
C	 -0.673390	 -0.426948	 -0.013392
H	 -1.631049	 1.344913	 0.747560
H	 -1.664587	 -0.001624	 1.849167
C	 0.737842	 -0.043159	 0.423759
H	 -0.806103	 -0.190518	 -1.063345
H	 -0.797221	 -1.503753	 0.074146
C	 1.824000	 -0.743224	 -0.390623
H	 0.850588	 1.033777	 0.343840
H	 0.868587	 -0.286314	 1.476203
C	 3.255957	 -0.453067	 0.062319
H	 1.718250	 -0.470599	 -1.438164
H	 1.658105	 -1.815850	 -0.339904
C	 4.080432	 0.376004	 -0.919529
H	 3.761713	 -1.399496	 0.227422
H	 3.232280	 0.048868	 1.026124
H	 4.116840	 -0.098813	 -1.894875
H	 5.100248	 0.485459	 -0.568479
H	 3.673968	 1.371477	 -1.051535

	symmetry c1
}
set optking {
	frozen_dihedral = ("
		20 16 13 17
	")
}

ee = optimize('scf')
oeprop('DIPOLE', 'QUADRUPOLE', 'MULLIKEN_CHARGES')
f=open( 'psi4out.xyz', 'w' )
f.write( "24  " )
f.write( str(ee) + "\n" )
f.write( MOL.save_string_xyz() )
f.close()
--------------------------------------------------------------------------

    Molecular point group: c1
  Charge       = 0
  Multiplicity = 1
  Basis Set: CC-PVTZ
  Basis Set:
  @DF-RHF Final Energy:  -349.37624049227952
    Total Energy =                       -349.3762404922795213
    Molecular point group: c1
  Basis Set: CC-PVTZ
  Basis Set:
  Basis Set: CC-PVTZ
  Basis Set:
  @DF-RHF Final Energy:  -349.37687271871101
    Total Energy =                       -349.3768727187107856
  Basis Set: CC-PVTZ
  Basis Set:
  Basis Set: CC-PVTZ
  Basis Set:
  @DF-RHF Final Energy:  -349.37692781121757
    Total Energy =                       -349.3769278112177972
  Basis Set: CC-PVTZ
  Basis Set:
  Basis Set: CC-PVTZ
  Basis Set:
  @DF-RHF Final Energy:  -349.37693204871238
    Total Energy =                       -349.3769320487125469
  Basis Set: CC-PVTZ
  Basis Set:
  Charge       = 0
  Multiplicity = 1
  Basis Set: CC-PVTZ
  Basis Set:

    Orbital Energies (a.u.)
    -----------------------

    Doubly Occupied:

       1A    -20.546340     2A    -11.265563     3A    -11.215272
       4A    -11.211393     5A    -11.210933     6A    -11.209006
       7A    -11.208828     8A    -11.206030     9A     -1.364188
      10A     -1.089024    11A     -1.048794    12A     -0.988322
      13A     -0.914651    14A     -0.845180    15A     -0.799648
      16A     -0.786179    17A     -0.681838    18A     -0.654989
      19A     -0.626307    20A     -0.618264    21A     -0.598859
      22A     -0.584646    23A     -0.556977    24A     -0.537528
      25A     -0.526042    26A     -0.508481    27A     -0.494249
      28A     -0.473258    29A     -0.468344    30A     -0.459875
      31A     -0.456827    32A     -0.452185    33A     -0.420256

  @DF-RHF Final Energy:  -349.37693224147353

   => Energetics <=

    Nuclear Repulsion Energy =            382.7719767981321297
    One-Electron Energy =               -1232.2412583492773592
    Two-Electron Energy =                 500.0923493096712491
    DFT Exchange-Correlation Energy =       0.0000000000000000
    Empirical Dispersion Energy =           0.0000000000000000
    PCM Polarization Energy =               0.0000000000000000
    EFP Energy =                            0.0000000000000000
    Total Energy =                       -349.3769322414740373
    Molecular point group: c1
  Basis Set: CC-PVTZ
  Basis Set:

  -Total Gradient:
     Atom            X                  Y                   Z
    ------   -----------------  -----------------  -----------------
       1       -0.000000080774     0.000001700736    -0.000002245328
       2       -0.000000450956     0.000005423564     0.000001595590
       3        0.000007589602    -0.000012549222    -0.000008622615
       4        0.000008474652    -0.000002748748     0.000009640874
       5        0.000000069004    -0.000002262459     0.000003016659
       6        0.000006882479     0.000002620276     0.000000502155
       7       -0.000014932841    -0.000012082475     0.000002664522
       8        0.000005761683    -0.000000107855    -0.000001208229
       9       -0.000006108762     0.000002005182     0.000004187719
      10        0.000008061083     0.000027072792    -0.000023663441
      11        0.000015994308    -0.000004244401    -0.000003251445
      12       -0.000008910686    -0.000001595261     0.000004410873
      13        0.000664805489    -0.002402341860    -0.000173731653
      14       -0.000001940457     0.000018666475     0.000008894200
      15        0.000002010583    -0.000005202813    -0.000008916981
      16        0.000624297065     0.000401169802    -0.002390726506
      17       -0.000684555532     0.001946540030     0.000536480061
      18        0.000003302190    -0.000001661263    -0.000010418392
      19       -0.000008534642     0.000010873279    -0.000001551132
      20       -0.000604216206     0.000024330774     0.002059558195
      21        0.000000491024     0.000005886929    -0.000009356237
      22       -0.000006529831    -0.000000934300     0.000000816240
      23       -0.000007798930    -0.000011639860     0.000002561697
      24       -0.000003679552     0.000011080678    -0.000000636824

  **** Optimization is complete! (in 5 steps) ****
    Final optimized geometry and variables:
    Molecular point group: c1

    Geometry (in Angstrom), charge = 0, multiplicity = 1:

    H           -3.415339285200     1.412831892403    -0.922482175428
    O           -3.466114531264     0.475186939211    -0.878613537853
    C           -3.213617914074     0.045130107732     0.433077275588
    C           -1.796364375471     0.338960348545     0.901449724578
    H           -3.391702463014    -1.022790638681     0.433549877168
    H           -3.927769421681     0.491572036561     1.120441883827
    C           -0.717342295717    -0.368770380774     0.087001125483
    H           -1.630891713921     1.414947382679     0.873652952529
    H           -1.719002721641     0.047595009500     1.946167554725
    C            0.698448918407    -0.037098225376     0.548219370632
    H           -0.830309043115    -0.107906430887    -0.959456830484
    H           -0.873822051698    -1.443145159978     0.151318763441
    C            1.781626518515    -0.757555962645    -0.253629710793
    H            0.857273442620     1.037050540972     0.478280961887
    H            0.805659050227    -0.290578930607     1.600355518357
    C            3.213561213707    -0.377947746087     0.172677097634
    H            1.641305575694    -0.517298045324    -1.303585157805
    H            1.634028812194    -1.828406780404    -0.161001175489
    C            3.940170391482     0.502987244447    -0.838806897139
    H            3.795847926370    -1.274190886249     0.357679237449
    H            3.176275877053     0.140851498624     1.126023813130
    H            4.057061234966    -0.008161978852    -1.788402129963
    H            4.927873672794     0.777082133354    -0.485449780272
    H            3.389446647316     1.419560676394    -1.024885942256

  Mulliken Charges: (a.u.)
   Center  Symbol    Alpha    Beta     Spin     Total
       1     H     0.39530  0.39530  0.00000  0.20939
       2     O     4.20364  4.20364  0.00000 -0.40727
       3     C     2.97778  2.97778  0.00000  0.04444
       4     C     3.10196  3.10196  0.00000 -0.20392
       5     H     0.45889  0.45889  0.00000  0.08221
       6     H     0.46021  0.46021  0.00000  0.07958
       7     C     3.08915  3.08915  0.00000 -0.17831
       8     H     0.45913  0.45913  0.00000  0.08174
       9     H     0.45333  0.45333  0.00000  0.09335
      10     C     3.08908  3.08908  0.00000 -0.17816
      11     H     0.44600  0.44600  0.00000  0.10800
      12     H     0.45543  0.45543  0.00000  0.08913
      13     C     3.09496  3.09496  0.00000 -0.18992
      14     H     0.45497  0.45497  0.00000  0.09006
      15     H     0.45529  0.45529  0.00000  0.08942
      16     C     3.09061  3.09061  0.00000 -0.18121
      17     H     0.45477  0.45477  0.00000  0.09047
      18     H     0.44813  0.44813  0.00000  0.10375
      19     C     3.14705  3.14705  0.00000 -0.29409
      20     H     0.44885  0.44885  0.00000  0.10229
      21     H     0.45560  0.45560  0.00000  0.08880
      22     H     0.45444  0.45444  0.00000  0.09112
      23     H     0.44973  0.44973  0.00000  0.10053
      24     H     0.45570  0.45570  0.00000  0.08860

   Total alpha = 33.00000, Total beta = 33.00000, Total charge = -0.00000
