  ==> Input File <==

--------------------------------------------------------------------------
set {
	reference rhf
	basis cc-pvtz
}

set_num_threads( 4 )
memory 2 gb

molecule MOL {
0 1

H	 3.393641	 0.654595	 -0.700744
C	 2.683728	 0.468538	 0.094672
C	 1.322304	 0.099773	 -0.484271
H	 3.079002	 -0.330241	 0.711989
H	 2.624134	 1.364320	 0.702424
C	 0.308557	 -0.162619	 0.622645
H	 1.406783	 -0.786831	 -1.100332
H	 0.955282	 0.901134	 -1.113597
N	 -1.069352	 -0.004081	 0.085342
H	 0.371632	 -1.172932	 0.991288
H	 0.400391	 0.548875	 1.426218
O	 -1.584901	 -0.965470	 -0.377818
O	 -1.548033	 1.079343	 0.130056

	symmetry c1
}
set optking {
	frozen_dihedral = ("
		7 3 6 9
	")
}

ee = optimize('scf')
oeprop('DIPOLE', 'QUADRUPOLE', 'MULLIKEN_CHARGES')
f=open( 'psi4out.xyz', 'w' )
f.write( "13  " )
f.write( str(ee) + "\n" )
f.write( MOL.save_string_xyz() )
f.close()
--------------------------------------------------------------------------

    Molecular point group: c1
  Charge       = 0
  Multiplicity = 1
  Basis Set: CC-PVTZ
  Basis Set:
  @DF-RHF Final Energy:  -321.85988150845640
    Total Energy =                       -321.8598815084563967
    Molecular point group: c1
  Basis Set: CC-PVTZ
  Basis Set:
  Basis Set: CC-PVTZ
  Basis Set:
  @DF-RHF Final Energy:  -321.85962346748272
    Total Energy =                       -321.8596234674824927
  Basis Set: CC-PVTZ
  Basis Set:
  Basis Set: CC-PVTZ
  Basis Set:
  @DF-RHF Final Energy:  -321.85643073335712
    Total Energy =                       -321.8564307333572287
  Basis Set: CC-PVTZ
  Basis Set:
  Basis Set: CC-PVTZ
  Basis Set:
  @DF-RHF Final Energy:  -321.85978309072811
    Total Energy =                       -321.8597830907279445
  Basis Set: CC-PVTZ
  Basis Set:
  Basis Set: CC-PVTZ
  Basis Set:
  @DF-RHF Final Energy:  -321.85991963831805
    Total Energy =                       -321.8599196383180470
  Basis Set: CC-PVTZ
  Basis Set:
  Basis Set: CC-PVTZ
  Basis Set:
  @DF-RHF Final Energy:  -321.86005281804825
    Total Energy =                       -321.8600528180485298
  Basis Set: CC-PVTZ
  Basis Set:
  Charge       = 0
  Multiplicity = 1
  Basis Set: CC-PVTZ
  Basis Set:

    Orbital Energies (a.u.)
    -----------------------

    Doubly Occupied:

       1A    -20.590430     2A    -20.590264     3A    -15.836821
       4A    -11.297273     5A    -11.254752     6A    -11.236699
       7A     -1.635874     8A     -1.420264     9A     -1.133677
      10A     -1.027830    11A     -0.883644    12A     -0.834521
      13A     -0.761717    14A     -0.738479    15A     -0.727682
      16A     -0.671699    17A     -0.605487    18A     -0.590632
      19A     -0.547736    20A     -0.520441    21A     -0.515605
      22A     -0.486360    23A     -0.474820    24A     -0.453262

  @DF-RHF Final Energy:  -321.86005336276588

   => Energetics <=

    Nuclear Repulsion Energy =            248.0915121431883676
    One-Electron Energy =                -930.2311870231520743
    Two-Electron Energy =                 360.2796215171979384
    DFT Exchange-Correlation Energy =       0.0000000000000000
    Empirical Dispersion Energy =           0.0000000000000000
    PCM Polarization Energy =               0.0000000000000000
    EFP Energy =                            0.0000000000000000
    Total Energy =                       -321.8600533627657114
    Molecular point group: c1
  Basis Set: CC-PVTZ
  Basis Set:

  -Total Gradient:
     Atom            X                  Y                   Z
    ------   -----------------  -----------------  -----------------
       1       -0.000014244677    -0.000003262498    -0.000006993639
       2       -0.000011014633    -0.000001377528     0.000022197518
       3       -0.003439314067     0.002434816290    -0.002508065130
       4       -0.000005833541     0.000001029829    -0.000002014150
       5        0.000000859182     0.000005733381     0.000001101151
       6        0.000668300063    -0.003842378009    -0.000439979458
       7        0.002785164245    -0.001273316610     0.002204029624
       8       -0.000004886257    -0.000007868047     0.000021747425
       9       -0.000145313570     0.002621911091     0.000623683007
      10       -0.000013384851     0.000003602860    -0.000014643395
      11       -0.000035586684     0.000016286208     0.000012752212
      12        0.000109478452    -0.000088420547     0.000027221157
      13        0.000105776339     0.000133243579     0.000058963678

  **** Optimization is complete! (in 7 steps) ****
    Final optimized geometry and variables:
    Molecular point group: c1

    Geometry (in Angstrom), charge = 0, multiplicity = 1:

    H            3.422719941260     0.524236364849    -0.712319998706
    C            2.700146152543     0.379268435676     0.080415083953
    C            1.333114146455     0.031779895873    -0.502585516353
    H            3.068560071689    -0.414216875477     0.721627006558
    H            2.657959687906     1.290683467876     0.665225999052
    C            0.321106529146    -0.242807710996     0.608639548752
    H            1.427297428707    -0.850818788814    -1.121787237629
    H            0.977326752449     0.846267271609    -1.120048032077
    N           -1.060343787445    -0.097589903771     0.077647233013
    H            0.399836325571    -1.245205269317     0.994032356238
    H            0.400465299638     0.481984567657     1.401492710853
    O           -1.555324372407    -1.054168614847    -0.417391345575
    O           -1.561614220012     0.973504711700     0.157331625370

  Mulliken Charges: (a.u.)
   Center  Symbol    Alpha    Beta     Spin     Total
       1     H     0.44234  0.44234  0.00000  0.11531
       2     C     3.15087  3.15087  0.00000 -0.30175
       3     C     3.09379  3.09379  0.00000 -0.18759
       4     H     0.45244  0.45244  0.00000  0.09512
       5     H     0.45025  0.45025  0.00000  0.09950
       6     C     3.03786  3.03786  0.00000 -0.07573
       7     H     0.44028  0.44028  0.00000  0.11943
       8     H     0.43758  0.43758  0.00000  0.12484
       9     N     3.27828  3.27828  0.00000  0.44344
      10     H     0.43309  0.43309  0.00000  0.13383
      11     H     0.43689  0.43689  0.00000  0.12623
      12     O     4.17380  4.17380  0.00000 -0.34760
      13     O     4.17251  4.17251  0.00000 -0.34503

   Total alpha = 24.00000, Total beta = 24.00000, Total charge = -0.00000
