  ==> Input File <==

--------------------------------------------------------------------------
set {
	reference rhf
	basis 6-31G*
}

set_num_threads( 4 )
memory 2 gb

molecule MOL {
0 1

H	 -1.836216	 1.387520	 -0.000064
C	 -1.301823	 0.443321	 -0.000031
O	 -0.003969	 0.658512	 0.000451
O	 -1.829879	 -0.616434	 -0.000857
C	 0.838147	 -0.409034	 -0.433570
C	 2.268802	 0.076387	 -0.344628
H	 0.567102	 -0.677515	 -1.445385
H	 0.665386	 -1.269056	 0.198735
H	 2.421308	 0.942770	 -0.977998
H	 2.944534	 -0.708652	 -0.667634
H	 2.520227	 0.348412	 0.674036

	symmetry c1
}
set optking {
	frozen_dihedral = ("
		5 3 2 4
	")
}

ee = optimize('scf')
oeprop('DIPOLE', 'QUADRUPOLE', 'MULLIKEN_CHARGES')
f=open( 'psi4out.xyz', 'w' )
f.write( "11  " )
f.write( str(ee) + "\n" )
f.write( MOL.save_string_xyz() )
f.close()
--------------------------------------------------------------------------

    Molecular point group: c1
  Charge       = 0
  Multiplicity = 1
  Basis Set: 6-31G*
  Basis Set:
  @DF-RHF Final Energy:  -266.82638275694865
    Total Energy =                       -266.8263827569485329
    Molecular point group: c1
  Basis Set: 6-31G*
  Basis Set:
  Basis Set: 6-31G*
  Basis Set:
  @DF-RHF Final Energy:  -266.82079830738451
    Total Energy =                       -266.8207983073846208
  Basis Set: 6-31G*
  Basis Set:
  Basis Set: 6-31G*
  Basis Set:
  @DF-RHF Final Energy:  -266.82660720964503
    Total Energy =                       -266.8266072096453172
  Basis Set: 6-31G*
  Basis Set:
  Basis Set: 6-31G*
  Basis Set:
  @DF-RHF Final Energy:  -266.82668673618457
    Total Energy =                       -266.8266867361847403
  Basis Set: 6-31G*
  Basis Set:
  Basis Set: 6-31G*
  Basis Set:
  @DF-RHF Final Energy:  -266.82668925134908
    Total Energy =                       -266.8266892513490234
  Basis Set: 6-31G*
  Basis Set:
  Charge       = 0
  Multiplicity = 1
  Basis Set: 6-31G*
  Basis Set:

    Orbital Energies (a.u.)
    -----------------------

    Doubly Occupied:

       1A    -20.610761     2A    -20.558241     3A    -11.378591
       4A    -11.292909     5A    -11.227125     6A     -1.474954
       7A     -1.374283     8A     -1.052600     9A     -0.901711
      10A     -0.806863    11A     -0.737501    12A     -0.689598
      13A     -0.677172    14A     -0.595498    15A     -0.571613
      16A     -0.557782    17A     -0.518353    18A     -0.515123
      19A     -0.460446    20A     -0.453425

  @DF-RHF Final Energy:  -266.82669371671329

   => Energetics <=

    Nuclear Repulsion Energy =            179.0612243348344634
    One-Electron Energy =                -718.8667305960193517
    Two-Electron Energy =                 272.9788125444715092
    DFT Exchange-Correlation Energy =       0.0000000000000000
    Empirical Dispersion Energy =           0.0000000000000000
    PCM Polarization Energy =               0.0000000000000000
    EFP Energy =                            0.0000000000000000
    Total Energy =                       -266.8266937167133506
    Molecular point group: c1
  Basis Set: 6-31G*
  Basis Set:

  -Total Gradient:
     Atom            X                  Y                   Z
    ------   -----------------  -----------------  -----------------
       1        0.000019530224    -0.000005179312    -0.000000585799
       2        0.000746743485     0.001724993302    -0.013113619175
       3       -0.000353076376    -0.003352465664     0.010992852642
       4       -0.000446977386    -0.000462622325     0.006993278342
       5        0.000051265362     0.002061372316    -0.004877458890
       6       -0.000003933222     0.000018318123    -0.000002943410
       7       -0.000002629557     0.000021989096     0.000015774738
       8       -0.000012087821    -0.000008143974     0.000001766764
       9        0.000009493189     0.000007321152    -0.000002226810
      10       -0.000005177351    -0.000002501088    -0.000001479196
      11       -0.000003150547    -0.000003081624    -0.000005359206

  **** Optimization is complete! (in 6 steps) ****
    Final optimized geometry and variables:
    Molecular point group: c1

    Geometry (in Angstrom), charge = 0, multiplicity = 1:

    H           -1.814167512525     1.374599976367     0.223674483923
    C           -1.295865082744     0.425139728115     0.137778368492
    O            0.006328284457     0.607265442988     0.225251574974
    O           -1.844910801135    -0.619097984602     0.043678422228
    C            0.851698922010    -0.452787424977    -0.222352496425
    C            2.276789014100     0.054783019470    -0.181735546236
    H            0.554031942906    -0.732590691165    -1.224163597996
    H            0.714221518110    -1.311023261490     0.420422018727
    H            2.397024275247     0.917018319558    -0.827428615689
    H            2.954573117556    -0.723687546969    -0.516338813164
    H            2.553229067992     0.340378588208     0.826623978054

  Mulliken Charges: (a.u.)
   Center  Symbol    Alpha    Beta     Spin     Total
       1     H     0.41138  0.41138  0.00000  0.17723
       2     C     2.72779  2.72779  0.00000  0.54441
       3     O     4.29255  4.29255  0.00000 -0.58510
       4     O     4.26022  4.26022  0.00000 -0.52045
       5     C     3.00599  3.00599  0.00000 -0.01198
       6     C     3.24921  3.24921  0.00000 -0.49843
       7     H     0.41103  0.41103  0.00000  0.17794
       8     H     0.40627  0.40627  0.00000  0.18747
       9     H     0.41100  0.41100  0.00000  0.17800
      10     H     0.41509  0.41509  0.00000  0.16981
      11     H     0.40946  0.40946  0.00000  0.18108

   Total alpha = 20.00000, Total beta = 20.00000, Total charge =  0.00000
