  ==> Input File <==

--------------------------------------------------------------------------
set {
	reference rhf
	basis cc-pvtz
}

set_num_threads( 4 )
memory 2 gb

molecule MOL {
0 1

H	 2.376916	 2.327515	 0.828789
N	 1.566062	 1.751516	 0.749051
C	 1.860978	 0.530248	 0.016256
H	 0.867914	 2.289230	 0.279156
C	 0.644130	 -0.381765	 -0.031064
H	 2.669188	 0.021828	 0.531245
H	 2.207703	 0.718918	 -1.000671
C	 -0.678115	 0.376691	 0.025731
H	 0.693998	 -0.977147	 -0.936845
H	 0.693309	 -1.082142	 0.800523
C	 -1.900706	 -0.535531	 -0.022488
H	 -0.725296	 1.079516	 -0.802982
H	 -0.715474	 0.974884	 0.933278
C	 -3.220513	 0.226854	 0.028039
H	 -1.865036	 -1.134397	 -0.928236
H	 -1.857948	 -1.236381	 0.806820
H	 -3.309098	 0.911849	 -0.808725
H	 -4.066838	 -0.449485	 -0.008086
H	 -3.301685	 0.809374	 0.939860

	symmetry c1
}
set optking {
	frozen_dihedral = ("
		6 3 5 9
	")
}

ee = optimize('scf')
oeprop('DIPOLE', 'QUADRUPOLE', 'MULLIKEN_CHARGES')
f=open( 'psi4out.xyz', 'w' )
f.write( "19  " )
f.write( str(ee) + "\n" )
f.write( MOL.save_string_xyz() )
f.close()
--------------------------------------------------------------------------

    Molecular point group: c1
  Charge       = 0
  Multiplicity = 1
  Basis Set: CC-PVTZ
  Basis Set:
  @DF-RHF Final Energy:  -251.44014074591735
    Total Energy =                       -251.4401407459175743
    Molecular point group: c1
  Basis Set: CC-PVTZ
  Basis Set:
  Basis Set: CC-PVTZ
  Basis Set:
  @DF-RHF Final Energy:  -251.44082312187683
    Total Energy =                       -251.4408231218769174
  Basis Set: CC-PVTZ
  Basis Set:
  Basis Set: CC-PVTZ
  Basis Set:
  @DF-RHF Final Energy:  -251.44234881043323
    Total Energy =                       -251.4423488104332591
  Basis Set: CC-PVTZ
  Basis Set:
  Basis Set: CC-PVTZ
  Basis Set:
  @DF-RHF Final Energy:  -251.44246576060073
    Total Energy =                       -251.4424657606007258
  Basis Set: CC-PVTZ
  Basis Set:
  Basis Set: CC-PVTZ
  Basis Set:
  @DF-RHF Final Energy:  -251.44247212740967
    Total Energy =                       -251.4424721274098147
  Basis Set: CC-PVTZ
  Basis Set:
  Basis Set: CC-PVTZ
  Basis Set:
  @DF-RHF Final Energy:  -251.44247603054754
    Total Energy =                       -251.4424760305475388
  Basis Set: CC-PVTZ
  Basis Set:
  Charge       = 0
  Multiplicity = 1
  Basis Set: CC-PVTZ
  Basis Set:

    Orbital Energies (a.u.)
    -----------------------

    Doubly Occupied:

       1A    -15.525892     2A    -11.239148     3A    -11.210039
       4A    -11.208268     5A    -11.206652     6A    -11.203971
       7A     -1.177316     8A     -1.070101     9A     -0.995611
      10A     -0.906788    11A     -0.814474    12A     -0.777080
      13A     -0.666196    14A     -0.651737    15A     -0.613478
      16A     -0.584654    17A     -0.561998    18A     -0.551031
      19A     -0.525705    20A     -0.499481    21A     -0.486619
      22A     -0.463029    23A     -0.459266    24A     -0.444892
      25A     -0.381630

  @DF-RHF Final Energy:  -251.44247632493827

   => Energetics <=

    Nuclear Repulsion Energy =            250.2416138763819333
    One-Electron Energy =                -834.9180686439715373
    Two-Electron Energy =                 333.2339784426512779
    DFT Exchange-Correlation Energy =       0.0000000000000000
    Empirical Dispersion Energy =           0.0000000000000000
    PCM Polarization Energy =               0.0000000000000000
    EFP Energy =                            0.0000000000000000
    Total Energy =                       -251.4424763249382977
    Molecular point group: c1
  Basis Set: CC-PVTZ
  Basis Set:

  -Total Gradient:
     Atom            X                  Y                   Z
    ------   -----------------  -----------------  -----------------
       1       -0.000003632444     0.000004417487     0.000001128487
       2       -0.000005345012    -0.000001987812    -0.000017033948
       3        0.001416636460    -0.002215422004    -0.007920938753
       4        0.000000542700     0.000003500474     0.000005688825
       5        0.003882723258    -0.005186873586     0.005145816436
       6       -0.001778695723     0.002644006483     0.005933368741
       7       -0.000005801149    -0.000004076539     0.000001087120
       8        0.000011787689    -0.000000368752     0.000022525806
       9       -0.003505343363     0.004738372182    -0.003176031520
      10       -0.000001314285     0.000011825474    -0.000001431401
      11       -0.000006371981     0.000000635790     0.000007773245
      12        0.000007497935    -0.000011714450    -0.000000202342
      13       -0.000016544769     0.000013773898     0.000007736549
      14        0.000001330790     0.000000804843    -0.000007825324
      15       -0.000003525496     0.000007650911    -0.000000041641
      16        0.000007189994    -0.000004603797    -0.000001128655
      17       -0.000004698514     0.000002191461    -0.000001249506
      18       -0.000000112867    -0.000000102444     0.000002246815
      19        0.000003676778    -0.000002029621    -0.000001488934

  **** Optimization is complete! (in 7 steps) ****
    Final optimized geometry and variables:
    Molecular point group: c1

    Geometry (in Angstrom), charge = 0, multiplicity = 1:

    H            2.833429012640     1.883531574016     0.730998906302
    N            1.961651756166     1.408742047523     0.631883684999
    C            2.133516930340     0.186630831989    -0.146186180516
    H            1.332846890686     2.042811256856     0.187320548291
    C            0.889769673744    -0.715192757258    -0.115757890833
    H            2.949268328414    -0.340232320516     0.333777979231
    H            2.417422760236     0.385248963949    -1.178139709146
    C           -0.447128215927     0.028151417926    -0.093675800864
    H            0.892888729036    -1.317758885832    -1.019638783647
    H            0.937082021453    -1.382700083304     0.737131258980
    C           -1.645066613348    -0.915358354063    -0.161174575217
    H           -0.495368703270     0.717087653913    -0.936073266528
    H           -0.517312184294     0.629525064181     0.804911897682
    C           -2.983985917031    -0.185902589635    -0.128528190576
    H           -1.584094672594    -1.514695582704    -1.065602564980
    H           -1.596138246738    -1.613722172674     0.669897766651
    H           -3.078937552037     0.496164093058    -0.967191919502
    H           -3.813023926875    -0.882886762634    -0.174830199324
    H           -3.090480204126     0.394899330796     0.781570934214

  Mulliken Charges: (a.u.)
   Center  Symbol    Alpha    Beta     Spin     Total
       1     H     0.42948  0.42948  0.00000  0.14105
       2     N     3.69210  3.69210  0.00000 -0.38420
       3     C     3.03679  3.03679  0.00000 -0.07358
       4     H     0.42709  0.42709  0.00000  0.14582
       5     C     3.07871  3.07871  0.00000 -0.15741
       6     H     0.45498  0.45498  0.00000  0.09004
       7     H     0.46302  0.46302  0.00000  0.07397
       8     C     3.09650  3.09650  0.00000 -0.19300
       9     H     0.45710  0.45710  0.00000  0.08580
      10     H     0.45400  0.45400  0.00000  0.09201
      11     C     3.08530  3.08530  0.00000 -0.17060
      12     H     0.45904  0.45904  0.00000  0.08193
      13     H     0.44591  0.44591  0.00000  0.10818
      14     C     3.15007  3.15007  0.00000 -0.30013
      15     H     0.45581  0.45581  0.00000  0.08837
      16     H     0.45425  0.45425  0.00000  0.09151
      17     H     0.45634  0.45634  0.00000  0.08733
      18     H     0.44887  0.44887  0.00000  0.10225
      19     H     0.45467  0.45467  0.00000  0.09067

   Total alpha = 25.00000, Total beta = 25.00000, Total charge = -0.00000
