  ==> Input File <==

--------------------------------------------------------------------------
set {
	reference rhf
	basis 6-31G*
}

set_num_threads( 4 )
memory 2 gb

molecule MOL {
0 1

H	 -3.261111	 -0.295142	 1.469456
C	 -3.306842	 -0.277400	 0.373456
C	 -2.660244	 0.921717	 -0.272021
O	 -3.838538	 -1.161155	 -0.216482
C	 -2.673029	 0.843408	 -1.804979
H	 -3.160584	 1.814140	 0.085679
H	 -1.628617	 0.955001	 0.076250
C	 -4.077069	 0.929076	 -2.408826
H	 -2.062344	 1.651907	 -2.195720
H	 -2.192092	 -0.080154	 -2.123553
C	 -4.073612	 0.861307	 -3.937293
H	 -4.546726	 1.856422	 -2.087426
H	 -4.697491	 0.125863	 -2.015806
C	 -5.477902	 0.963429	 -4.538531
H	 -3.444355	 1.659114	 -4.323653
H	 -3.613738	 -0.073320	 -4.255683
C	 -5.532797	 0.817524	 -6.063579
H	 -5.923652	 1.914960	 -4.252892
H	 -6.103042	 0.191058	 -4.095411
C	 -4.849707	 1.947791	 -6.835268
H	 -6.575926	 0.770548	 -6.366274
H	 -5.091160	 -0.134619	 -6.350465
H	 -5.260500	 2.914577	 -6.556266
H	 -3.780818	 1.977076	 -6.651981
H	 -4.992638	 1.825023	 -7.904611

	symmetry c1
}
set optking {
	frozen_dihedral = ("
		6 3 2 4
	")
}

ee = optimize('scf')
oeprop('DIPOLE', 'QUADRUPOLE', 'MULLIKEN_CHARGES')
f=open( 'psi4out.xyz', 'w' )
f.write( "25  " )
f.write( str(ee) + "\n" )
f.write( MOL.save_string_xyz() )
f.close()
--------------------------------------------------------------------------

    Molecular point group: c1
  Charge       = 0
  Multiplicity = 1
  Basis Set: 6-31G*
  Basis Set:
  @DF-RHF Final Energy:  -387.12162752692382
    Total Energy =                       -387.1216275269235894
    Molecular point group: c1
  Basis Set: 6-31G*
  Basis Set:
  Basis Set: 6-31G*
  Basis Set:
  @DF-RHF Final Energy:  -387.12295086792847
    Total Energy =                       -387.1229508679283526
  Basis Set: 6-31G*
  Basis Set:
  Basis Set: 6-31G*
  Basis Set:
  @DF-RHF Final Energy:  -387.12282093776406
    Total Energy =                       -387.1228209377638905
  Basis Set: 6-31G*
  Basis Set:
  Basis Set: 6-31G*
  Basis Set:
  @DF-RHF Final Energy:  -387.12285769233807
    Total Energy =                       -387.1228576923384708
  Basis Set: 6-31G*
  Basis Set:
  Basis Set: 6-31G*
  Basis Set:
  @DF-RHF Final Energy:  -387.12314150593068
    Total Energy =                       -387.1231415059309029
  Basis Set: 6-31G*
  Basis Set:
  Basis Set: 6-31G*
  Basis Set:
  @DF-RHF Final Energy:  -387.12316105626576
    Total Energy =                       -387.1231610562651895
  Basis Set: 6-31G*
  Basis Set:
  Charge       = 0
  Multiplicity = 1
  Basis Set: 6-31G*
  Basis Set:

    Orbital Energies (a.u.)
    -----------------------

    Doubly Occupied:

       1A    -20.564816     2A    -11.329422     3A    -11.237816
       4A    -11.222132     5A    -11.212697     6A    -11.211803
       7A    -11.210915     8A    -11.210330     9A    -11.206334
      10A     -1.405016    11A     -1.094463    12A     -1.063436
      13A     -1.009305    14A     -0.941278    15A     -0.875626
      16A     -0.815048    17A     -0.776055    18A     -0.764756
      19A     -0.686753    20A     -0.648403    21A     -0.628922
      22A     -0.620560    23A     -0.605776    24A     -0.588172
      25A     -0.560687    26A     -0.546749    27A     -0.533891
      28A     -0.516148    29A     -0.502112    30A     -0.497015
      31A     -0.478915    32A     -0.472045    33A     -0.457367
      34A     -0.452128    35A     -0.435900    36A     -0.410726

  @DF-RHF Final Energy:  -387.12316100373465

   => Energetics <=

    Nuclear Repulsion Energy =            443.7635232652605168
    One-Electron Energy =               -1404.1863350851144787
    Two-Electron Energy =                 573.2996508161195379
    DFT Exchange-Correlation Energy =       0.0000000000000000
    Empirical Dispersion Energy =           0.0000000000000000
    PCM Polarization Energy =               0.0000000000000000
    EFP Energy =                            0.0000000000000000
    Total Energy =                       -387.1231610037343671
    Molecular point group: c1
  Basis Set: 6-31G*
  Basis Set:

  -Total Gradient:
     Atom            X                  Y                   Z
    ------   -----------------  -----------------  -----------------
       1       -0.000023883275    -0.000010532667     0.000013607040
       2        0.001520710149    -0.000814204443    -0.000235856968
       3        0.000407085475     0.000453552545     0.001085841344
       4       -0.001126564226     0.000536609926     0.000072026550
       5       -0.000008951701    -0.000007298417    -0.000039939771
       6       -0.000733899937    -0.000202837295    -0.000901473207
       7       -0.000014800690    -0.000033367185     0.000030251294
       8        0.000002225612    -0.000013347857    -0.000044170209
       9       -0.000043893880    -0.000005292694    -0.000053787757
      10        0.000024812544     0.000012729456     0.000064354221
      11       -0.000029466673     0.000092058439    -0.000006426533
      12        0.000030681486     0.000007211358     0.000009103240
      13       -0.000021961712     0.000010668524    -0.000011754203
      14        0.000025224535    -0.000073733553     0.000018002630
      15        0.000003745433     0.000038901878    -0.000041011191
      16       -0.000007297249     0.000040133514     0.000027582939
      17       -0.000026837480    -0.000006690348    -0.000006121039
      18        0.000020024510    -0.000014437804    -0.000011514840
      19       -0.000010427244    -0.000010138940     0.000029324050
      20        0.000015083567    -0.000007758277     0.000010587782
      21       -0.000000805263     0.000009602548    -0.000010051529
      22       -0.000014352259     0.000000931339    -0.000004696596
      23       -0.000003520148    -0.000007718554    -0.000003559366
      24        0.000010023015     0.000008475593     0.000011678419
      25        0.000007045410    -0.000003517083    -0.000001996295

  **** Optimization is complete! (in 7 steps) ****
    Final optimized geometry and variables:
    Molecular point group: c1

    Geometry (in Angstrom), charge = 0, multiplicity = 1:

    H            0.911606049564    -0.923357523123     4.377714637473
    C            0.841948731542    -0.962210599201     3.284356188258
    C            1.343865631433     0.272815034950     2.577980896659
    O            0.394539401731    -1.925981363120     2.751802592704
    C            1.327233394451     0.196008697908     1.050582602008
    H            0.742329593181     1.111005413567     2.929367466326
    H            2.350639835740     0.458962590592     2.949469950972
    C           -0.071283974540     0.317932826478     0.440280005276
    H            1.955257127581     0.993803994379     0.661929314064
    H            1.781483567253    -0.739283986379     0.738921209634
    C           -0.057773695450     0.248493663924    -1.088059030121
    H           -0.514541168111     1.263374931521     0.751545408905
    H           -0.705839452036    -0.469936563094     0.831679570307
    C           -1.455772747318     0.374602000678    -1.699306187714
    H            0.589930581998     1.031883030681    -1.474523722426
    H            0.384149951734    -0.696885835851    -1.398231084535
    C           -1.506571821228     0.208809672588    -3.222450642315
    H           -1.880994282703     1.340562528315    -1.430382774530
    H           -2.100746739245    -0.376717140408    -1.248750529723
    C           -0.784922691405     1.306801369527    -4.006033729841
    H           -2.548714793540     0.187740778883    -3.531866921615
    H           -1.091121340903    -0.759983912008    -3.492103017575
    H           -1.171951278971     2.289059999421    -3.747855667369
    H            0.282469568158     1.310240632195    -3.811664599175
    H           -0.920104777522     1.170139777248    -5.074637143229

  Mulliken Charges: (a.u.)
   Center  Symbol    Alpha    Beta     Spin     Total
       1     H     0.42799  0.42799  0.00000  0.14401
       2     C     2.83455  2.83455  0.00000  0.33090
       3     C     3.21545  3.21545  0.00000 -0.43089
       4     O     4.23803  4.23803  0.00000 -0.47606
       5     C     3.15184  3.15184  0.00000 -0.30368
       6     H     0.40674  0.40674  0.00000  0.18652
       7     H     0.40602  0.40602  0.00000  0.18796
       8     C     3.15673  3.15673  0.00000 -0.31347
       9     H     0.41979  0.41979  0.00000  0.16042
      10     H     0.41002  0.41002  0.00000  0.17997
      11     C     3.15477  3.15477  0.00000 -0.30954
      12     H     0.42781  0.42781  0.00000  0.14438
      13     H     0.40636  0.40636  0.00000  0.18728
      14     C     3.15274  3.15274  0.00000 -0.30548
      15     H     0.42358  0.42358  0.00000  0.15283
      16     H     0.42147  0.42147  0.00000  0.15706
      17     C     3.15237  3.15237  0.00000 -0.30475
      18     H     0.42552  0.42552  0.00000  0.14895
      19     H     0.42030  0.42030  0.00000  0.15939
      20     C     3.24105  3.24105  0.00000 -0.48210
      21     H     0.42128  0.42128  0.00000  0.15744
      22     H     0.42272  0.42272  0.00000  0.15456
      23     H     0.42295  0.42295  0.00000  0.15409
      24     H     0.42035  0.42035  0.00000  0.15930
      25     H     0.41956  0.41956  0.00000  0.16089

   Total alpha = 36.00000, Total beta = 36.00000, Total charge = -0.00000
