  ==> Input File <==

--------------------------------------------------------------------------
set {
	reference rhf
	basis 6-31G*
}

set_num_threads( 1 )
memory 2 gb

molecule MOL {
0 1

O	 3.910483	 -0.365277	 0.057778
C	 2.843464	 0.164689	 -0.000222
C	 1.546494	 -0.624492	 -0.000609
C	 2.714399	 1.672158	 -0.077902
C	 0.291004	 0.242674	 0.000989
H	 1.557904	 -1.283758	 -0.867573
H	 1.558622	 -1.285963	 0.864672
C	 -0.994322	 -0.586602	 0.000262
H	 0.309117	 0.896430	 -0.865270
H	 0.309661	 0.894078	 0.869017
C	 -2.259874	 0.272531	 0.000494
H	 -1.004862	 -1.240012	 -0.870939
H	 -1.005220	 -1.241071	 0.870675
C	 -3.549786	 -0.549746	 -0.000374
H	 -2.250389	 0.926680	 -0.869574
H	 -2.250838	 0.925513	 0.871430
C	 -4.809590	 0.315458	 -0.000369
H	 -3.560515	 -1.202009	 -0.871156
H	 -3.561123	 -1.202955	 0.869711
H	 -4.844746	 0.956611	 -0.876632
H	 -5.706986	 -0.295590	 -0.001609
H	 -4.845960	 0.954827	 0.877144
H	 2.135395	 2.046715	 0.761194
H	 3.696818	 2.123379	 -0.068635
H	 2.191342	 1.961187	 -0.984824

	symmetry c1
}
set optking {
	frozen_dihedral = ("
		9 5 8 12,
		15 11 8 12,
		15 11 14 18,
		9 5 3 6
	")
}

ee = energy('scf')
oeprop('DIPOLE', 'QUADRUPOLE', 'MULLIKEN_CHARGES')
f=open( 'psi4out.xyz', 'w' )
f.write( "25  " )
f.write( str(ee) + "\n" )
f.write( MOL.save_string_xyz() )
f.close()
--------------------------------------------------------------------------

    Molecular point group: c1

    Geometry (in Angstrom), charge = 0, multiplicity = 1:

       Center              X                  Y                   Z               Mass
    ------------   -----------------  -----------------  -----------------  -----------------
           O          3.953236805837    -0.435541624134     0.060145111672    15.994914619560
           C          2.886217805837     0.094424375866     0.002145111672    12.000000000000
           C          1.589247805837    -0.694756624134     0.001758111672    12.000000000000
           C          2.757152805837     1.601893375866    -0.075534888328    12.000000000000
           C          0.333757805837     0.172409375866     0.003356111672    12.000000000000
           H          1.600657805837    -1.354022624134    -0.865205888328     1.007825032070
           H          1.601375805837    -1.356227624134     0.867039111672     1.007825032070
           C         -0.951568194163    -0.656866624134     0.002629111672    12.000000000000
           H          0.351870805837     0.826165375866    -0.862902888328     1.007825032070
           H          0.352414805837     0.823813375866     0.871384111672     1.007825032070
           C         -2.217120194163     0.202266375866     0.002861111672    12.000000000000
           H         -0.962108194163    -1.310276624134    -0.868571888328     1.007825032070
           H         -0.962466194163    -1.311335624134     0.873042111672     1.007825032070
           C         -3.507032194163    -0.620010624134     0.001993111672    12.000000000000
           H         -2.207635194163     0.856415375866    -0.867206888328     1.007825032070
           H         -2.208084194163     0.855248375866     0.873797111672     1.007825032070
           C         -4.766836194163     0.245193375866     0.001998111672    12.000000000000
           H         -3.517761194163    -1.272273624134    -0.868788888328     1.007825032070
           H         -3.518369194163    -1.273219624134     0.872078111672     1.007825032070
           H         -4.801992194163     0.886346375866    -0.874264888328     1.007825032070
           H         -5.664232194163    -0.365854624134     0.000758111672     1.007825032070
           H         -4.803206194163     0.884562375866     0.879511111672     1.007825032070
           H          2.178148805837     1.976450375866     0.763561111672     1.007825032070
           H          3.739571805837     2.053114375866    -0.066267888328     1.007825032070
           H          2.234095805837     1.890922375866    -0.982456888328     1.007825032070

  Charge       = 0
  Multiplicity = 1
  Basis Set: 6-31G*
  Basis Set:

    Orbital Energies (a.u.)
    -----------------------

    Doubly Occupied:

       1A    -20.546274     2A    -11.325568     3A    -11.231140
       4A    -11.229934     5A    -11.225525     6A    -11.224699
       7A    -11.220983     8A    -11.220343     9A    -11.212959
      10A     -1.392271    11A     -1.104430    12A     -1.064536
      13A     -1.009657    14A     -0.969910    15A     -0.898817
      16A     -0.823419    17A     -0.798145    18A     -0.731153
      19A     -0.670184    20A     -0.650621    21A     -0.636285
      22A     -0.626382    23A     -0.594187    24A     -0.591120
      25A     -0.562793    26A     -0.558363    27A     -0.546479
      28A     -0.530860    29A     -0.528331    30A     -0.498859
      31A     -0.492801    32A     -0.470669    33A     -0.470025
      34A     -0.466188    35A     -0.459775    36A     -0.395192

  @DF-RHF Final Energy:  -387.12904611574231

   => Energetics <=

    Nuclear Repulsion Energy =            440.9626072007785069
    One-Electron Energy =               -1398.2256007581463564
    Two-Electron Energy =                 570.1339474416266739
    DFT Exchange-Correlation Energy =       0.0000000000000000
    Empirical Dispersion Energy =           0.0000000000000000
    PCM Polarization Energy =               0.0000000000000000
    EFP Energy =                            0.0000000000000000
    Total Energy =                       -387.1290461157411755

  Mulliken Charges: (a.u.)
   Center  Symbol    Alpha    Beta     Spin     Total
       1     O     4.26339  4.26339  0.00000 -0.52679
       2     C     2.73252  2.73252  0.00000  0.53496
       3     C     3.20639  3.20639  0.00000 -0.41278
       4     C     3.29578  3.29578  0.00000 -0.59156
       5     C     3.16506  3.16506  0.00000 -0.33013
       6     H     0.40030  0.40030  0.00000  0.19940
       7     H     0.39988  0.39988  0.00000  0.20025
       8     C     3.15128  3.15128  0.00000 -0.30256
       9     H     0.41888  0.41888  0.00000  0.16224
      10     H     0.41881  0.41881  0.00000  0.16237
      11     C     3.15091  3.15091  0.00000 -0.30181
      12     H     0.42129  0.42129  0.00000  0.15743
      13     H     0.42105  0.42105  0.00000  0.15789
      14     C     3.15200  3.15200  0.00000 -0.30399
      15     H     0.42354  0.42354  0.00000  0.15292
      16     H     0.42346  0.42346  0.00000  0.15307
      17     C     3.23956  3.23956  0.00000 -0.47912
      18     H     0.42232  0.42232  0.00000  0.15535
      19     H     0.42226  0.42226  0.00000  0.15548
      20     H     0.42150  0.42150  0.00000  0.15700
      21     H     0.41828  0.41828  0.00000  0.16343
      22     H     0.42146  0.42146  0.00000  0.15708
      23     H     0.40715  0.40715  0.00000  0.18570
      24     H     0.39558  0.39558  0.00000  0.20884
      25     H     0.40734  0.40734  0.00000  0.18532

   Total alpha = 36.00000, Total beta = 36.00000, Total charge = -0.00000
