                              Psi4 1.0.54 Driver

  ==> Input File <==

--------------------------------------------------------------------------
set {
	reference rhf
	basis cc-pvtz
}

set_num_threads( 4 )
memory 2 gb

molecule MOL {
0 1

H	 -4.071784	 0.562153	 -0.650969
C	 -3.382434	 -0.049551	 -0.106061
C	 -2.105997	 -0.000418	 -0.398703
H	 -3.757475	 -0.687793	 0.669690
O	 -1.189946	 -0.765863	 0.237511
H	 -1.718288	 0.641776	 -1.168376
C	 0.026572	 -0.995256	 -0.379403
C	 1.057223	 0.049888	 -0.004615
H	 -0.054361	 -1.010670	 -1.459674
H	 0.397526	 -1.952058	 -0.044198
F	 2.203233	 -0.234060	 -0.590375
F	 0.698147	 1.254887	 -0.392621
F	 1.266440	 0.094219	 1.288722

	symmetry c1
}
set optking {
	frozen_dihedral = ("
		6 3 5 7
	")
}

ee,wfn = optimize('scf', return_wfn=True)
oeprop( wfn, 'DIPOLE', 'QUADRUPOLE', 'MULLIKEN_CHARGES')
f=open( 'psi4out.xyz', 'w' )
f.write( "13  " )
f.write( str(ee) + "\n" )
f.write( MOL.save_string_xyz() )
f.close()
--------------------------------------------------------------------------

    Molecular point group: c1
  Charge       = 0
  Multiplicity = 1
  Basis Set: CC-PVTZ
  Basis Set:
  @DF-RHF Final Energy:  -527.74155396074605
    Total Energy =                       -527.7415539607461596
    Molecular point group: c1
  Basis Set: CC-PVTZ
  Basis Set:
  Basis Set: CC-PVTZ
  Basis Set:
  @DF-RHF Final Energy:  -527.74158667811093
    Total Energy =                       -527.7415866781110481
  Basis Set: CC-PVTZ
  Basis Set:
  Basis Set: CC-PVTZ
  Basis Set:
  @DF-RHF Final Energy:  -527.74179354739806
    Total Energy =                       -527.7417935473981743
  Basis Set: CC-PVTZ
  Basis Set:
  Basis Set: CC-PVTZ
  Basis Set:
  @DF-RHF Final Energy:  -527.74180475659227
    Total Energy =                       -527.7418047565920460
  Basis Set: CC-PVTZ
  Basis Set:
  Basis Set: CC-PVTZ
  Basis Set:
  @DF-RHF Final Energy:  -527.74181022333858
    Total Energy =                       -527.7418102233384616
  Basis Set: CC-PVTZ
  Basis Set:
  Charge       = 0
  Multiplicity = 1
  Basis Set: CC-PVTZ
  Basis Set:

    Orbital Energies (a.u.)
    -----------------------

    Doubly Occupied:

       1A    -26.342065     2A    -26.341124     3A    -26.338148
       4A    -20.602515     5A    -11.498004     6A    -11.319458
       7A    -11.298203     8A    -11.215950     9A     -1.750688
      10A     -1.647289    11A     -1.645561    12A     -1.442865
      13A     -1.088216    14A     -1.020737    15A     -0.932372
      16A     -0.843814    17A     -0.839924    18A     -0.827735
      19A     -0.795043    20A     -0.731165    21A     -0.719446
      22A     -0.706750    23A     -0.681866    24A     -0.667301
      25A     -0.661723    26A     -0.651244    27A     -0.635230
      28A     -0.594095    29A     -0.567929    30A     -0.533241
      31A     -0.507947    32A     -0.359421

  @DF-RHF Final Energy:  -527.74181076418972

   => Energetics <=

    Nuclear Repulsion Energy =            412.2262787361970027
    One-Electron Energy =               -1548.3220339006882114
    Two-Electron Energy =                 608.3539444003014296
    DFT Exchange-Correlation Energy =       0.0000000000000000
    Empirical Dispersion Energy =           0.0000000000000000
    PCM Polarization Energy =               0.0000000000000000
    EFP Energy =                            0.0000000000000000
    Total Energy =                       -527.7418107641898359
    Molecular point group: c1
  Basis Set: CC-PVTZ
  Basis Set:

  -Total Gradient:
     Atom            X                  Y                   Z
    ------   -----------------  -----------------  -----------------
       1        0.000013972834    -0.000001873206    -0.000002715189
       2       -0.000006220866    -0.000007644297    -0.000000766853
       3       -0.000270982692    -0.000814472912    -0.000685738284
       4        0.000019445470    -0.000000291693     0.000001156901
       5        0.000332615941     0.000803531726     0.000516236407
       6        0.000098216161     0.000491588960     0.000409705178
       7       -0.000104413949    -0.000457763037    -0.000244668304
       8        0.000054404022    -0.000002950146    -0.000000674009
       9       -0.000001181815     0.000000510679     0.000012878763
      10       -0.000018844948    -0.000013592520    -0.000003831879
      11       -0.000066113827    -0.000004378035     0.000053437071
      12       -0.000067601347     0.000066710873    -0.000065141198
      13        0.000016705018    -0.000059376399     0.000010121393

  **** Optimization is complete! (in 6 steps) ****
    Final optimized geometry and variables:
    Molecular point group: c1

    Geometry (in Angstrom), charge = 0, multiplicity = 1:

    H           -4.082540653576     0.591255872502    -0.623776968803
    C           -3.379590562703    -0.005337158899    -0.079233174091
    C           -2.114478257737     0.013780776605    -0.421079144824
    H           -3.729619965630    -0.594337201362     0.745726102796
    O           -1.176760544151    -0.689860634401     0.256031334501
    H           -1.748970997330     0.610891323910    -1.236058579453
    C            0.037400518458    -0.932217809834    -0.364639033121
    C            1.079567811759     0.091504089024     0.034621812175
    H           -0.040586449164    -0.927343135142    -1.444621630562
    H            0.393679721613    -1.900780316748    -0.046635760305
    F            2.222013298089    -0.187432161213    -0.559528257536
    F            0.731177405880     1.310414827346    -0.321703031367
    F            1.290717634161     0.101288152339     1.328348289121

  Mulliken Charges: (a.u.)
   Center  Symbol    Alpha    Beta     Spin     Total
       1     H     0.42520  0.42520  0.00000  0.14961
       2     C     3.19473  3.19473  0.00000 -0.38946
       3     C     2.96377  2.96377  0.00000  0.07246
       4     H     0.42431  0.42431  0.00000  0.15139
       5     O     4.14656  4.14656  0.00000 -0.29312
       6     H     0.43136  0.43136  0.00000  0.13728
       7     C     3.01733  3.01733  0.00000 -0.03466
       8     C     2.67507  2.67507  0.00000  0.64985
       9     H     0.45588  0.45588  0.00000  0.08825
      10     H     0.43557  0.43557  0.00000  0.12886
      11     F     4.61242  4.61242  0.00000 -0.22484
      12     F     4.61131  4.61131  0.00000 -0.22263
      13     F     4.60650  4.60650  0.00000 -0.21300

   Total alpha = 32.00000, Total beta = 32.00000, Total charge = -0.00000

*** Psi4 exiting successfully. Buy a developer a beer!
