                              Psi4 1.0.54 Driver

  ==> Input File <==

--------------------------------------------------------------------------
set {
	reference rhf
	basis cc-pvtz
}

set_num_threads( 4 )
memory 2 gb

molecule MOL {
0 1

H	 -6.115472	 -3.072109	 0.045715
O	 -6.311746	 -3.567828	 0.818741
C	 -5.258012	 -4.446798	 1.112560
C	 -4.019150	 -3.748956	 1.653785
H	 -5.642603	 -5.130479	 1.857309
H	 -5.000762	 -5.037439	 0.235397
C	 -3.335591	 -2.819316	 0.653601
H	 -4.298033	 -3.189485	 2.541689
H	 -3.315966	 -4.515196	 1.971283
C	 -2.078045	 -2.162506	 1.221066
H	 -4.035307	 -2.050990	 0.342033
H	 -3.071438	 -3.382955	 -0.239607
C	 -1.311023	 -1.277304	 0.237018
H	 -2.345641	 -1.576770	 2.097155
H	 -1.409712	 -2.943533	 1.572914
C	 -2.041121	 -0.006551	 -0.194127
H	 -0.367907	 -0.994636	 0.696538
H	 -1.053501	 -1.860593	 -0.644237
C	 -3.489218	 0.042606	 0.286507
H	 -2.022185	 0.066287	 -1.279394
H	 -1.518764	 0.869305	 0.178730
C	 -4.219984	 1.311773	 -0.139038
H	 -4.022855	 -0.824300	 -0.093339
H	 -3.510372	 -0.038577	 1.370031
H	 -4.244251	 1.405725	 -1.219696
H	 -5.244345	 1.313233	 0.215630
H	 -3.732090	 2.196311	 0.257073

	symmetry c1
}
set optking {
	frozen_dihedral = ("
		10 13 16 20
	")
}

ee,wfn = optimize('scf', return_wfn=True)
oeprop( wfn, 'DIPOLE', 'QUADRUPOLE', 'MULLIKEN_CHARGES')
f=open( 'psi4out.xyz', 'w' )
f.write( "27  " )
f.write( str(ee) + "\n" )
f.write( MOL.save_string_xyz() )
f.close()
--------------------------------------------------------------------------

    Molecular point group: c1
  Charge       = 0
  Multiplicity = 1
  Basis Set: CC-PVTZ
  Basis Set:
  @DF-RHF Final Energy:  -388.38940665815397
    Total Energy =                       -388.3894066581540301
    Molecular point group: c1
  Basis Set: CC-PVTZ
  Basis Set:
  Basis Set: CC-PVTZ
  Basis Set:
  @DF-RHF Final Energy:  -388.40912833320584
    Total Energy =                       -388.4091283332061266
  Basis Set: CC-PVTZ
  Basis Set:
  Basis Set: CC-PVTZ
  Basis Set:
  @DF-RHF Final Energy:  -388.41347286586688
    Total Energy =                       -388.4134728658668791
  Basis Set: CC-PVTZ
  Basis Set:
  Basis Set: CC-PVTZ
  Basis Set:
  @DF-RHF Final Energy:  -388.41456255503823
    Total Energy =                       -388.4145625550380601
  Basis Set: CC-PVTZ
  Basis Set:
  @DF-RHF Final Energy:  -388.41530680508760
    Total Energy =                       -388.4153068050873117
  @DF-RHF Final Energy:  -388.41513490628927
    Total Energy =                       -388.4151349062892677
  Basis Set: CC-PVTZ
  Basis Set:
  @DF-RHF Final Energy:  -388.41549038108462
    Total Energy =                       -388.4154903810846236
  Basis Set: CC-PVTZ
  Basis Set:
  Basis Set: CC-PVTZ
  Basis Set:
  @DF-RHF Final Energy:  -388.41549893384064
    Total Energy =                       -388.4154989338401265
  Basis Set: CC-PVTZ
  Basis Set:
  Basis Set: CC-PVTZ
  Basis Set:
  @DF-RHF Final Energy:  -388.41550289376198
    Total Energy =                       -388.4155028937623229
  Basis Set: CC-PVTZ
  Basis Set:
  Charge       = 0
  Multiplicity = 1
  Basis Set: CC-PVTZ
  Basis Set:

    Orbital Energies (a.u.)
    -----------------------

    Doubly Occupied:

       1A    -20.545470     2A    -11.265016     3A    -11.216088
       4A    -11.214427     5A    -11.213770     6A    -11.213406
       7A    -11.212971     8A    -11.212621     9A    -11.206647
      10A     -1.363309    11A     -1.092629    12A     -1.059790
      13A     -1.010362    14A     -0.949984    15A     -0.887492
      16A     -0.834422    17A     -0.798458    18A     -0.766280
      19A     -0.696760    20A     -0.648377    21A     -0.640764
      22A     -0.616737    23A     -0.602154    24A     -0.583370
      25A     -0.574144    26A     -0.570406    27A     -0.535422
      28A     -0.513862    29A     -0.511855    30A     -0.499853
      31A     -0.486983    32A     -0.483829    33A     -0.468647
      34A     -0.446473    35A     -0.445440    36A     -0.444958
      37A     -0.424435

  @DF-RHF Final Energy:  -388.41550370030672

   => Energetics <=

    Nuclear Repulsion Energy =            470.0541009399375412
    One-Electron Energy =               -1458.4239943251434397
    Two-Electron Energy =                 599.9543896848991835
    DFT Exchange-Correlation Energy =       0.0000000000000000
    Empirical Dispersion Energy =           0.0000000000000000
    PCM Polarization Energy =               0.0000000000000000
    EFP Energy =                            0.0000000000000000
    Total Energy =                       -388.4155037003066582
    Molecular point group: c1
  Basis Set: CC-PVTZ
  Basis Set:

  -Total Gradient:
     Atom            X                  Y                   Z
    ------   -----------------  -----------------  -----------------
       1       -0.000003587826    -0.000008539113     0.000001449176
       2       -0.000024197038    -0.000001318747     0.000004248893
       3        0.000026598832     0.000021639473    -0.000039095157
       4       -0.000030528294    -0.000005183617     0.000038841315
       5        0.000002903327    -0.000000226136     0.000008691150
       6        0.000000954453    -0.000013740514    -0.000010523078
       7        0.000055755128    -0.000041986102    -0.000022807039
       8       -0.000003956795     0.000020240093     0.000019793135
       9        0.000006741639    -0.000002695953     0.000006515622
      10       -0.000060860223    -0.000074148569    -0.000070595119
      11       -0.000027719871    -0.000017817127     0.000022377913
      12        0.000008276414    -0.000004614260    -0.000016452714
      13        0.000024466715     0.000106271245     0.000118368535
      14        0.000000854929    -0.000004801655     0.000001316371
      15       -0.000006932050    -0.000012672521     0.000007627114
      16        0.000174185308     0.000056399067    -0.000028798673
      17        0.000008201734    -0.000013143016    -0.000008537896
      18        0.000008599131     0.000006285693    -0.000002819016
      19       -0.000007815743     0.000017916183     0.000016740111
      20       -0.000131451925    -0.000074680478    -0.000008797125
      21       -0.000013181528    -0.000001050223    -0.000005031948
      22       -0.000016401989     0.000012774161     0.000000781920
      23        0.000008262836     0.000031449002    -0.000033249510
      24        0.000010067967     0.000002895978    -0.000001663787
      25        0.000001331012     0.000000331280    -0.000006353581
      26       -0.000009848086     0.000005917273     0.000003421098
      27       -0.000000718055    -0.000005501418     0.000004552288

  **** Optimization is complete! (in 10 steps) ****
    Final optimized geometry and variables:
    Molecular point group: c1

    Geometry (in Angstrom), charge = 0, multiplicity = 1:

    H           -2.167465613425    -2.043739579350    -0.963549779801
    O           -2.383989373861    -2.476415359370    -0.158870773476
    C           -1.238705381469    -3.064660562740     0.399462960552
    C           -0.271293960463    -2.056380004991     1.001091016951
    H           -1.595745866240    -3.730402339533     1.173621932627
    H           -0.727444212715    -3.676629760712    -0.341082325196
    C            0.355980656711    -1.105427111156    -0.015485048782
    H           -0.795637074369    -1.485044476346     1.761164101557
    H            0.515000810079    -2.610078871814     1.508908191844
    C            1.388229550297    -0.165944701570     0.609079845157
    H           -0.423801494621    -0.528865164742    -0.499358984876
    H            0.842494130863    -1.685041690816    -0.797801398020
    C            2.038251343496     0.823748741821    -0.369222618846
    H            0.945200864643     0.359564334688     1.447724978912
    H            2.178169326899    -0.780130431806     1.031740877038
    C            1.310078205608     2.159151441598    -0.694491301919
    H            3.016635302363     1.075897908594     0.023149817390
    H            2.230718323220     0.293672510030    -1.296730942756
    C           -0.099150201063     2.386447575571    -0.145012507803
    H            1.269930602944     2.277478382705    -1.772718850009
    H            1.929060704947     2.976565127415    -0.338195899965
    C           -0.641564620569     3.760280733189    -0.529475382769
    H           -0.779094791819     1.627614507738    -0.513712351338
    H           -0.098769948534     2.300768028300     0.936003280973
    H           -0.690703515013     3.875294115408    -1.607251497312
    H           -1.640003301558     3.910811350537    -0.135219689085
    H           -0.010033345436     4.553211580745    -0.142813632320

  Mulliken Charges: (a.u.)
   Center  Symbol    Alpha    Beta     Spin     Total
       1     H     0.39220  0.39220  0.00000  0.21560
       2     O     4.20568  4.20568  0.00000 -0.41136
       3     C     2.97950  2.97950  0.00000  0.04100
       4     C     3.09018  3.09018  0.00000 -0.18036
       5     H     0.44875  0.44875  0.00000  0.10250
       6     H     0.46913  0.46913  0.00000  0.06174
       7     C     3.10143  3.10143  0.00000 -0.20286
       8     H     0.45074  0.45074  0.00000  0.09852
       9     H     0.45535  0.45535  0.00000  0.08930
      10     C     3.10823  3.10823  0.00000 -0.21646
      11     H     0.45577  0.45577  0.00000  0.08847
      12     H     0.45199  0.45199  0.00000  0.09601
      13     C     3.10689  3.10689  0.00000 -0.21378
      14     H     0.44807  0.44807  0.00000  0.10386
      15     H     0.44315  0.44315  0.00000  0.11369
      16     C     3.09026  3.09026  0.00000 -0.18052
      17     H     0.44382  0.44382  0.00000  0.11235
      18     H     0.45270  0.45270  0.00000  0.09460
      19     C     3.09357  3.09357  0.00000 -0.18713
      20     H     0.45123  0.45123  0.00000  0.09754
      21     H     0.45186  0.45186  0.00000  0.09627
      22     C     3.15145  3.15145  0.00000 -0.30290
      23     H     0.45076  0.45076  0.00000  0.09848
      24     H     0.45089  0.45089  0.00000  0.09822
      25     H     0.45510  0.45510  0.00000  0.08980
      26     H     0.44735  0.44735  0.00000  0.10531
      27     H     0.45395  0.45395  0.00000  0.09211

   Total alpha = 37.00000, Total beta = 37.00000, Total charge = -0.00000

*** Psi4 exiting successfully. Buy a developer a beer!
