  ==> Input File <==

--------------------------------------------------------------------------
set {
	reference rhf
	basis 6-31G*
}

set_num_threads( 4 )
memory 2 gb

molecule MOL {
0 1

H	 2.591676	 2.013956	 0.335017
O	 3.341076	 1.666752	 -0.126416
C	 3.569581	 0.339145	 0.272707
C	 2.539767	 -0.640285	 -0.279495
H	 4.553106	 0.084646	 -0.100901
H	 3.608576	 0.269204	 1.359154
C	 1.115811	 -0.397273	 0.226630
H	 2.556196	 -0.582511	 -1.364741
H	 2.852081	 -1.648031	 -0.010655
C	 0.115918	 -1.429151	 -0.302766
H	 0.797950	 0.599468	 -0.066350
H	 1.109961	 -0.420744	 1.316472
C	 -1.274972	 -0.871159	 -0.625890
H	 0.528301	 -1.904264	 -1.191054
H	 0.006725	 -2.217489	 0.439057
C	 -1.317526	 0.116126	 -1.795478
H	 -1.933916	 -1.706556	 -0.853312
H	 -1.686759	 -0.395464	 0.262920
C	 -2.738149	 0.563081	 -2.146900
H	 -0.859919	 -0.343703	 -2.670271
H	 -0.719864	 0.994868	 -1.565440
C	 -2.782936	 1.553571	 -3.309909
H	 -3.339414	 -0.309470	 -2.393116
H	 -3.200430	 1.014029	 -1.271213
H	 -2.356999	 1.120292	 -4.210503
H	 -3.802699	 1.849566	 -3.535975
H	 -2.220682	 2.454371	 -3.080141

	symmetry c1
}
set optking {
	frozen_dihedral = ("
		14 10 7 4
	")
}

ee = optimize('scf')
oeprop('DIPOLE', 'QUADRUPOLE', 'MULLIKEN_CHARGES')
f=open( 'psi4out.xyz', 'w' )
f.write( "27  " )
f.write( str(ee) + "\n" )
f.write( MOL.save_string_xyz() )
f.close()
--------------------------------------------------------------------------

    Molecular point group: c1
  Charge       = 0
  Multiplicity = 1
  Basis Set: 6-31G*
  Basis Set:
  @DF-RHF Final Energy:  -388.27761463104963
    Total Energy =                       -388.2776146310500280
    Molecular point group: c1
  Basis Set: 6-31G*
  Basis Set:
  Basis Set: 6-31G*
  Basis Set:
  @DF-RHF Final Energy:  -388.27787871768976
    Total Energy =                       -388.2778787176891910
  Basis Set: 6-31G*
  Basis Set:
  Basis Set: 6-31G*
  Basis Set:
  @DF-RHF Final Energy:  -388.27814315472108
    Total Energy =                       -388.2781431547202828
  Basis Set: 6-31G*
  Basis Set:
  Basis Set: 6-31G*
  Basis Set:
  @DF-RHF Final Energy:  -388.27815935447762
    Total Energy =                       -388.2781593544780208
  Basis Set: 6-31G*
  Basis Set:
  Basis Set: 6-31G*
  Basis Set:
  @DF-RHF Final Energy:  -388.27816912825307
    Total Energy =                       -388.2781691282534666
  Basis Set: 6-31G*
  Basis Set:
  Charge       = 0
  Multiplicity = 1
  Basis Set: 6-31G*
  Basis Set:

    Orbital Energies (a.u.)
    -----------------------

    Doubly Occupied:

       1A    -20.552364     2A    -11.266883     3A    -11.219643
       4A    -11.216870     5A    -11.215506     6A    -11.215440
       7A    -11.215192     8A    -11.213179     9A    -11.208198
      10A     -1.359041    11A     -1.093883    12A     -1.060301
      13A     -1.011011    14A     -0.947704    15A     -0.887410
      16A     -0.820777    17A     -0.798203    18A     -0.780845
      19A     -0.694647    20A     -0.646005    21A     -0.636321
      22A     -0.615154    23A     -0.605995    24A     -0.582489
      25A     -0.576177    26A     -0.553163    27A     -0.541383
      28A     -0.525874    29A     -0.505704    30A     -0.497398
      31A     -0.482002    32A     -0.473351    33A     -0.469601
      34A     -0.459802    35A     -0.450891    36A     -0.440211
      37A     -0.422827

  @DF-RHF Final Energy:  -388.27816966377941

   => Energetics <=

    Nuclear Repulsion Energy =            462.6271976563195949
    One-Electron Energy =               -1443.2878443835825237
    Two-Electron Energy =                 592.3824770634837478
    DFT Exchange-Correlation Energy =       0.0000000000000000
    Empirical Dispersion Energy =           0.0000000000000000
    PCM Polarization Energy =               0.0000000000000000
    EFP Energy =                            0.0000000000000000
    Total Energy =                       -388.2781696637791811
    Molecular point group: c1
  Basis Set: 6-31G*
  Basis Set:

  -Total Gradient:
     Atom            X                  Y                   Z
    ------   -----------------  -----------------  -----------------
       1       -0.000014464921    -0.000000785893     0.000000247021
       2        0.000000113708     0.000001721373     0.000000107567
       3        0.000014603579    -0.000009157806    -0.000017429939
       4       -0.000458021278     0.001618455761    -0.001995641650
       5        0.000008126533    -0.000001079573     0.000003933000
       6       -0.000007622721     0.000000855259    -0.000003200650
       7        0.001008349244    -0.002845529681     0.003249829620
       8       -0.000018338764    -0.000018516783    -0.000005611382
       9        0.000010541858     0.000010023321     0.000011662267
      10       -0.002103378583     0.003898498395    -0.003193575590
      11        0.000029381432     0.000021298094     0.000008616172
      12       -0.000018377812    -0.000009162261     0.000005576259
      13        0.000005346429    -0.000081959261    -0.000059694938
      14        0.001507420890    -0.002588376070     0.001935576153
      15       -0.000011090984    -0.000030434022    -0.000010516717
      16        0.000037038161     0.000036159901     0.000041835351
      17       -0.000021723514    -0.000018408014     0.000022240663
      18        0.000031743041     0.000020333142    -0.000026657683
      19       -0.000021012460    -0.000002699550     0.000008833349
      20        0.000001193107     0.000007368857     0.000013780000
      21        0.000018398017     0.000009899483     0.000013837909
      22        0.000004248929    -0.000017631107    -0.000003631363
      23       -0.000000801048    -0.000005823669     0.000017633409
      24       -0.000000296756     0.000016734778    -0.000013151256
      25       -0.000002509726     0.000000403435    -0.000009316312
      26        0.000000535674    -0.000005513512     0.000002632742
      27        0.000000597957    -0.000006674596     0.000002085997

  **** Optimization is complete! (in 6 steps) ****
    Final optimized geometry and variables:
    Molecular point group: c1

    Geometry (in Angstrom), charge = 0, multiplicity = 1:

    H            2.272207288561     1.843691885242     1.435758709981
    O            3.024953866801     1.542942348608     0.947802653039
    C            3.260703683286     0.186806151371     1.230491706708
    C            2.238590008091    -0.745848256434     0.591000769555
    H            4.247231810980    -0.028099859006     0.840255663374
    H            3.296138125516     0.022625801351     2.306840722755
    C            0.807229280430    -0.540138096431     1.093204087462
    H            2.263649883279    -0.604483708534    -0.486138563553
    H            2.549177310126    -1.771996142812     0.783277883150
    C           -0.194339787670    -1.557933134528     0.512855128015
    H            0.494233197383     0.466724610540     0.830363984538
    H            0.784718268502    -0.591162873820     2.180309432664
    C           -1.594065476517    -0.998240632320     0.237359014950
    H            0.213363835718    -1.999768937704    -0.393939877637
    H           -0.282882684188    -2.387396585016     1.210642815406
    C           -1.675891766531    -0.085802186030    -0.989351714478
    H           -2.282905966783    -1.828477314660     0.097591621171
    H           -1.944416101492    -0.460015457317     1.116967363234
    C           -3.080089437063     0.473152651832    -1.228137520205
    H           -1.358698098245    -0.645254058934    -1.867914661624
    H           -0.977740018302     0.742293445486    -0.889923676265
    C           -3.166845064289     1.361161997307    -2.468926183066
    H           -3.784176560783    -0.350704472445    -1.324422044142
    H           -3.394418645233     1.041577985645    -0.355244875309
    H           -2.893394606587     0.810773231724    -3.364728571859
    H           -4.173237682137     1.743166591224    -2.610063977085
    H           -2.497780832434     2.213326230733    -2.389066261787

  Mulliken Charges: (a.u.)
   Center  Symbol    Alpha    Beta     Spin     Total
       1     H     0.27982  0.27982  0.00000  0.44036
       2     O     4.37102  4.37102  0.00000 -0.74204
       3     C     2.99788  2.99788  0.00000  0.00425
       4     C     3.16271  3.16271  0.00000 -0.32543
       5     H     0.41444  0.41444  0.00000  0.17113
       6     H     0.43195  0.43195  0.00000  0.13610
       7     C     3.16431  3.16431  0.00000 -0.32861
       8     H     0.41452  0.41452  0.00000  0.17095
       9     H     0.42408  0.42408  0.00000  0.15183
      10     C     3.15519  3.15519  0.00000 -0.31039
      11     H     0.42300  0.42300  0.00000  0.15401
      12     H     0.42301  0.42301  0.00000  0.15399
      13     C     3.15487  3.15487  0.00000 -0.30975
      14     H     0.42007  0.42007  0.00000  0.15985
      15     H     0.41987  0.41987  0.00000  0.16027
      16     C     3.15234  3.15234  0.00000 -0.30468
      17     H     0.42149  0.42149  0.00000  0.15702
      18     H     0.42431  0.42431  0.00000  0.15138
      19     C     3.15120  3.15120  0.00000 -0.30241
      20     H     0.42358  0.42358  0.00000  0.15284
      21     H     0.42188  0.42188  0.00000  0.15625
      22     C     3.23928  3.23928  0.00000 -0.47855
      23     H     0.42316  0.42316  0.00000  0.15368
      24     H     0.42361  0.42361  0.00000  0.15278
      25     H     0.42152  0.42152  0.00000  0.15696
      26     H     0.41950  0.41950  0.00000  0.16100
      27     H     0.42141  0.42141  0.00000  0.15719

   Total alpha = 37.00000, Total beta = 37.00000, Total charge =  0.00000
