  ==> Input File <==

--------------------------------------------------------------------------
set {
	reference rhf
	basis 6-31G*
}

set_num_threads( 1 )
memory 2 gb

molecule MOL {
0 1

H	 1.136379	 0.211822	 1.465562
C	 1.135357	 0.094285	 0.374742
C	 0.065331	 0.871482	 -0.349150
O	 1.941633	 -0.601957	 -0.151457
C	 0.229543	 2.388971	 -0.182585
H	 -0.901626	 0.535839	 0.007574
H	 0.140450	 0.616207	 -1.405252
C	 0.002379	 2.867696	 1.251863
H	 -0.471813	 2.885861	 -0.845315
H	 1.222376	 2.683765	 -0.515781
H	 -0.996691	 2.613837	 1.592364
H	 0.115141	 3.944592	 1.321843
H	 0.707988	 2.416877	 1.943432

	symmetry c1
}
set optking {
	frozen_dihedral = ("
		6 3 5 9
	")
}

ee = energy('scf')
oeprop('DIPOLE', 'QUADRUPOLE', 'MULLIKEN_CHARGES')
f=open( 'psi4out.xyz', 'w' )
f.write( "13  " )
f.write( str(ee) + "\n" )
f.write( MOL.save_string_xyz() )
f.close()
--------------------------------------------------------------------------

    Molecular point group: c1

    Geometry (in Angstrom), charge = 0, multiplicity = 1:

       Center              X                  Y                   Z               Mass
    ------------   -----------------  -----------------  -----------------  -----------------
           H          0.453490765942    -0.913310391673     1.266995382810     1.007825032070
           C          0.452468765942    -1.030847391673     0.176175382810    12.000000000000
           C         -0.617557234058    -0.253650391673    -0.547716617190    12.000000000000
           O          1.258744765942    -1.727089391673    -0.350023617190    15.994914619560
           C         -0.453345234058     1.263838608327    -0.381151617190    12.000000000000
           H         -1.584514234058    -0.589293391673    -0.190992617190     1.007825032070
           H         -0.542438234058    -0.508925391673    -1.603818617190     1.007825032070
           C         -0.680509234058     1.742563608327     1.053296382810    12.000000000000
           H         -1.154701234058     1.760728608327    -1.043881617190     1.007825032070
           H          0.539487765942     1.558632608327    -0.714347617190     1.007825032070
           H         -1.679579234058     1.488704608327     1.393797382810     1.007825032070
           H         -0.567747234058     2.819459608327     1.123276382810     1.007825032070
           H          0.025099765942     1.291744608327     1.744865382810     1.007825032070

  Charge       = 0
  Multiplicity = 1
  Basis Set: 6-31G*
  Basis Set:

    Orbital Energies (a.u.)
    -----------------------

    Doubly Occupied:

       1A    -20.563255     2A    -11.326307     3A    -11.239307
       4A    -11.235271     5A    -11.225381     6A     -1.402835
       7A     -1.087814     8A     -0.973277     9A     -0.854997
      10A     -0.781641    11A     -0.678205    12A     -0.648564
      13A     -0.604185    14A     -0.601705    15A     -0.575298
      16A     -0.531684    17A     -0.507354    18A     -0.493667
      19A     -0.484117    20A     -0.408029

  @DF-RHF Final Energy:  -230.98243414100509

   => Energetics <=

    Nuclear Repulsion Energy =            173.1700862433824284
    One-Electron Energy =                -655.8591850250687685
    Two-Electron Energy =                 251.7066646406818791
    DFT Exchange-Correlation Energy =       0.0000000000000000
    Empirical Dispersion Energy =           0.0000000000000000
    PCM Polarization Energy =               0.0000000000000000
    EFP Energy =                            0.0000000000000000
    Total Energy =                       -230.9824341410044326

  Mulliken Charges: (a.u.)
   Center  Symbol    Alpha    Beta     Spin     Total
       1     H     0.43125  0.43125  0.00000  0.13750
       2     C     2.83166  2.83166  0.00000  0.33668
       3     C     3.20876  3.20876  0.00000 -0.41751
       4     O     4.23684  4.23684  0.00000 -0.47368
       5     C     3.16428  3.16428  0.00000 -0.32856
       6     H     0.40948  0.40948  0.00000  0.18104
       7     H     0.39946  0.39946  0.00000  0.20107
       8     C     3.24536  3.24536  0.00000 -0.49073
       9     H     0.41098  0.41098  0.00000  0.17804
      10     H     0.41124  0.41124  0.00000  0.17752
      11     H     0.41857  0.41857  0.00000  0.16285
      12     H     0.41314  0.41314  0.00000  0.17373
      13     H     0.41898  0.41898  0.00000  0.16204

   Total alpha = 20.00000, Total beta = 20.00000, Total charge = -0.00000
