  ==> Input File <==

--------------------------------------------------------------------------
set {
	reference rhf
	basis 6-31G*
}

set_num_threads( 4 )
memory 2 gb

molecule MOL {
0 1

H	 -0.490322	 -1.639574	 -0.154789
N	 -0.626943	 -0.667432	 -0.000092
C	 -1.979713	 -0.158776	 0.000050
C	 0.462941	 0.112159	 0.201298
H	 -2.520245	 -0.492427	 -0.879443
H	 -1.934741	 0.918111	 -0.004428
H	 -2.517790	 -0.485056	 0.883818
C	 1.783894	 -0.629686	 0.159654
O	 0.398610	 1.294443	 0.396949
H	 1.925982	 -1.104368	 -0.806184
H	 2.584801	 0.073239	 0.333269
H	 1.813407	 -1.402948	 0.920923

	symmetry c1
}
set optking {
	frozen_dihedral = ("
		4 2 3 5
	")
}

ee = optimize('scf')
oeprop('DIPOLE', 'QUADRUPOLE', 'MULLIKEN_CHARGES')
f=open( 'psi4out.xyz', 'w' )
f.write( "12  " )
f.write( str(ee) + "\n" )
f.write( MOL.save_string_xyz() )
f.close()
--------------------------------------------------------------------------

    Molecular point group: c1
  Charge       = 0
  Multiplicity = 1
  Basis Set: 6-31G*
  Basis Set:
  @DF-RHF Final Energy:  -247.00544995154058
    Total Energy =                       -247.0054499515405269
    Molecular point group: c1
  Basis Set: 6-31G*
  Basis Set:
  Basis Set: 6-31G*
  Basis Set:
  @DF-RHF Final Energy:  -247.00547768833195
    Total Energy =                       -247.0054776883321210
  Basis Set: 6-31G*
  Basis Set:
  Basis Set: 6-31G*
  Basis Set:
  @DF-RHF Final Energy:  -247.00548408493231
    Total Energy =                       -247.0054840849322773
  Basis Set: 6-31G*
  Basis Set:
  Basis Set: 6-31G*
  Basis Set:
  @DF-RHF Final Energy:  -247.00548087616468
    Total Energy =                       -247.0054808761647109
  Basis Set: 6-31G*
  Basis Set:
  Basis Set: 6-31G*
  Basis Set:
  @DF-RHF Final Energy:  -247.00549259155412
    Total Energy =                       -247.0054925915540025
  Basis Set: 6-31G*
  Basis Set:
  Charge       = 0
  Multiplicity = 1
  Basis Set: 6-31G*
  Basis Set:

    Orbital Energies (a.u.)
    -----------------------

    Doubly Occupied:

       1A    -20.515955     2A    -15.581238     3A    -11.343125
       4A    -11.253712     5A    -11.229687     6A     -1.384198
       7A     -1.228022     8A     -1.015695     9A     -0.931544
      10A     -0.786395    11A     -0.689167    12A     -0.648032
      13A     -0.632215    14A     -0.585882    15A     -0.579682
      16A     -0.554626    17A     -0.544025    18A     -0.507472
      19A     -0.412927    20A     -0.384208

  @DF-RHF Final Energy:  -247.00549299978678

   => Energetics <=

    Nuclear Repulsion Energy =            181.2732450666471777
    One-Electron Energy =                -694.9418629610861444
    Two-Electron Energy =                 266.6631248946522419
    DFT Exchange-Correlation Energy =       0.0000000000000000
    Empirical Dispersion Energy =           0.0000000000000000
    PCM Polarization Energy =               0.0000000000000000
    EFP Energy =                            0.0000000000000000
    Total Energy =                       -247.0054929997867248
    Molecular point group: c1
  Basis Set: 6-31G*
  Basis Set:

  -Total Gradient:
     Atom            X                  Y                   Z
    ------   -----------------  -----------------  -----------------
       1       -0.000012083562    -0.000001630355     0.000013405083
       2        0.000014147488     0.000005036590     0.000126572335
       3       -0.000054150154    -0.000125721449    -0.000000054193
       4       -0.000001429080     0.000003076278    -0.000099140705
       5        0.000037577278     0.000095694527    -0.000050230586
       6        0.000008582840    -0.000004765199     0.000005464527
       7       -0.000000082043     0.000004043505     0.000005848847
       8       -0.000006164375     0.000002240285     0.000043078562
       9        0.000012509388     0.000018223471    -0.000016984230
      10       -0.000009961925     0.000018226461    -0.000012357964
      11        0.000001014648    -0.000000121196     0.000002586501
      12        0.000010039497    -0.000014302920    -0.000018188179

  **** Optimization is complete! (in 6 steps) ****
    Final optimized geometry and variables:
    Molecular point group: c1

    Geometry (in Angstrom), charge = 0, multiplicity = 1:

    H           -0.487405676505    -1.630609230658    -0.284889371945
    N           -0.621109899843    -0.653158743268    -0.165043070957
    C           -1.974340943036    -0.146029328871    -0.143940632484
    C            0.467662439873     0.124505302345     0.049832882853
    H           -2.511449125484    -0.462510328829    -1.031024452604
    H           -1.931654584587     0.930885423201    -0.125004524095
    H           -2.514398541164    -0.490322075363     0.732405824179
    C            1.788713565942    -0.617478122525     0.015300173081
    O            0.401876629384     1.306446631705     0.246860727046
    H            1.929907374602    -1.104428826230    -0.944422963309
    H            2.589687297971     0.087449777687     0.180160048056
    H            1.819014840409    -1.381015372883     0.786431109273

  Mulliken Charges: (a.u.)
   Center  Symbol    Alpha    Beta     Spin     Total
       1     H     0.31108  0.31108  0.00000  0.37784
       2     N     3.89147  3.89147  0.00000 -0.78293
       3     C     3.14196  3.14196  0.00000 -0.28391
       4     C     2.63074  2.63074  0.00000  0.73852
       5     H     0.41669  0.41669  0.00000  0.16662
       6     H     0.38624  0.38624  0.00000  0.22752
       7     H     0.41660  0.41660  0.00000  0.16680
       8     C     3.29523  3.29523  0.00000 -0.59047
       9     O     4.30237  4.30237  0.00000 -0.60474
      10     H     0.40761  0.40761  0.00000  0.18477
      11     H     0.39184  0.39184  0.00000  0.21632
      12     H     0.40817  0.40817  0.00000  0.18366

   Total alpha = 20.00000, Total beta = 20.00000, Total charge =  0.00000
