  ==> Input File <==

--------------------------------------------------------------------------
set {
	reference rhf
	basis cc-pvtz
}

set_num_threads( 4 )
memory 2 gb

molecule MOL {
0 1

O	 2.551119	 1.843716	 0.460427
C	 1.861808	 1.679704	 1.413349
C	 0.596667	 0.847300	 1.364848
C	 2.205547	 2.297020	 2.750132
C	 0.288398	 0.247429	 0.000314
H	 0.689205	 0.067000	 2.116937
H	 -0.222924	 1.477337	 1.702977
C	 -0.993089	 -0.581367	 -0.000217
H	 1.124325	 -0.366397	 -0.315216
H	 0.211524	 1.045237	 -0.729567
C	 -2.258482	 0.271340	 0.000669
H	 -1.002280	 -1.233920	 -0.870484
H	 -1.002061	 -1.235367	 0.868958
C	 -3.544441	 -0.550271	 -0.000253
H	 -2.250545	 0.925250	 -0.867923
H	 -2.250598	 0.923423	 0.870642
C	 -4.804551	 0.308747	 0.000556
H	 -3.553737	 -1.201524	 -0.870151
H	 -3.553831	 -1.203282	 0.868313
H	 -4.842050	 0.949078	 -0.874436
H	 -5.698404	 -0.304480	 -0.000254
H	 -4.842277	 0.947103	 0.876982
H	 2.321188	 1.523078	 3.500925
H	 3.120609	 2.862926	 2.667650
H	 1.402520	 2.947383	 3.079098

	symmetry c1
}
set optking {
	frozen_dihedral = ("
		9 5 8 12
	")
}

ee = optimize('scf')
oeprop('DIPOLE', 'QUADRUPOLE', 'MULLIKEN_CHARGES')
f=open( 'psi4out.xyz', 'w' )
f.write( "25  " )
f.write( str(ee) + "\n" )
f.write( MOL.save_string_xyz() )
f.close()
--------------------------------------------------------------------------

    Molecular point group: c1
  Charge       = 0
  Multiplicity = 1
  Basis Set: CC-PVTZ
  Basis Set:
  @DF-RHF Final Energy:  -387.27229581339060
    Total Energy =                       -387.2722958133903148
    Molecular point group: c1
  Basis Set: CC-PVTZ
  Basis Set:
  Basis Set: CC-PVTZ
  Basis Set:
  @DF-RHF Final Energy:  -387.27256542574577
    Total Energy =                       -387.2725654257462793
  Basis Set: CC-PVTZ
  Basis Set:
  Basis Set: CC-PVTZ
  Basis Set:
  @DF-RHF Final Energy:  -387.27241641308126
    Total Energy =                       -387.2724164130810323
  Basis Set: CC-PVTZ
  Basis Set:
  Basis Set: CC-PVTZ
  Basis Set:
  @DF-RHF Final Energy:  -387.27261264699678
    Total Energy =                       -387.2726126469965493
  Basis Set: CC-PVTZ
  Basis Set:
  Basis Set: CC-PVTZ
  Basis Set:
  @DF-RHF Final Energy:  -387.27261382354232
    Total Energy =                       -387.2726138235425424
  Basis Set: CC-PVTZ
  Basis Set:
  Charge       = 0
  Multiplicity = 1
  Basis Set: CC-PVTZ
  Basis Set:

    Orbital Energies (a.u.)
    -----------------------

    Doubly Occupied:

       1A    -20.538815     2A    -11.320487     3A    -11.229891
       4A    -11.226566     5A    -11.215387     6A    -11.215213
       7A    -11.214769     8A    -11.213887     9A    -11.208404
      10A     -1.398893    11A     -1.095777    12A     -1.057299
      13A     -1.015567    14A     -0.969326    15A     -0.897407
      16A     -0.816386    17A     -0.789268    18A     -0.732878
      19A     -0.660931    20A     -0.648005    21A     -0.641422
      22A     -0.623493    23A     -0.598982    24A     -0.578057
      25A     -0.570272    26A     -0.567876    27A     -0.543266
      28A     -0.528124    29A     -0.517520    30A     -0.495434
      31A     -0.488485    32A     -0.478289    33A     -0.464092
      34A     -0.460094    35A     -0.448025    36A     -0.402591

  @DF-RHF Final Energy:  -387.27261423718221

   => Energetics <=

    Nuclear Repulsion Energy =            444.6263807592066541
    One-Electron Energy =               -1406.0556392255437004
    Two-Electron Energy =                 574.1566442291554040
    DFT Exchange-Correlation Energy =       0.0000000000000000
    Empirical Dispersion Energy =           0.0000000000000000
    PCM Polarization Energy =               0.0000000000000000
    EFP Energy =                            0.0000000000000000
    Total Energy =                       -387.2726142371816422
    Molecular point group: c1
  Basis Set: CC-PVTZ
  Basis Set:

  -Total Gradient:
     Atom            X                  Y                   Z
    ------   -----------------  -----------------  -----------------
       1        0.000001988463     0.000001285141    -0.000001049374
       2       -0.000002246601    -0.000002728363    -0.000002591895
       3       -0.000004940777     0.000002785802    -0.000006460994
       4        0.000005576704    -0.000000761466     0.000001412165
       5        0.000480967401    -0.000804950960     0.002107912199
       6        0.000000194921    -0.000005173867    -0.000004814866
       7       -0.000002250076    -0.000002312613     0.000000196251
       8       -0.000953057590     0.001529672278    -0.001429443040
       9       -0.000260341301     0.000428578561    -0.001536909371
      10       -0.000004483550     0.000002397909    -0.000001566770
      11        0.000010303692    -0.000006940444    -0.000015594863
      12        0.000716865806    -0.001153591502     0.000857038881
      13        0.000009270893     0.000004922040     0.000010993555
      14        0.000011555721    -0.000003679925    -0.000011155880
      15        0.000004455134     0.000015126159     0.000007825591
      16        0.000000283123    -0.000013115918     0.000010271621
      17       -0.000009489661    -0.000000464307    -0.000002496409
      18        0.000004960472    -0.000006541226     0.000007636259
      19       -0.000003900109     0.000008829137     0.000004629776
      20        0.000003690945    -0.000001332173     0.000002294599
      21       -0.000003417774     0.000001758430    -0.000000803162
      22       -0.000002854843     0.000000456411     0.000001845639
      23       -0.000002642589     0.000001895981     0.000000422018
      24        0.000000059130     0.000000669381     0.000000377240
      25       -0.000000547534     0.000003215536     0.000000030830

  **** Optimization is complete! (in 6 steps) ****
    Final optimized geometry and variables:
    Molecular point group: c1

    Geometry (in Angstrom), charge = 0, multiplicity = 1:

    O            3.044829655781     1.093006679125    -0.217225179932
    C            2.360698842975     0.957933144939     0.743821568142
    C            1.068950015831     0.165735966775     0.716148799192
    C            2.737791086419     1.574565704412     2.072102592668
    C            0.740317784298    -0.447513489326    -0.638775908658
    H            1.143621131688    -0.607279486267     1.477759884544
    H            0.277560196113     0.828868279202     1.053900745885
    C           -0.554574827948    -1.264042758633    -0.651684851993
    H            1.566107705454    -1.074982613962    -0.950554801564
    H            0.681917222309     0.341000904034    -1.380986693594
    C           -1.835352496821    -0.432416931289    -0.653624094864
    H           -0.548194012575    -1.905842024640    -1.527464555646
    H           -0.565204312515    -1.937674038631     0.202945853489
    C           -3.103077144645    -1.281437648783    -0.694983948138
    H           -1.823872362078     0.235511007018    -1.511547971515
    H           -1.868544642176     0.204409337434     0.226413071888
    C           -4.381785626610    -0.450507282467    -0.708462723063
    H           -3.078528662961    -1.918472688026    -1.574757583374
    H           -3.116450145979    -1.948515666349     0.162737357126
    H           -4.414417886982     0.203322611296    -1.573607878712
    H           -5.261314309241    -1.083273745347    -0.739417350380
    H           -4.453938130824     0.172069453506     0.177313387403
    H            2.836773974174     0.803237021225     2.827912706057
    H            3.669448943229     2.110477295268     1.975749099928
    H            1.959325163575     2.252808410837     2.403822739236

  Mulliken Charges: (a.u.)
   Center  Symbol    Alpha    Beta     Spin     Total
       1     O     4.17090  4.17090  0.00000 -0.34181
       2     C     2.86086  2.86086  0.00000  0.27828
       3     C     3.11088  3.11088  0.00000 -0.22175
       4     C     3.15067  3.15067  0.00000 -0.30133
       5     C     3.09336  3.09336  0.00000 -0.18673
       6     H     0.44555  0.44555  0.00000  0.10891
       7     H     0.44562  0.44562  0.00000  0.10876
       8     C     3.10124  3.10124  0.00000 -0.20248
       9     H     0.44006  0.44006  0.00000  0.11987
      10     H     0.44638  0.44638  0.00000  0.10724
      11     C     3.08668  3.08668  0.00000 -0.17336
      12     H     0.44513  0.44513  0.00000  0.10974
      13     H     0.45623  0.45623  0.00000  0.08754
      14     C     3.08432  3.08432  0.00000 -0.16864
      15     H     0.45290  0.45290  0.00000  0.09420
      16     H     0.45678  0.45678  0.00000  0.08644
      17     C     3.14964  3.14964  0.00000 -0.29927
      18     H     0.45329  0.45329  0.00000  0.09343
      19     H     0.45468  0.45468  0.00000  0.09064
      20     H     0.45453  0.45453  0.00000  0.09095
      21     H     0.44806  0.44806  0.00000  0.10388
      22     H     0.45601  0.45601  0.00000  0.08797
      23     H     0.45037  0.45037  0.00000  0.09927
      24     H     0.43531  0.43531  0.00000  0.12938
      25     H     0.45056  0.45056  0.00000  0.09887

   Total alpha = 36.00000, Total beta = 36.00000, Total charge =  0.00000
