                              Psi4 1.0.54 Driver

  ==> Input File <==

--------------------------------------------------------------------------
set {
	reference rhf
	basis cc-pvtz
}

set_num_threads( 4 )
memory 2 gb

molecule MOL {
0 1

H	 -3.796542	 1.192465	 -0.964969
O	 -3.458596	 0.315260	 -0.960865
C	 -3.176635	 -0.080824	 0.355601
C	 -1.763371	 0.265266	 0.799691
H	 -3.321825	 -1.153438	 0.379502
H	 -3.895468	 0.357385	 1.043382
C	 -0.673390	 -0.426948	 -0.013392
H	 -1.631049	 1.344913	 0.747560
H	 -1.664587	 -0.001624	 1.849167
C	 0.737842	 -0.043159	 0.423759
H	 -0.806103	 -0.190518	 -1.063345
H	 -0.797221	 -1.503753	 0.074146
C	 1.824000	 -0.743224	 -0.390623
H	 0.850588	 1.033777	 0.343840
H	 0.868587	 -0.286314	 1.476203
C	 3.255957	 -0.453067	 0.062319
H	 1.718250	 -0.470599	 -1.438164
H	 1.658105	 -1.815850	 -0.339904
C	 3.707029	 0.992337	 -0.133857
H	 3.928201	 -1.104096	 -0.488158
H	 3.362667	 -0.724561	 1.109374
H	 3.605811	 1.294044	 -1.171549
H	 4.748333	 1.111029	 0.143343
H	 3.129882	 1.683078	 0.468956

	symmetry c1
}
set optking {
	frozen_dihedral = ("
		1 2 3 5
	")
}

ee,wfn = optimize('scf', return_wfn=True)
oeprop( wfn, 'DIPOLE', 'QUADRUPOLE', 'MULLIKEN_CHARGES')
f=open( 'psi4out.xyz', 'w' )
f.write( "24  " )
f.write( str(ee) + "\n" )
f.write( MOL.save_string_xyz() )
f.close()
--------------------------------------------------------------------------

    Molecular point group: c1
  Charge       = 0
  Multiplicity = 1
  Basis Set: CC-PVTZ
  Basis Set:
  @DF-RHF Final Energy:  -349.37978126979704
    Total Energy =                       -349.3797812697968084
    Molecular point group: c1
  Basis Set: CC-PVTZ
  Basis Set:
  Basis Set: CC-PVTZ
  Basis Set:
  @DF-RHF Final Energy:  -349.37982516845801
    Total Energy =                       -349.3798251684578986
  Basis Set: CC-PVTZ
  Basis Set:
  Basis Set: CC-PVTZ
  Basis Set:
  @DF-RHF Final Energy:  -349.37983794243235
    Total Energy =                       -349.3798379424323457
  Basis Set: CC-PVTZ
  Basis Set:
  Charge       = 0
  Multiplicity = 1
  Basis Set: CC-PVTZ
  Basis Set:

    Orbital Energies (a.u.)
    -----------------------

    Doubly Occupied:

       1A    -20.545869     2A    -11.265910     3A    -11.212178
       4A    -11.210820     5A    -11.208289     6A    -11.207681
       7A    -11.206372     8A    -11.204086     9A     -1.363494
      10A     -1.088051    11A     -1.048097    12A     -0.985699
      13A     -0.914602    14A     -0.848579    15A     -0.797913
      16A     -0.774969    17A     -0.691715    18A     -0.652758
      19A     -0.625140    20A     -0.616701    21A     -0.590651
      22A     -0.584214    23A     -0.558501    24A     -0.540265
      25A     -0.517859    26A     -0.506346    27A     -0.497955
      28A     -0.475593    29A     -0.468387    30A     -0.455508
      31A     -0.455200    32A     -0.447198    33A     -0.421425

  @DF-RHF Final Energy:  -349.37983807852140

   => Energetics <=

    Nuclear Repulsion Energy =            384.7622482065472695
    One-Electron Energy =               -1236.3081219629507359
    Two-Electron Energy =                 502.1660356778814958
    DFT Exchange-Correlation Energy =       0.0000000000000000
    Empirical Dispersion Energy =           0.0000000000000000
    PCM Polarization Energy =               0.0000000000000000
    EFP Energy =                            0.0000000000000000
    Total Energy =                       -349.3798380785219706
    Molecular point group: c1
  Basis Set: CC-PVTZ
  Basis Set:

  -Total Gradient:
     Atom            X                  Y                   Z
    ------   -----------------  -----------------  -----------------
       1       -0.001299110128    -0.000488066249     0.000117012926
       2        0.001336131429     0.000641101481    -0.000036529934
       3        0.001097011241    -0.000325768806    -0.000385977091
       4        0.000024526015    -0.000004802366     0.000010311155
       5       -0.001138559784     0.000166023828     0.000299335395
       6       -0.000003496325     0.000009249929    -0.000015275488
       7       -0.000012346482     0.000015313662     0.000005906221
       8        0.000003603399    -0.000012485088    -0.000004288162
       9       -0.000003313058    -0.000002143329     0.000021415444
      10        0.000002590259     0.000013001246    -0.000004667843
      11        0.000004552192    -0.000008579947    -0.000007682776
      12       -0.000000327563    -0.000000069796    -0.000001636153
      13       -0.000005204843    -0.000010264405     0.000004250172
      14        0.000010940737     0.000015401844     0.000005249244
      15       -0.000003151836    -0.000003246987    -0.000006790087
      16        0.000002292193    -0.000002608715    -0.000008692905
      17        0.000001559565    -0.000004158680     0.000001157901
      18       -0.000002602151    -0.000001423978     0.000003245153
      19       -0.000006261081     0.000000956694     0.000003041601
      20       -0.000001423836     0.000002367818    -0.000003355712
      21        0.000002171880    -0.000003390064    -0.000001967353
      22        0.000002124061    -0.000002632669     0.000001615971
      23       -0.000000769507     0.000001365595     0.000003365710
      24       -0.000010936370     0.000004858980     0.000000956610

  **** Optimization is complete! (in 4 steps) ****
    Final optimized geometry and variables:
    Molecular point group: c1

    Geometry (in Angstrom), charge = 0, multiplicity = 1:

    H           -3.769062148657     1.203275123904    -0.957309281267
    O           -3.443481340947     0.322907626933    -0.946775562049
    C           -3.171414911674    -0.076322114488     0.372996910041
    C           -1.757260644784     0.267153534471     0.813734444435
    H           -3.328615988147    -1.147717271760     0.409703545141
    H           -3.887986635682     0.370054412398     1.056933926902
    C           -0.674454841914    -0.424590619789    -0.008796180810
    H           -1.625095986966     1.345690772850     0.760897973025
    H           -1.653405899294    -0.005348871567     1.861699230811
    C            0.740419466352    -0.045801827823     0.420803351790
    H           -0.814725704920    -0.181243036266    -1.056019334808
    H           -0.799698524433    -1.501754864010     0.074912048148
    C            1.819909156448    -0.744991706066    -0.403170302181
    H            0.854673359749     1.031138677028     0.343995050668
    H            0.877622775209    -0.293127482328     1.471538996958
    C            3.255490100824    -0.458172011812     0.040470687896
    H            1.707098227543    -0.469143267124    -1.449112777988
    H            1.652940672884    -1.817582068714    -0.354474873675
    C            3.706279228467     0.987846727596    -0.152029364462
    H            3.923230917941    -1.106998288787    -0.518108220134
    H            3.369833400016    -0.734821194529     1.085402781988
    H            3.596667912697     1.294958862157    -1.187270505864
    H            4.749970543817     1.104321640846     0.117156837868
    H            3.134625552800     1.675946266771     0.458953865870

  Mulliken Charges: (a.u.)
   Center  Symbol    Alpha    Beta     Spin     Total
       1     H     0.39415  0.39415  0.00000  0.21170
       2     O     4.20453  4.20453  0.00000 -0.40906
       3     C     2.98185  2.98185  0.00000  0.03629
       4     C     3.09035  3.09035  0.00000 -0.18069
       5     H     0.46003  0.46003  0.00000  0.07993
       6     H     0.46073  0.46073  0.00000  0.07853
       7     C     3.08944  3.08944  0.00000 -0.17887
       8     H     0.46015  0.46015  0.00000  0.07970
       9     H     0.45599  0.45599  0.00000  0.08802
      10     C     3.09131  3.09131  0.00000 -0.18261
      11     H     0.44491  0.44491  0.00000  0.11017
      12     H     0.45597  0.45597  0.00000  0.08807
      13     C     3.09438  3.09438  0.00000 -0.18877
      14     H     0.45318  0.45318  0.00000  0.09365
      15     H     0.45673  0.45673  0.00000  0.08654
      16     C     3.09013  3.09013  0.00000 -0.18026
      17     H     0.45353  0.45353  0.00000  0.09293
      18     H     0.45004  0.45004  0.00000  0.09991
      19     C     3.15247  3.15247  0.00000 -0.30493
      20     H     0.44881  0.44881  0.00000  0.10237
      21     H     0.45542  0.45542  0.00000  0.08915
      22     H     0.45482  0.45482  0.00000  0.09035
      23     H     0.44688  0.44688  0.00000  0.10625
      24     H     0.45418  0.45418  0.00000  0.09164

   Total alpha = 33.00000, Total beta = 33.00000, Total charge = -0.00000

*** Psi4 exiting successfully. Buy a developer a beer!
