                              Psi4 1.0.54 Driver

  ==> Input File <==

--------------------------------------------------------------------------
set {
	reference rhf
	basis cc-pvtz
}

set_num_threads( 4 )
memory 2 gb

molecule MOL {
0 1

O	 3.219313	 0.959291	 -0.614106
C	 2.698710	 0.058177	 -0.050237
C	 1.246364	 -0.005813	 0.348416
O	 3.344101	 -1.038700	 0.312317
C	 0.453207	 1.232821	 -0.049003
H	 0.839270	 -0.907818	 -0.092281
H	 1.216683	 -0.160521	 1.422434
C	 -0.998367	 1.217982	 0.432195
H	 0.481498	 1.345443	 -1.127236
H	 0.951413	 2.105557	 0.354893
C	 -1.882951	 0.151251	 -0.211235
H	 -1.429490	 2.193659	 0.228843
H	 -1.019755	 1.099323	 1.513279
C	 -3.342450	 0.243269	 0.226009
H	 -1.826223	 0.246578	 -1.293162
H	 -1.508033	 -0.839650	 0.027695
C	 -4.303329	 -0.490244	 -0.705359
H	 -3.633191	 1.289190	 0.288123
H	 -3.442198	 -0.159222	 1.231453
C	 -5.759502	 -0.392220	 -0.262949
H	 -4.204951	 -0.089016	 -1.710376
H	 -4.015788	 -1.536406	 -0.766352
H	 -6.414087	 -0.923017	 -0.944680
H	 -6.088506	 0.640979	 -0.225996
H	 -5.897580	 -0.816934	 0.725869
C	 4.720529	 -1.114346	 0.001449
H	 4.874321	 -1.055557	 -1.065852
H	 5.057824	 -2.067950	 0.373977
H	 5.264321	 -0.313596	 0.480350

	symmetry c1
}
set optking {
	frozen_dihedral = ("
		17 14 11 15
	")
}

ee,wfn = optimize('scf', return_wfn=True)
oeprop( wfn, 'DIPOLE', 'QUADRUPOLE', 'MULLIKEN_CHARGES')
f=open( 'psi4out.xyz', 'w' )
f.write( "29  " )
f.write( str(ee) + "\n" )
f.write( MOL.save_string_xyz() )
f.close()
--------------------------------------------------------------------------

    Molecular point group: c1
  Charge       = 0
  Multiplicity = 1
  Basis Set: CC-PVTZ
  Basis Set:
  @DF-RHF Final Energy:  -501.22375988331828
    Total Energy =                       -501.2237598833189622
    Molecular point group: c1
  Basis Set: CC-PVTZ
  Basis Set:
  Basis Set: CC-PVTZ
  Basis Set:
  @DF-RHF Final Energy:  -501.22369144202378
    Total Energy =                       -501.2236914420235507
  Basis Set: CC-PVTZ
  Basis Set:
  Basis Set: CC-PVTZ
  Basis Set:
  @DF-RHF Final Energy:  -501.22390838484807
    Total Energy =                       -501.2239083848484142
  Basis Set: CC-PVTZ
  Basis Set:
  Basis Set: CC-PVTZ
  Basis Set:
  @DF-RHF Final Energy:  -501.22378251687860
    Total Energy =                       -501.2237825168782592
  Basis Set: CC-PVTZ
  Basis Set:
  Basis Set: CC-PVTZ
  Basis Set:
  @DF-RHF Final Energy:  -501.22391918463802
    Total Energy =                       -501.2239191846377935
  Basis Set: CC-PVTZ
  Basis Set:
  Charge       = 0
  Multiplicity = 1
  Basis Set: CC-PVTZ
  Basis Set:

    Orbital Energies (a.u.)
    -----------------------

    Doubly Occupied:

       1A    -20.596026     2A    -20.533876     3A    -11.364297
       4A    -11.278278     5A    -11.232992     6A    -11.217124
       7A    -11.215795     8A    -11.214063     9A    -11.213560
      10A    -11.212225    11A    -11.207101    12A     -1.471895
      13A     -1.365502    14A     -1.099080    15A     -1.067901
      16A     -1.020579    17A     -0.978018    18A     -0.929275
      19A     -0.862218    20A     -0.800162    21A     -0.791069
      22A     -0.765832    23A     -0.703197    24A     -0.685458
      25A     -0.676012    26A     -0.650374    27A     -0.628993
      28A     -0.605454    29A     -0.597528    30A     -0.581669
      31A     -0.567302    32A     -0.550519    33A     -0.533905
      34A     -0.531241    35A     -0.516637    36A     -0.512740
      37A     -0.497778    38A     -0.477834    39A     -0.470635
      40A     -0.463167    41A     -0.459845    42A     -0.456854
      43A     -0.444119    44A     -0.437551

  @DF-RHF Final Energy:  -501.22391898948990

   => Energetics <=

    Nuclear Repulsion Energy =            610.7321612526372974
    One-Electron Energy =               -1892.9407971095581615
    Two-Electron Energy =                 780.9847168674308477
    DFT Exchange-Correlation Energy =       0.0000000000000000
    Empirical Dispersion Energy =           0.0000000000000000
    PCM Polarization Energy =               0.0000000000000000
    EFP Energy =                            0.0000000000000000
    Total Energy =                       -501.2239189894900164
    Molecular point group: c1
  Basis Set: CC-PVTZ
  Basis Set:

  -Total Gradient:
     Atom            X                  Y                   Z
    ------   -----------------  -----------------  -----------------
       1       -0.000016666814     0.000036479194    -0.000070720138
       2        0.000028442120     0.000055466030     0.000140587140
       3        0.000013142217    -0.000019777971    -0.000024626013
       4       -0.000018407630    -0.000061962303    -0.000012048174
       5       -0.000026638040    -0.000019826058    -0.000061086979
       6        0.000021361846     0.000016982293     0.000004977740
       7        0.000011634342    -0.000007729285     0.000008202063
       8        0.000009304166    -0.000025431166     0.000034603379
       9        0.000002923017    -0.000005691814    -0.000014425071
      10        0.000003357104     0.000020117440    -0.000002626677
      11        0.000160968693     0.004605785714     0.000043290495
      12        0.000001662722     0.000013012020     0.000014904870
      13        0.000001691229    -0.000022916784     0.000009907484
      14        0.000385042676    -0.003443608716     0.001501291653
      15       -0.000239616446    -0.003106521548    -0.000416072100
      16       -0.000013725820    -0.000025764821     0.000008617429
      17       -0.000282636055     0.001984176427    -0.001173416304
      18       -0.000021043911     0.000038125397     0.000004623576
      19        0.000017995572    -0.000005810287     0.000011421238
      20       -0.000046366858    -0.000026896556     0.000007709919
      21        0.000033937313     0.000054564957    -0.000088713095
      22        0.000048375837    -0.000084549421    -0.000015136308
      23        0.000003740981    -0.000005542283    -0.000001121390
      24       -0.000049408323     0.000079966551    -0.000000121268
      25       -0.000034367079    -0.000044516517     0.000095420872
      26       -0.000000250997     0.000010953550    -0.000009729310
      27        0.000004722772    -0.000002068566    -0.000003078587
      28       -0.000003342190    -0.000009360219     0.000004640863
      29        0.000004167559     0.000002344743     0.000002722692

  **** Optimization is complete! (in 6 steps) ****
    Final optimized geometry and variables:
    Molecular point group: c1

    Geometry (in Angstrom), charge = 0, multiplicity = 1:

    O            3.240354453669     0.889096845224    -0.561197946553
    C            2.711497593613    -0.011267129631    -0.003800872112
    C            1.257928441529    -0.066069649292     0.391896845082
    O            3.347136999848    -1.116067451101     0.351980427421
    C            0.476044981353     1.182236666899     0.002221161002
    H            0.844391714731    -0.961624224686    -0.055791333682
    H            1.225148719321    -0.228094109176     1.464730555266
    C           -0.976921747023     1.177360846485     0.479630299390
    H            0.508062193025     1.303687924868    -1.074982632189
    H            0.980993038774     2.047129094275     0.414599937519
    C           -1.877045145103     0.145519179803    -0.195569877995
    H           -1.392187414517     2.164894528621     0.303255204936
    H           -1.003695954046     1.028371436782     1.557092269538
    C           -3.326733571597     0.195199897791     0.288377710790
    H           -1.849858321989     0.279145891088    -1.274366327457
    H           -1.492016507750    -0.855438349863    -0.020997215115
    C           -4.302037877086    -0.523291696579    -0.639972186859
    H           -3.639379080803     1.233037021826     0.379470391020
    H           -3.390576708707    -0.227428218099     1.287695443122
    C           -5.738829561045    -0.508292912730    -0.128590688861
    H           -4.263299896610    -0.058829444533    -1.621260266930
    H           -3.980345855544    -1.552662125007    -0.778020447221
    H           -6.405666461654    -1.017059715705    -0.815241465327
    H           -6.100613352006     0.507696118280    -0.008319382030
    H           -5.817132700246    -1.001541423695     0.834725455856
    C            4.723303785110    -1.201208798488     0.042319557733
    H            4.879007063272    -1.136312647585    -1.024357542743
    H            5.052051161694    -2.160217483207     0.408620218870
    H            5.273247757184    -0.408448720602     0.527473742079

  Mulliken Charges: (a.u.)
   Center  Symbol    Alpha    Beta     Spin     Total
       1     O     4.19699  4.19699  0.00000 -0.39398
       2     C     2.80467  2.80467  0.00000  0.39067
       3     C     3.10160  3.10160  0.00000 -0.20321
       4     O     4.14725  4.14725  0.00000 -0.29450
       5     C     3.09267  3.09267  0.00000 -0.18533
       6     H     0.43917  0.43917  0.00000  0.12166
       7     H     0.43996  0.43996  0.00000  0.12007
       8     C     3.10339  3.10339  0.00000 -0.20678
       9     H     0.44622  0.44622  0.00000  0.10756
      10     H     0.43954  0.43954  0.00000  0.12092
      11     C     3.09398  3.09398  0.00000 -0.18795
      12     H     0.44513  0.44513  0.00000  0.10974
      13     H     0.45353  0.45353  0.00000  0.09293
      14     C     3.08627  3.08627  0.00000 -0.17254
      15     H     0.45319  0.45319  0.00000  0.09362
      16     H     0.45368  0.45368  0.00000  0.09263
      17     C     3.08308  3.08308  0.00000 -0.16617
      18     H     0.45564  0.45564  0.00000  0.08872
      19     H     0.45374  0.45374  0.00000  0.09252
      20     C     3.15056  3.15056  0.00000 -0.30112
      21     H     0.45411  0.45411  0.00000  0.09177
      22     H     0.45512  0.45512  0.00000  0.08976
      23     H     0.44835  0.44835  0.00000  0.10331
      24     H     0.45498  0.45498  0.00000  0.09004
      25     H     0.45520  0.45520  0.00000  0.08959
      26     C     3.03811  3.03811  0.00000 -0.07622
      27     H     0.45434  0.45434  0.00000  0.09132
      28     H     0.44528  0.44528  0.00000  0.10944
      29     H     0.45423  0.45423  0.00000  0.09154

   Total alpha = 44.00000, Total beta = 44.00000, Total charge =  0.00000

*** Psi4 exiting successfully. Buy a developer a beer!
