  ==> Input File <==

--------------------------------------------------------------------------
set {
	reference rhf
	basis cc-pvtz
}

set_num_threads( 4 )
memory 2 gb

molecule MOL {
0 1

H	 -2.393091	 -1.679850	 -0.777999
C	 -1.640044	 -0.995824	 -0.447900
C	 -1.961252	 0.335456	 -0.031159
C	 -0.356491	 -1.362173	 -0.411674
H	 -2.984378	 0.661135	 -0.048525
C	 -1.000550	 1.170349	 0.376988
H	 -0.037832	 -2.341858	 -0.708007
N	 0.640204	 -0.530428	 -0.000115
H	 -1.203800	 2.171980	 0.695398
C	 0.397820	 0.767455	 0.415313
C	 2.006991	 -1.033007	 -0.000020
O	 1.288585	 1.487948	 0.775410
H	 2.182444	 -1.636914	 -0.880881
H	 2.678769	 -0.195442	 -0.002236
H	 2.183828	 -1.633244	 0.883082

	symmetry c1
}
set optking {
	frozen_dihedral = ("
		10 8 11 13
	")
}

ee = optimize('scf')
oeprop('DIPOLE', 'QUADRUPOLE', 'MULLIKEN_CHARGES')
f=open( 'psi4out.xyz', 'w' )
f.write( "15  " )
f.write( str(ee) + "\n" )
f.write( MOL.save_string_xyz() )
f.close()
--------------------------------------------------------------------------

    Molecular point group: c1
  Charge       = 0
  Multiplicity = 1
  Basis Set: CC-PVTZ
  Basis Set:
  @DF-RHF Final Energy:  -360.72263744433332
    Total Energy =                       -360.7226374443332588
    Molecular point group: c1
  Basis Set: CC-PVTZ
  Basis Set:
  Basis Set: CC-PVTZ
  Basis Set:
  @DF-RHF Final Energy:  -360.72272113532171
    Total Energy =                       -360.7227211353219900
  Basis Set: CC-PVTZ
  Basis Set:
  Basis Set: CC-PVTZ
  Basis Set:
  @DF-RHF Final Energy:  -360.72271428341492
    Total Energy =                       -360.7227142834149163
  Basis Set: CC-PVTZ
  Basis Set:
  Charge       = 0
  Multiplicity = 1
  Basis Set: CC-PVTZ
  Basis Set:

    Orbital Energies (a.u.)
    -----------------------

    Doubly Occupied:

       1A    -20.501841     2A    -15.616787     3A    -11.339177
       4A    -11.293448     5A    -11.264027     6A    -11.258147
       7A    -11.230410     8A    -11.228225     9A     -1.390637
      10A     -1.285779    11A     -1.118781    12A     -1.028941
      13A     -0.972372    14A     -0.875858    15A     -0.838658
      16A     -0.719197    17A     -0.702803    18A     -0.663521
      19A     -0.652978    20A     -0.625415    21A     -0.611902
      22A     -0.574169    23A     -0.557017    24A     -0.550454
      25A     -0.529703    26A     -0.483227    27A     -0.420399
      28A     -0.410632    29A     -0.310800

  @DF-RHF Final Energy:  -360.72274088910677

   => Energetics <=

    Nuclear Repulsion Energy =            358.5205058049394324
    One-Electron Energy =               -1200.3758877149580258
    Two-Electron Energy =                 481.1326410209118762
    DFT Exchange-Correlation Energy =       0.0000000000000000
    Empirical Dispersion Energy =           0.0000000000000000
    PCM Polarization Energy =               0.0000000000000000
    EFP Energy =                            0.0000000000000000
    Total Energy =                       -360.7227408891067739
    Molecular point group: c1
  Basis Set: CC-PVTZ
  Basis Set:

  -Total Gradient:
     Atom            X                  Y                   Z
    ------   -----------------  -----------------  -----------------
       1        0.000015714180     0.000010867586    -0.000031353579
       2        0.000085795395    -0.000019852625     0.000028693026
       3        0.000025748831     0.000065234791     0.000047135839
       4       -0.000049389683    -0.000114222252     0.000028882780
       5        0.000011339300     0.000009689484     0.000005249884
       6       -0.000021299664     0.000057556797    -0.000034368029
       7        0.000000542937     0.000016585855    -0.000018909566
       8       -0.000165362513    -0.000164123878     0.000562583585
       9       -0.000018478559     0.000019459478     0.000020620782
      10        0.000150499051    -0.000014675410    -0.000559667679
      11       -0.000163563354    -0.000590997387     0.000137355411
      12       -0.000042585488     0.000216361770     0.000087936497
      13        0.000174826504     0.000531776750    -0.000312028791
      14       -0.000040797606    -0.000049205035     0.000017860318
      15        0.000037010668     0.000025544074     0.000020009522

  **** Optimization is complete! (in 4 steps) ****
    Final optimized geometry and variables:
    Molecular point group: c1

    Geometry (in Angstrom), charge = 0, multiplicity = 1:

    H           -2.392802986709    -1.662624926883    -0.863695387522
    C           -1.637666926186    -0.978930298796    -0.537714303165
    C           -1.955157570128     0.355177603229    -0.127450273266
    C           -0.354208615537    -1.347400202018    -0.507632588275
    H           -2.977611219495     0.682965225573    -0.144959305122
    C           -0.991942217244     1.190590233332     0.274002258701
    H           -0.039180873291    -2.328025077125    -0.803742657104
    N            0.644970182464    -0.513946492437    -0.106845267391
    H           -1.192299211626     2.193962385710     0.589113968645
    C            0.403825303000     0.780595885218     0.318982435174
    C            2.014089215328    -1.008936697863    -0.094415774650
    O            1.297035312258     1.490249606670     0.694127683122
    H            2.190928701933    -1.601387654650    -0.980955208797
    H            2.684323510259    -0.169270702476    -0.084828137109
    H            2.198147985278    -1.613168512585     0.785222462100

  Mulliken Charges: (a.u.)
   Center  Symbol    Alpha    Beta     Spin     Total
       1     H     0.41397  0.41397  0.00000  0.17207
       2     C     3.10310  3.10310  0.00000 -0.20620
       3     C     3.06168  3.06168  0.00000 -0.12335
       4     C     3.03316  3.03316  0.00000 -0.06631
       5     H     0.41838  0.41838  0.00000  0.16324
       6     C     3.11698  3.11698  0.00000 -0.23397
       7     H     0.42122  0.42122  0.00000  0.15756
       8     N     3.51192  3.51192  0.00000 -0.02384
       9     H     0.40894  0.40894  0.00000  0.18212
      10     C     2.84525  2.84525  0.00000  0.30950
      11     C     3.10436  3.10436  0.00000 -0.20871
      12     O     4.23638  4.23638  0.00000 -0.47277
      13     H     0.45380  0.45380  0.00000  0.09240
      14     H     0.42385  0.42385  0.00000  0.15229
      15     H     0.44702  0.44702  0.00000  0.10596

   Total alpha = 29.00000, Total beta = 29.00000, Total charge =  0.00000
