  ==> Input File <==

--------------------------------------------------------------------------
set {
	reference rhf
	basis 6-31G*
}

set_num_threads( 4 )
memory 2 gb

molecule MOL {
0 1

O	 -2.324811	 1.361668	 -0.277141
C	 -2.105949	 0.203097	 -0.092081
C	 -0.889235	 -0.467034	 -0.705952
C	 -3.002726	 -0.644460	 0.782455
C	 0.383821	 0.349085	 -0.429511
H	 -1.053404	 -0.529989	 -1.776180
H	 -0.774041	 -1.476424	 -0.321389
C	 1.625817	 -0.282060	 -1.063322
H	 0.230485	 1.353369	 -0.808043
H	 0.535950	 0.437946	 0.645062
C	 2.935560	 0.454472	 -0.759761
H	 1.487596	 -0.339400	 -2.141437
H	 1.715757	 -1.308020	 -0.712374
C	 3.029297	 1.856937	 -1.363334
H	 3.760018	 -0.144641	 -1.137949
H	 3.073448	 0.513299	 0.318020
H	 2.884537	 1.828866	 -2.439894
H	 4.005318	 2.292441	 -1.173283
H	 2.287004	 2.529811	 -0.947361
H	 -3.496582	 -1.399307	 0.176174
H	 -3.747939	 -0.023774	 1.260148
H	 -2.421318	 -1.168775	 1.535358

	symmetry c1
}
set optking {
	frozen_dihedral = ("
		6 3 2 1
	")
}

ee = optimize('scf')
oeprop('DIPOLE', 'QUADRUPOLE', 'MULLIKEN_CHARGES')
f=open( 'psi4out.xyz', 'w' )
f.write( "22  " )
f.write( str(ee) + "\n" )
f.write( MOL.save_string_xyz() )
f.close()
--------------------------------------------------------------------------

    Molecular point group: c1
  Charge       = 0
  Multiplicity = 1
  Basis Set: 6-31G*
  Basis Set:
  @DF-RHF Final Energy:  -348.09821781406248
    Total Energy =                       -348.0982178140623091
    Molecular point group: c1
  Basis Set: 6-31G*
  Basis Set:
  Basis Set: 6-31G*
  Basis Set:
  @DF-RHF Final Energy:  -348.09701051160869
    Total Energy =                       -348.0970105116085733
  Basis Set: 6-31G*
  Basis Set:
  Basis Set: 6-31G*
  Basis Set:
  @DF-RHF Final Energy:  -348.09857099722689
    Total Energy =                       -348.0985709972269433
  Basis Set: 6-31G*
  Basis Set:
  Basis Set: 6-31G*
  Basis Set:
  @DF-RHF Final Energy:  -348.09835946094876
    Total Energy =                       -348.0983594609488705
  Basis Set: 6-31G*
  Basis Set:
  @DF-RHF Final Energy:  -348.09624118971766
    Total Energy =                       -348.0962411897177731
  @DF-RHF Final Energy:  -348.09858866778433
    Total Energy =                       -348.0985886677842700
  Basis Set: 6-31G*
  Basis Set:
  @DF-RHF Final Energy:  -348.09843997891215
    Total Energy =                       -348.0984399789120403
  Basis Set: 6-31G*
  Basis Set:
  Basis Set: 6-31G*
  Basis Set:
  @DF-RHF Final Energy:  -348.09863049048312
    Total Energy =                       -348.0986304904834014
  Basis Set: 6-31G*
  Basis Set:
  Basis Set: 6-31G*
  Basis Set:
  @DF-RHF Final Energy:  -348.09865088622922
    Total Energy =                       -348.0986508862293931
  Basis Set: 6-31G*
  Basis Set:
  Charge       = 0
  Multiplicity = 1
  Basis Set: 6-31G*
  Basis Set:

    Orbital Energies (a.u.)
    -----------------------

    Doubly Occupied:

       1A    -20.548242     2A    -11.325838     3A    -11.230381
       4A    -11.228716     5A    -11.222409     6A    -11.219258
       7A    -11.217929     8A    -11.208517     9A     -1.394292
      10A     -1.092098    11A     -1.042460    12A     -1.000915
      13A     -0.935691    14A     -0.854934    15A     -0.783293
      16A     -0.731845    17A     -0.661010    18A     -0.644153
      19A     -0.624835    20A     -0.619420    21A     -0.597152
      22A     -0.581360    23A     -0.562532    24A     -0.545565
      25A     -0.529300    26A     -0.513175    27A     -0.498672
      28A     -0.483904    29A     -0.467716    30A     -0.461399
      31A     -0.457708    32A     -0.397359

  @DF-RHF Final Energy:  -348.09864994809948

   => Energetics <=

    Nuclear Repulsion Energy =            372.5552467100593503
    One-Electron Energy =               -1209.9436379997275708
    Two-Electron Energy =                 489.2897413415687993
    DFT Exchange-Correlation Energy =       0.0000000000000000
    Empirical Dispersion Energy =           0.0000000000000000
    PCM Polarization Energy =               0.0000000000000000
    EFP Energy =                            0.0000000000000000
    Total Energy =                       -348.0986499480994212
    Molecular point group: c1
  Basis Set: 6-31G*
  Basis Set:

  -Total Gradient:
     Atom            X                  Y                   Z
    ------   -----------------  -----------------  -----------------
       1       -0.000515266156    -0.000236927036    -0.000744782961
       2        0.000687551260     0.000429135985     0.000976636371
       3       -0.000611055961    -0.001002679293    -0.000243987287
       4        0.000094331290     0.000070624035     0.000150816380
       5        0.000037444672    -0.000084606149     0.000121396059
       6        0.000376242256     0.000828536449    -0.000187640224
       7       -0.000010215847     0.000049204760     0.000029214387
       8        0.000021018950     0.000031061528    -0.000034856348
       9       -0.000012008142    -0.000039363833    -0.000018154314
      10        0.000012307184    -0.000006413956     0.000048202442
      11       -0.000034581084     0.000031275182    -0.000005195716
      12       -0.000038790247     0.000009005865     0.000001645733
      13        0.000069510870    -0.000005286037    -0.000001222405
      14        0.000011172649    -0.000036184876    -0.000030742025
      15        0.000007305260    -0.000017175284     0.000013510456
      16       -0.000043639043     0.000014919136     0.000005701091
      17       -0.000027396850     0.000006274834     0.000000550026
      18        0.000015491572    -0.000019262185    -0.000013632382
      19       -0.000000195049    -0.000003458844     0.000021105086
      20        0.000019572844    -0.000001835759    -0.000041438647
      21       -0.000027098599    -0.000005596920    -0.000035070791
      22       -0.000031701827    -0.000011247599    -0.000012054931

  **** Optimization is complete! (in 10 steps) ****
    Final optimized geometry and variables:
    Molecular point group: c1

    Geometry (in Angstrom), charge = 0, multiplicity = 1:

    O           -2.291070777101     0.999979660967     0.224571727172
    C           -2.064458827662    -0.155424643992     0.419003291521
    C           -0.834702901200    -0.822740751568    -0.178894719318
    C           -2.992225245161    -1.017207576847     1.244585798066
    C            0.447843423083    -0.024793934783     0.081449273989
    H           -1.005224183778    -0.886288380058    -1.251792346800
    H           -0.736148911823    -1.839152309406     0.190019974403
    C            1.668417380381    -0.649427307124    -0.598220240049
    H            0.291323386008     0.989054949905    -0.264410813096
    H            0.623786662144     0.034765856403     1.154149309978
    C            2.990104207778     0.072018885783    -0.311238851799
    H            1.503677331119    -0.680660139121    -1.674177274513
    H            1.762263971906    -1.684406645041    -0.274979612448
    C            3.076847816397     1.487195865530    -0.885361666103
    H            3.801909669382    -0.522781433431    -0.722490174751
    H            3.154328726531     0.106599831589     0.763860782492
    H            2.902779980632     1.484180978643    -1.957990472064
    H            4.060627857395     1.912401357904    -0.712371675479
    H            2.350184214794     2.154367235063    -0.434324654053
    H           -3.324701858435    -1.873652509884     0.664414480245
    H           -3.847333180763    -0.439378021357     1.566430969579
    H           -2.464895655312    -1.404355618288     2.112364445232

  Mulliken Charges: (a.u.)
   Center  Symbol    Alpha    Beta     Spin     Total
       1     O     4.26373  4.26373  0.00000 -0.52746
       2     C     2.73453  2.73453  0.00000  0.53093
       3     C     3.20528  3.20528  0.00000 -0.41055
       4     C     3.28886  3.28886  0.00000 -0.57772
       5     C     3.15864  3.15864  0.00000 -0.31728
       6     H     0.40279  0.40279  0.00000  0.19441
       7     H     0.41571  0.41571  0.00000  0.16858
       8     C     3.15352  3.15352  0.00000 -0.30704
       9     H     0.40030  0.40030  0.00000  0.19939
      10     H     0.42125  0.42125  0.00000  0.15751
      11     C     3.15279  3.15279  0.00000 -0.30558
      12     H     0.42270  0.42270  0.00000  0.15461
      13     H     0.42313  0.42313  0.00000  0.15373
      14     C     3.24213  3.24213  0.00000 -0.48425
      15     H     0.42044  0.42044  0.00000  0.15911
      16     H     0.42286  0.42286  0.00000  0.15427
      17     H     0.42161  0.42161  0.00000  0.15679
      18     H     0.41882  0.41882  0.00000  0.16236
      19     H     0.41719  0.41719  0.00000  0.16562
      20     H     0.40846  0.40846  0.00000  0.18308
      21     H     0.39722  0.39722  0.00000  0.20556
      22     H     0.40804  0.40804  0.00000  0.18391

   Total alpha = 32.00000, Total beta = 32.00000, Total charge = -0.00000
