  ==> Input File <==

--------------------------------------------------------------------------
set {
	reference rhf
	basis 6-31G*
}

set_num_threads( 4 )
memory 2 gb

molecule MOL {
0 1

O	 2.911378	 1.393874	 1.359004
C	 2.523205	 0.304664	 1.083317
C	 1.245376	 -0.013843	 0.345420
O	 3.183566	 -0.802580	 1.398857
C	 0.455112	 1.231400	 -0.050772
H	 1.516762	 -0.614679	 -0.516287
H	 0.655504	 -0.663900	 0.986648
C	 -0.998893	 1.219485	 0.433193
H	 0.482531	 1.345121	 -1.130325
H	 0.957290	 2.103070	 0.354729
C	 -1.883438	 0.145884	 -0.207175
H	 -1.431207	 2.195402	 0.224832
H	 -1.019646	 1.105716	 1.516076
C	 -3.347647	 0.245583	 0.225435
H	 -1.822183	 0.231698	 -1.291012
H	 -1.510341	 -0.844814	 0.042401
C	 -4.239992	 -0.825570	 -0.404234
H	 -3.732888	 1.230466	 -0.033079
H	 -3.408585	 0.170602	 1.310038
C	 -5.701275	 -0.716658	 0.029921
H	 -4.179496	 -0.752714	 -1.488058
H	 -3.859041	 -1.810759	 -0.143352
H	 -6.308102	 -1.488908	 -0.432678
H	 -6.122175	 0.245478	 -0.248167
H	 -5.799072	 -0.820114	 1.106957
C	 4.404556	 -0.645235	 2.098365
H	 5.106531	 -0.069128	 1.512843
H	 4.782635	 -1.642662	 2.260239
H	 4.239698	 -0.149225	 3.044056

	symmetry c1
}
set optking {
	frozen_dihedral = ("
		6 3 5 9
	")
}

ee = optimize('scf')
oeprop('DIPOLE', 'QUADRUPOLE', 'MULLIKEN_CHARGES')
f=open( 'psi4out.xyz', 'w' )
f.write( "29  " )
f.write( str(ee) + "\n" )
f.write( MOL.save_string_xyz() )
f.close()
--------------------------------------------------------------------------

    Molecular point group: c1
  Charge       = 0
  Multiplicity = 1
  Basis Set: 6-31G*
  Basis Set:
  @DF-RHF Final Energy:  -501.03967509504491
    Total Energy =                       -501.0396750950446858
    Molecular point group: c1
  Basis Set: 6-31G*
  Basis Set:
  Basis Set: 6-31G*
  Basis Set:
  @DF-RHF Final Energy:  -501.04000592595241
    Total Energy =                       -501.0400059259518457
  Basis Set: 6-31G*
  Basis Set:
  Basis Set: 6-31G*
  Basis Set:
  @DF-RHF Final Energy:  -501.04011239553313
    Total Energy =                       -501.0401123955333560
  Basis Set: 6-31G*
  Basis Set:
  Basis Set: 6-31G*
  Basis Set:
  @DF-RHF Final Energy:  -501.03980704195135
    Total Energy =                       -501.0398070419514625
  Basis Set: 6-31G*
  Basis Set:
  Basis Set: 6-31G*
  Basis Set:
  @DF-RHF Final Energy:  -501.04013798682035
    Total Energy =                       -501.0401379868202412
  Basis Set: 6-31G*
  Basis Set:
  Basis Set: 6-31G*
  Basis Set:
  @DF-RHF Final Energy:  -501.04004987358360
    Total Energy =                       -501.0400498735839392
  Basis Set: 6-31G*
  Basis Set:
  Basis Set: 6-31G*
  Basis Set:
  @DF-RHF Final Energy:  -501.04014413186644
    Total Energy =                       -501.0401441318667821
  Basis Set: 6-31G*
  Basis Set:
  Charge       = 0
  Multiplicity = 1
  Basis Set: 6-31G*
  Basis Set:

    Orbital Energies (a.u.)
    -----------------------

    Doubly Occupied:

       1A    -20.603707     2A    -20.546112     3A    -11.372829
       4A    -11.280917     5A    -11.235053     6A    -11.217101
       7A    -11.216320     8A    -11.215616     9A    -11.215271
      10A    -11.213931    11A    -11.208823    12A     -1.469724
      13A     -1.363083    14A     -1.096664    15A     -1.065414
      16A     -1.019323    17A     -0.976541    18A     -0.928052
      19A     -0.861241    20A     -0.799893    21A     -0.790371
      22A     -0.763321    23A     -0.700605    24A     -0.682028
      25A     -0.672676    26A     -0.652556    27A     -0.623763
      28A     -0.607209    29A     -0.592648    30A     -0.580708
      31A     -0.566468    32A     -0.550250    33A     -0.534259
      34A     -0.527408    35A     -0.515169    36A     -0.507933
      37A     -0.499373    38A     -0.474693    39A     -0.469748
      40A     -0.461295    41A     -0.458316    42A     -0.456617
      43A     -0.439522    44A     -0.437227

  @DF-RHF Final Energy:  -501.04014423337071

   => Energetics <=

    Nuclear Repulsion Energy =            611.2721047363208982
    One-Electron Energy =               -1893.6849398041661061
    Two-Electron Energy =                 781.3726908344742696
    DFT Exchange-Correlation Energy =       0.0000000000000000
    Empirical Dispersion Energy =           0.0000000000000000
    PCM Polarization Energy =               0.0000000000000000
    EFP Energy =                            0.0000000000000000
    Total Energy =                       -501.0401442333709383
    Molecular point group: c1
  Basis Set: 6-31G*
  Basis Set:

  -Total Gradient:
     Atom            X                  Y                   Z
    ------   -----------------  -----------------  -----------------
       1       -0.000062677329    -0.000034874248    -0.000003034700
       2       -0.000039559209     0.000089355564    -0.000143764630
       3       -0.002127539525    -0.001151996690     0.000263400325
       4        0.000057571794    -0.000016717974     0.000070074488
       5        0.002097363266     0.001075678722     0.000059776546
       6        0.001404902551     0.000842392705    -0.000225226585
       7       -0.000068327338     0.000034957510    -0.000016065852
       8        0.000047561334    -0.000068200772     0.000098950781
       9       -0.001311900080    -0.000857839085    -0.000013240866
      10        0.000071529421     0.000043074156     0.000013083255
      11       -0.000046462801     0.000032240783    -0.000098501618
      12        0.000042255148     0.000002312267    -0.000025812795
      13       -0.000030295845     0.000016651890     0.000005382425
      14        0.000026232019    -0.000047623275     0.000028396542
      15       -0.000035231184     0.000027823220    -0.000037050153
      16       -0.000061004372     0.000044600169    -0.000018152192
      17        0.000015501560    -0.000033316622     0.000035592545
      18        0.000009270883    -0.000020355581    -0.000024529561
      19       -0.000004720193     0.000020102134     0.000019541210
      20        0.000001381045     0.000003035260     0.000001307818
      21        0.000009838927     0.000006365833     0.000009575249
      22       -0.000006398134    -0.000010132739    -0.000000472049
      23        0.000000754884     0.000003036865    -0.000003118057
      24       -0.000001777885     0.000003519409     0.000000754795
      25        0.000000623243    -0.000001547562    -0.000003391827
      26        0.000004522532    -0.000007900915     0.000000576230
      27        0.000001762035     0.000000957628    -0.000001806365
      28        0.000003861877     0.000003130176     0.000003261442
      29        0.000000961382     0.000001271168     0.000004493597

  **** Optimization is complete! (in 8 steps) ****
    Final optimized geometry and variables:
    Molecular point group: c1

    Geometry (in Angstrom), charge = 0, multiplicity = 1:

    O            3.053936882684     1.255913774023     0.742948109500
    C            2.621505799243     0.174984558977     0.503400802186
    C            1.319956584877    -0.133496190641    -0.203778353177
    O            3.247950469174    -0.945127695467     0.842304837995
    C            0.543001582496     1.112204881855    -0.662252681982
    H            1.574881376127    -0.783274302750    -1.034477596650
    H            0.738609698593    -0.744207156069     0.480100891140
    C           -0.918818825276     1.135741802407    -0.200550010243
    H            0.563558348599     1.170868822603    -1.746743707422
    H            1.047989933524     1.994303009715    -0.291527989953
    C           -1.801037094777     0.065184105703    -0.848215782206
    H           -1.335208530835     2.114822162390    -0.426009843881
    H           -0.955224066141     1.033312287042     0.882911736416
    C           -3.252962060417     0.112977916228    -0.368644317953
    H           -1.774862128146     0.190515425838    -1.929642077582
    H           -1.394778538280    -0.924516571382    -0.648200384627
    C           -4.140398204414    -0.952604924603    -1.014519896499
    H           -3.667658794492     1.098211332361    -0.575215229728
    H           -3.279006231743    -0.006534617049     0.713321522865
    C           -5.589590098290    -0.895772387643    -0.532522967719
    H           -4.115217882257    -0.834699619973    -2.095779053835
    H           -3.729616498044    -1.938305912614    -0.805977255855
    H           -6.193212006275    -1.662557166580    -1.008257935397
    H           -6.040122955883     0.066784512619    -0.757711602603
    H           -5.651641797361    -1.045223499462     0.541750633326
    C            4.484247543457    -0.811151487894     1.519498792752
    H            5.196958362648    -0.277433539040     0.907404728349
    H            4.829429602806    -1.816364022160     1.704936357189
    H            4.351309469269    -0.282803568264     2.452600100593

  Mulliken Charges: (a.u.)
   Center  Symbol    Alpha    Beta     Spin     Total
       1     O     4.28478  4.28478  0.00000 -0.56956
       2     C     2.61355  2.61355  0.00000  0.77290
       3     C     3.20864  3.20864  0.00000 -0.41728
       4     O     4.30543  4.30543  0.00000 -0.61085
       5     C     3.16427  3.16427  0.00000 -0.32853
       6     H     0.39730  0.39730  0.00000  0.20540
       7     H     0.39826  0.39826  0.00000  0.20347
       8     C     3.15739  3.15739  0.00000 -0.31478
       9     H     0.41900  0.41900  0.00000  0.16200
      10     H     0.39181  0.39181  0.00000  0.21638
      11     C     3.15426  3.15426  0.00000 -0.30852
      12     H     0.41917  0.41917  0.00000  0.16166
      13     H     0.42266  0.42266  0.00000  0.15468
      14     C     3.15030  3.15030  0.00000 -0.30059
      15     H     0.42347  0.42347  0.00000  0.15306
      16     H     0.42382  0.42382  0.00000  0.15236
      17     C     3.15141  3.15141  0.00000 -0.30281
      18     H     0.42332  0.42332  0.00000  0.15336
      19     H     0.42397  0.42397  0.00000  0.15205
      20     C     3.23932  3.23932  0.00000 -0.47863
      21     H     0.42304  0.42304  0.00000  0.15393
      22     H     0.42347  0.42347  0.00000  0.15305
      23     H     0.41935  0.41935  0.00000  0.16131
      24     H     0.42157  0.42157  0.00000  0.15686
      25     H     0.42177  0.42177  0.00000  0.15645
      26     C     3.09202  3.09202  0.00000 -0.18404
      27     H     0.40900  0.40900  0.00000  0.18200
      28     H     0.40853  0.40853  0.00000  0.18294
      29     H     0.40914  0.40914  0.00000  0.18173

   Total alpha = 44.00000, Total beta = 44.00000, Total charge =  0.00000
