  ==> Input File <==

--------------------------------------------------------------------------
set {
	reference rhf
	basis cc-pvtz
}

set_num_threads( 4 )
memory 2 gb

molecule MOL {
0 1

O	 0.395927	 1.296676	 -0.000076
C	 0.503051	 0.114301	 -0.000074
C	 -0.701422	 -0.805636	 -0.000109
C	 1.858118	 -0.556123	 0.000212
C	 -2.035342	 -0.080492	 0.082978
H	 -0.647283	 -1.416341	 -0.897630
H	 -0.584480	 -1.498685	 0.829015
H	 -2.163971	 0.592212	 -0.754370
H	 -2.851618	 -0.792904	 0.078686
H	 -2.100629	 0.509139	 0.987579
H	 1.961106	 -1.191101	 -0.872843
H	 2.636688	 0.191085	 -0.000109
H	 1.961070	 -1.190284	 0.873873

	symmetry c1
}
set optking {
	frozen_dihedral = ("
		6 3 2 1
	")
}

ee = optimize('scf')
oeprop('DIPOLE', 'QUADRUPOLE', 'MULLIKEN_CHARGES')
f=open( 'psi4out.xyz', 'w' )
f.write( "13  " )
f.write( str(ee) + "\n" )
f.write( MOL.save_string_xyz() )
f.close()
--------------------------------------------------------------------------

    Molecular point group: c1
  Charge       = 0
  Multiplicity = 1
  Basis Set: CC-PVTZ
  Basis Set:
  @DF-RHF Final Energy:  -231.08358120553194
    Total Energy =                       -231.0835812055322549
    Molecular point group: c1
  Basis Set: CC-PVTZ
  Basis Set:
  Basis Set: CC-PVTZ
  Basis Set:
  @DF-RHF Final Energy:  -231.08347083135214
    Total Energy =                       -231.0834708313519172
  Basis Set: CC-PVTZ
  Basis Set:
  Basis Set: CC-PVTZ
  Basis Set:
  @DF-RHF Final Energy:  -231.08359080113999
    Total Energy =                       -231.0835908011399624
  Basis Set: CC-PVTZ
  Basis Set:
  Basis Set: CC-PVTZ
  Basis Set:
  @DF-RHF Final Energy:  -231.08359356170968
    Total Energy =                       -231.0835935617098471
  Basis Set: CC-PVTZ
  Basis Set:
  Basis Set: CC-PVTZ
  Basis Set:
  @DF-RHF Final Energy:  -231.08359583612332
    Total Energy =                       -231.0835958361233224
  Basis Set: CC-PVTZ
  Basis Set:
  Basis Set: CC-PVTZ
  Basis Set:
  @DF-RHF Final Energy:  -231.08359779781088
    Total Energy =                       -231.0835977978107394
  Basis Set: CC-PVTZ
  Basis Set:
  Charge       = 0
  Multiplicity = 1
  Basis Set: CC-PVTZ
  Basis Set:

    Orbital Energies (a.u.)
    -----------------------

    Doubly Occupied:

       1A    -20.539928     2A    -11.321289     3A    -11.233655
       4A    -11.227513     5A    -11.212574     6A     -1.400054
       7A     -1.062828     8A     -1.001306     9A     -0.879095
      10A     -0.731163    11A     -0.661150    12A     -0.642147
      13A     -0.624607    14A     -0.583642    15A     -0.571621
      16A     -0.522233    17A     -0.513173    18A     -0.509788
      19A     -0.489211    20A     -0.405298

  @DF-RHF Final Energy:  -231.08359816571448

   => Energetics <=

    Nuclear Repulsion Energy =            177.3063447192104718
    One-Electron Energy =                -664.5153383654433128
    Two-Electron Energy =                 256.1253954805184776
    DFT Exchange-Correlation Energy =       0.0000000000000000
    Empirical Dispersion Energy =           0.0000000000000000
    PCM Polarization Energy =               0.0000000000000000
    EFP Energy =                            0.0000000000000000
    Total Energy =                       -231.0835981657143634
    Molecular point group: c1
  Basis Set: CC-PVTZ
  Basis Set:

  -Total Gradient:
     Atom            X                  Y                   Z
    ------   -----------------  -----------------  -----------------
       1       -0.000002815879    -0.000000502785    -0.000067103865
       2        0.000004792180     0.000011438396     0.000086201726
       3        0.000043923799    -0.000061091520     0.000004530490
       4       -0.000001978975     0.000009737719     0.000000220014
       5       -0.000006449974     0.000004186292     0.000007325119
       6       -0.000033449804     0.000040205859    -0.000034642213
       7       -0.000001233248     0.000005571291    -0.000004217609
       8        0.000002968215    -0.000002650123     0.000001736705
       9        0.000000762767    -0.000000442731     0.000001291335
      10       -0.000003215703     0.000001671080     0.000001316761
      11       -0.000000444740    -0.000002961635     0.000001590742
      12        0.000000074616    -0.000001510084     0.000000972935
      13       -0.000002933253    -0.000003651760     0.000000777861

  **** Optimization is complete! (in 7 steps) ****
    Final optimized geometry and variables:
    Molecular point group: c1

    Geometry (in Angstrom), charge = 0, multiplicity = 1:

    O            0.395776901705     1.296967804768     0.005959469320
    C            0.502809455966     0.114723738842    -0.013926952767
    C           -0.701736181875    -0.804857692860    -0.029609552737
    C            1.857665233042    -0.555804430589    -0.024159438995
    C           -2.035741461494    -0.080336848945     0.057832428400
    H           -0.643583012544    -1.398313735157    -0.938614737059
    H           -0.589274737444    -1.513252275185     0.786745811082
    H           -2.158802122249     0.606161199486    -0.768796284212
    H           -2.852323652200    -0.792095585188     0.037395453673
    H           -2.106135714087     0.494196725779     0.971937274505
    H            1.937153641693    -1.238752475549    -0.862440321278
    H            2.635286295537     0.189936013306    -0.084250566372
    H            1.985322253844    -1.139968122175     0.880885463285

  Mulliken Charges: (a.u.)
   Center  Symbol    Alpha    Beta     Spin     Total
       1     O     4.16948  4.16948  0.00000 -0.33895
       2     C     2.86316  2.86316  0.00000  0.27368
       3     C     3.10038  3.10038  0.00000 -0.20076
       4     C     3.14937  3.14937  0.00000 -0.29873
       5     C     3.14142  3.14142  0.00000 -0.28285
       6     H     0.44634  0.44634  0.00000  0.10731
       7     H     0.44711  0.44711  0.00000  0.10579
       8     H     0.44699  0.44699  0.00000  0.10601
       9     H     0.45075  0.45075  0.00000  0.09849
      10     H     0.44844  0.44844  0.00000  0.10312
      11     H     0.45109  0.45109  0.00000  0.09781
      12     H     0.43555  0.43555  0.00000  0.12891
      13     H     0.44992  0.44992  0.00000  0.10016

   Total alpha = 20.00000, Total beta = 20.00000, Total charge = -0.00000
