  ==> Input File <==

--------------------------------------------------------------------------
set {
	reference rhf
	basis cc-pvtz
}

set_num_threads( 4 )
memory 2 gb

molecule MOL {
0 1

H	 -3.144994	 -1.202467	 -0.018751
O	 -2.321472	 -0.864941	 -0.318626
C	 -2.021813	 0.336996	 0.342658
C	 -0.669613	 0.837286	 -0.127252
H	 -2.780861	 1.084746	 0.127159
H	 -2.006390	 0.184138	 1.420053
C	 0.490865	 -0.082543	 0.241244
H	 -0.708709	 0.967192	 -1.204587
H	 -0.507562	 1.822272	 0.303070
C	 0.507080	 -1.376693	 -0.567160
H	 0.438783	 -0.315794	 1.298570
H	 1.429097	 0.446926	 0.087928
C	 1.671010	 -2.293134	 -0.204961
H	 -0.428863	 -1.906678	 -0.412790
H	 0.551577	 -1.140848	 -1.627390
H	 1.634297	 -2.575389	 0.841892
H	 1.653539	 -3.203149	 -0.793918
H	 2.623627	 -1.804102	 -0.380500

	symmetry c1
}
set optking {
	frozen_dihedral = ("
		10 7 4 8
	")
}

ee = optimize('scf')
oeprop('DIPOLE', 'QUADRUPOLE', 'MULLIKEN_CHARGES')
f=open( 'psi4out.xyz', 'w' )
f.write( "18  " )
f.write( str(ee) + "\n" )
f.write( MOL.save_string_xyz() )
f.close()
--------------------------------------------------------------------------

    Molecular point group: c1
  Charge       = 0
  Multiplicity = 1
  Basis Set: CC-PVTZ
  Basis Set:
  @DF-RHF Final Energy:  -271.28100809975638
    Total Energy =                       -271.2810080997563773
    Molecular point group: c1
  Basis Set: CC-PVTZ
  Basis Set:
  Basis Set: CC-PVTZ
  Basis Set:
  @DF-RHF Final Energy:  -271.28363431083164
    Total Energy =                       -271.2836343108313031
  Basis Set: CC-PVTZ
  Basis Set:
  Basis Set: CC-PVTZ
  Basis Set:
  @DF-RHF Final Energy:  -271.28387325442878
    Total Energy =                       -271.2838732544288405
  Basis Set: CC-PVTZ
  Basis Set:
  Basis Set: CC-PVTZ
  Basis Set:
  @DF-RHF Final Energy:  -271.28390678453513
    Total Energy =                       -271.2839067845354180
  Basis Set: CC-PVTZ
  Basis Set:
  Basis Set: CC-PVTZ
  Basis Set:
  @DF-RHF Final Energy:  -271.28391160001922
    Total Energy =                       -271.2839116000192803
  Basis Set: CC-PVTZ
  Basis Set:
  Charge       = 0
  Multiplicity = 1
  Basis Set: CC-PVTZ
  Basis Set:

    Orbital Energies (a.u.)
    -----------------------

    Doubly Occupied:

       1A    -20.547325     2A    -11.267046     3A    -11.212091
       4A    -11.207915     5A    -11.200027     6A    -11.198647
       7A     -1.365232     8A     -1.073139     9A     -1.007694
      10A     -0.913730    11A     -0.824795    12A     -0.775393
      13A     -0.706105    14A     -0.651009    15A     -0.617274
      16A     -0.575393    17A     -0.573979    18A     -0.557809
      19A     -0.528021    20A     -0.507340    21A     -0.487447
      22A     -0.461979    23A     -0.454499    24A     -0.447354
      25A     -0.428873

  @DF-RHF Final Energy:  -271.28391212881030

   => Energetics <=

    Nuclear Repulsion Energy =            254.1084827694252795
    One-Electron Energy =                -871.6045582508685357
    Two-Electron Energy =                 346.2121633526328992
    DFT Exchange-Correlation Energy =       0.0000000000000000
    Empirical Dispersion Energy =           0.0000000000000000
    PCM Polarization Energy =               0.0000000000000000
    EFP Energy =                            0.0000000000000000
    Total Energy =                       -271.2839121288104138
    Molecular point group: c1
  Basis Set: CC-PVTZ
  Basis Set:

  -Total Gradient:
     Atom            X                  Y                   Z
    ------   -----------------  -----------------  -----------------
       1       -0.000014784390    -0.000015526547    -0.000015203902
       2       -0.000039307780    -0.000041874939     0.000022235367
       3       -0.000017425032    -0.000004352471    -0.000045167304
       4       -0.000030461246    -0.000062480569     0.000009853342
       5        0.000012702842     0.000018322629     0.000019636255
       6        0.000007023162     0.000000463233    -0.000001769460
       7        0.000061492261     0.000028031344    -0.000007377046
       8        0.000036202894     0.000056742008     0.000019678188
       9        0.000016151587     0.000015225510    -0.000014718219
      10       -0.000021418474    -0.000041088341     0.000024699968
      11       -0.000004862352     0.000012983257     0.000002106879
      12       -0.000006526161    -0.000009472931     0.000004135168
      13       -0.000025935624    -0.000012075930     0.000015090550
      14        0.000035788981     0.000032375398     0.000004442840
      15       -0.000018044199     0.000003900981    -0.000035284733
      16        0.000009522672    -0.000006732729     0.000001041816
      17       -0.000002201107     0.000020571923     0.000003446253
      18        0.000002081968     0.000004988174    -0.000006845963

  **** Optimization is complete! (in 6 steps) ****
    Final optimized geometry and variables:
    Molecular point group: c1

    Geometry (in Angstrom), charge = 0, multiplicity = 1:

    H           -2.914893614973    -0.397141332286     0.039854426919
    O           -2.056419699155    -0.153873654722    -0.253600145427
    C           -1.601238459203     0.962093164008     0.467342855473
    C           -0.225134562392     1.381246125928    -0.019659516553
    H           -2.288720677577     1.793879084340     0.335319850792
    H           -1.561167441333     0.736343762160     1.531325850761
    C            0.935637463542     0.448737346103     0.338921001277
    H           -0.268769942618     1.525848536574    -1.094977039197
    H           -0.024947846235     2.356282572761     0.415884244564
    C            1.008642075116    -0.860371196664    -0.445793826831
    H            0.899304722767     0.229617456049     1.404165580065
    H            1.861697598867     0.994878732288     0.178813522034
    C            2.243335181434    -1.682491518662    -0.090000628925
    H            0.116292371032    -1.445250081140    -0.270650723676
    H            1.019864461088    -0.635778183528    -1.508948981444
    H            2.248388679775    -1.947440653538     0.962622261478
    H            2.278136662083    -2.603585609822    -0.660702504629
    H            3.156787574900    -1.132915179586    -0.294238472875

  Mulliken Charges: (a.u.)
   Center  Symbol    Alpha    Beta     Spin     Total
       1     H     0.39639  0.39639  0.00000  0.20723
       2     O     4.19635  4.19635  0.00000 -0.39271
       3     C     2.97334  2.97334  0.00000  0.05332
       4     C     3.09863  3.09863  0.00000 -0.19727
       5     H     0.46374  0.46374  0.00000  0.07252
       6     H     0.47387  0.47387  0.00000  0.05226
       7     C     3.09332  3.09332  0.00000 -0.18665
       8     H     0.45161  0.45161  0.00000  0.09679
       9     H     0.44792  0.44792  0.00000  0.10415
      10     C     3.08001  3.08001  0.00000 -0.16002
      11     H     0.45752  0.45752  0.00000  0.08497
      12     H     0.45115  0.45115  0.00000  0.09769
      13     C     3.15026  3.15026  0.00000 -0.30052
      14     H     0.44539  0.44539  0.00000  0.10923
      15     H     0.45693  0.45693  0.00000  0.08614
      16     H     0.45708  0.45708  0.00000  0.08585
      17     H     0.44910  0.44910  0.00000  0.10181
      18     H     0.45739  0.45739  0.00000  0.08522

   Total alpha = 25.00000, Total beta = 25.00000, Total charge =  0.00000
