  ==> Input File <==

--------------------------------------------------------------------------
set {
	reference rhf
	basis 6-31G*
}

set_num_threads( 4 )
memory 2 gb

molecule MOL {
0 1

H	 2.176868	 -0.646004	 -0.217325
O	 1.337496	 -0.537251	 0.205931
C	 0.702312	 0.627605	 -0.264544
C	 -0.714990	 0.596302	 0.266387
H	 0.682322	 0.642550	 -1.350929
H	 1.215941	 1.520383	 0.085680
O	 -1.405996	 -0.526611	 -0.195820
H	 -1.257453	 1.468809	 -0.075599
H	 -0.688972	 0.618407	 1.353696
H	 -2.290948	 -0.255547	 -0.404143

	symmetry c1
}
set optking {
	frozen_dihedral = ("
		10 7 4 3
	")
}

ee = optimize('scf')
oeprop('DIPOLE', 'QUADRUPOLE', 'MULLIKEN_CHARGES')
f=open( 'psi4out.xyz', 'w' )
f.write( "10  " )
f.write( str(ee) + "\n" )
f.write( MOL.save_string_xyz() )
f.close()
--------------------------------------------------------------------------

    Molecular point group: c1
  Charge       = 0
  Multiplicity = 1
  Basis Set: 6-31G*
  Basis Set:
  @DF-RHF Final Energy:  -228.91563501753973
    Total Energy =                       -228.9156350175397279
    Molecular point group: c1
  Basis Set: 6-31G*
  Basis Set:
  Basis Set: 6-31G*
  Basis Set:
  @DF-RHF Final Energy:  -228.91723024725144
    Total Energy =                       -228.9172302472514957
  Basis Set: 6-31G*
  Basis Set:
  Basis Set: 6-31G*
  Basis Set:
  @DF-RHF Final Energy:  -228.91742956948769
    Total Energy =                       -228.9174295694877515
  Basis Set: 6-31G*
  Basis Set:
  Basis Set: 6-31G*
  Basis Set:
  @DF-RHF Final Energy:  -228.91744594672357
    Total Energy =                       -228.9174459467236034
  Basis Set: 6-31G*
  Basis Set:
  Basis Set: 6-31G*
  Basis Set:
  @DF-RHF Final Energy:  -228.91744792263162
    Total Energy =                       -228.9174479226315384
  Basis Set: 6-31G*
  Basis Set:
  Charge       = 0
  Multiplicity = 1
  Basis Set: 6-31G*
  Basis Set:

    Orbital Energies (a.u.)
    -----------------------

    Doubly Occupied:

       1A    -20.551967     2A    -20.551696     3A    -11.270450
       4A    -11.269367     5A     -1.369920     6A     -1.349794
       7A     -1.001750     8A     -0.832150     9A     -0.720137
      10A     -0.694389    11A     -0.630706    12A     -0.594985
      13A     -0.578352    14A     -0.516618    15A     -0.486674
      16A     -0.442955    17A     -0.430435

  @DF-RHF Final Energy:  -228.91744827699929

   => Energetics <=

    Nuclear Repulsion Energy =            133.2614256501051102
    One-Electron Energy =                -577.7730603598216703
    Two-Electron Energy =                 215.5941864327173221
    DFT Exchange-Correlation Energy =       0.0000000000000000
    Empirical Dispersion Energy =           0.0000000000000000
    PCM Polarization Energy =               0.0000000000000000
    EFP Energy =                            0.0000000000000000
    Total Energy =                       -228.9174482769992096
    Molecular point group: c1
  Basis Set: 6-31G*
  Basis Set:

  -Total Gradient:
     Atom            X                  Y                   Z
    ------   -----------------  -----------------  -----------------
       1        0.000016976368    -0.000010344032     0.000010732474
       2       -0.000023824367     0.000023350689    -0.000033911009
       3       -0.000268395372     0.000565760652    -0.000760639692
       4        0.000513115434    -0.000680947533     0.000763354684
       5        0.000001848882     0.000001572059    -0.000021916140
       6       -0.000008407258    -0.000009364432    -0.000006527231
       7       -0.000689812434    -0.000304887416     0.001557614498
       8       -0.000006642674    -0.000016308505    -0.000002689088
       9       -0.000001965007     0.000010665766     0.000012009108
      10        0.000467106427     0.000420502752    -0.001518027604

  **** Optimization is complete! (in 6 steps) ****
    Final optimized geometry and variables:
    Molecular point group: c1

    Geometry (in Angstrom), charge = 0, multiplicity = 1:

    H            2.224134677148    -0.638307180975    -0.194061993840
    O            1.411803131567    -0.515477915778     0.275218537677
    C            0.709521842078     0.567621902502    -0.267267897698
    C           -0.699334112944     0.559264215344     0.281416509965
    H            0.663273206447     0.505984214728    -1.351365495528
    H            1.187260868456     1.509542936430     0.001503533092
    O           -1.415721117930    -0.526008888807    -0.247423417476
    H           -1.173092796894     1.502749601122     0.018541610458
    H           -0.660468005052     0.493134816968     1.364433493801
    H           -2.300230208789    -0.261592962393    -0.448644978382

  Mulliken Charges: (a.u.)
   Center  Symbol    Alpha    Beta     Spin     Total
       1     H     0.27981  0.27981  0.00000  0.44038
       2     O     4.36541  4.36541  0.00000 -0.73083
       3     C     2.99669  2.99669  0.00000  0.00662
       4     C     3.00148  3.00148  0.00000 -0.00296
       5     H     0.42642  0.42642  0.00000  0.14717
       6     H     0.43339  0.43339  0.00000  0.13321
       7     O     4.36667  4.36667  0.00000 -0.73334
       8     H     0.43308  0.43308  0.00000  0.13384
       9     H     0.41708  0.41708  0.00000  0.16585
      10     H     0.27997  0.27997  0.00000  0.44006

   Total alpha = 17.00000, Total beta = 17.00000, Total charge = -0.00000
