  ==> Input File <==

--------------------------------------------------------------------------
set {
	reference rhf
	basis 6-31G*
}

set_num_threads( 1 )
memory 2 gb

molecule MOL {
0 1

H	 -4.019614	 0.629006	 -0.667837
O	 -3.517110	 -0.026191	 -0.205115
C	 -2.306886	 0.532354	 0.237577
C	 -1.177863	 -0.397191	 -0.171080
H	 -2.156308	 1.517575	 -0.201710
H	 -2.315015	 0.655684	 1.319734
C	 0.198102	 0.111031	 0.262842
H	 -1.208843	 -0.518759	 -1.250427
H	 -1.368741	 -1.376554	 0.258909
C	 1.331804	 -0.827780	 -0.158768
H	 0.361943	 1.100838	 -0.156218
H	 0.217265	 0.229072	 1.345532
C	 2.723619	 -0.410569	 0.329459
H	 1.342964	 -0.912588	 -1.244120
H	 1.116806	 -1.824343	 0.220779
C	 3.243875	 0.895854	 -0.272975
H	 3.424222	 -1.207124	 0.091250
H	 2.714788	 -0.329854	 1.414619
H	 3.251977	 0.848779	 -1.358681
H	 2.637085	 1.747371	 0.016682
H	 4.259473	 1.094070	 0.055697

	symmetry c1
}
set optking {
	frozen_dihedral = ("
		2 3 4 8,
		8 4 7 10,
		4 7 10 14,
		16 13 10 14
	")
}

ee = energy('scf')
oeprop('DIPOLE', 'QUADRUPOLE', 'MULLIKEN_CHARGES')
f=open( 'psi4out.xyz', 'w' )
f.write( "21  " )
f.write( str(ee) + "\n" )
f.write( MOL.save_string_xyz() )
f.close()
--------------------------------------------------------------------------

    Molecular point group: c1

    Geometry (in Angstrom), charge = 0, multiplicity = 1:

       Center              X                  Y                   Z               Mass
    ------------   -----------------  -----------------  -----------------  -----------------
           H         -4.021754542754     0.628109131064    -0.660852516204     1.007825032070
           O         -3.519250542754    -0.027087868936    -0.198130516204    15.994914619560
           C         -2.309026542754     0.531457131064     0.244561483796    12.000000000000
           C         -1.180003542754    -0.398087868936    -0.164095516204    12.000000000000
           H         -2.158448542754     1.516678131064    -0.194725516204     1.007825032070
           H         -2.317155542754     0.654787131064     1.326718483796     1.007825032070
           C          0.195961457246     0.110134131064     0.269826483796    12.000000000000
           H         -1.210983542754    -0.519655868936    -1.243442516204     1.007825032070
           H         -1.370881542754    -1.377450868936     0.265893483796     1.007825032070
           C          1.329663457246    -0.828676868936    -0.151783516204    12.000000000000
           H          0.359802457246     1.099941131064    -0.149233516204     1.007825032070
           H          0.215124457246     0.228175131064     1.352516483796     1.007825032070
           C          2.721478457246    -0.411465868936     0.336443483796    12.000000000000
           H          1.340823457246    -0.913484868936    -1.237135516204     1.007825032070
           H          1.114665457246    -1.825239868936     0.227763483796     1.007825032070
           C          3.241734457246     0.894957131064    -0.265990516204    12.000000000000
           H          3.422081457246    -1.208020868936     0.098234483796     1.007825032070
           H          2.712647457246    -0.330750868936     1.421603483796     1.007825032070
           H          3.249836457246     0.847882131064    -1.351696516204     1.007825032070
           H          2.634944457246     1.746474131064     0.023666483796     1.007825032070
           H          4.257332457246     1.093173131064     0.062681483796     1.007825032070

  Charge       = 0
  Multiplicity = 1
  Basis Set: 6-31G*
  Basis Set:

    Orbital Energies (a.u.)
    -----------------------

    Doubly Occupied:

       1A    -20.551252     2A    -11.267450     3A    -11.215089
       4A    -11.214958     5A    -11.213448     6A    -11.209094
       7A    -11.208411     8A     -1.358969     9A     -1.085949
      10A     -1.032852    11A     -0.954215    12A     -0.876006
      13A     -0.808392    14A     -0.778707    15A     -0.699422
      16A     -0.652547    17A     -0.623156    18A     -0.602471
      19A     -0.590266    20A     -0.570275    21A     -0.537314
      22A     -0.521011    23A     -0.509639    24A     -0.487217
      25A     -0.477629    26A     -0.462265    27A     -0.457624
      28A     -0.454380    29A     -0.421341

  @DF-RHF Final Energy:  -310.21070907201084

   => Energetics <=

    Nuclear Repulsion Energy =            312.5788156043492449
    One-Electron Energy =               -1039.8968100712559135
    Two-Electron Energy =                 417.1072853948953707
    DFT Exchange-Correlation Energy =       0.0000000000000000
    Empirical Dispersion Energy =           0.0000000000000000
    PCM Polarization Energy =               0.0000000000000000
    EFP Energy =                            0.0000000000000000
    Total Energy =                       -310.2107090720112410

  Mulliken Charges: (a.u.)
   Center  Symbol    Alpha    Beta     Spin     Total
       1     H     0.27985  0.27985  0.00000  0.44031
       2     O     4.37229  4.37229  0.00000 -0.74458
       3     C     2.99314  2.99314  0.00000  0.01371
       4     C     3.15558  3.15558  0.00000 -0.31117
       5     H     0.43338  0.43338  0.00000  0.13325
       6     H     0.42613  0.42613  0.00000  0.14775
       7     C     3.16282  3.16282  0.00000 -0.32564
       8     H     0.41978  0.41978  0.00000  0.16045
       9     H     0.41463  0.41463  0.00000  0.17073
      10     C     3.15147  3.15147  0.00000 -0.30294
      11     H     0.42294  0.42294  0.00000  0.15412
      12     H     0.42359  0.42359  0.00000  0.15282
      13     C     3.15243  3.15243  0.00000 -0.30485
      14     H     0.42369  0.42369  0.00000  0.15263
      15     H     0.42084  0.42084  0.00000  0.15833
      16     C     3.24112  3.24112  0.00000 -0.48225
      17     H     0.42074  0.42074  0.00000  0.15851
      18     H     0.42335  0.42335  0.00000  0.15330
      19     H     0.42233  0.42233  0.00000  0.15535
      20     H     0.42072  0.42072  0.00000  0.15855
      21     H     0.41918  0.41918  0.00000  0.16163

   Total alpha = 29.00000, Total beta = 29.00000, Total charge =  0.00000
