  ==> Input File <==

--------------------------------------------------------------------------
set {
	reference rhf
	basis 6-31G*
}

set_num_threads( 1 )
memory 2 gb

molecule MOL {
0 1

O	 0.997834	 1.025489	 -0.762398
C	 1.122059	 0.121804	 -0.000188
C	 0.136669	 -0.259878	 1.077410
O	 2.172624	 -0.688929	 0.000216
C	 -1.092739	 0.642297	 1.121883
H	 -0.141815	 -1.296810	 0.910158
H	 0.669535	 -0.246179	 2.024311
C	 -2.073906	 0.234135	 2.221920
H	 -1.590252	 0.617894	 0.157316
H	 -0.777678	 1.670172	 1.272594
C	 -3.308066	 1.133635	 2.274389
H	 -2.385767	 -0.796737	 2.066611
H	 -1.569595	 0.257789	 3.185861
H	 -3.853612	 1.104887	 1.335663
H	 -3.987173	 0.822733	 3.062062
H	 -3.031660	 2.166819	 2.463522
C	 3.452279	 -0.082609	 0.000533
H	 3.583069	 0.529321	 -0.880332
H	 4.163299	 -0.894027	 0.001117
H	 3.582335	 0.529955	 0.881077

	symmetry c1
}
set optking {
	frozen_dihedral = ("
		9 5 8 12,
		1 2 3 6,
		9 5 3 6
	")
}

ee = energy('scf')
oeprop('DIPOLE', 'QUADRUPOLE', 'MULLIKEN_CHARGES')
f=open( 'psi4out.xyz', 'w' )
f.write( "20  " )
f.write( str(ee) + "\n" )
f.write( MOL.save_string_xyz() )
f.close()
--------------------------------------------------------------------------

    Molecular point group: c1

    Geometry (in Angstrom), charge = 0, multiplicity = 1:

       Center              X                  Y                   Z               Mass
    ------------   -----------------  -----------------  -----------------  -----------------
           O          0.789659583224     0.755368297235    -1.492640252515    15.994914619560
           C          0.913884583224    -0.148316702765    -0.730430252515    12.000000000000
           C         -0.071505416776    -0.529998702765     0.347167747485    12.000000000000
           O          1.964449583224    -0.959049702765    -0.730026252515    15.994914619560
           C         -1.300913416776     0.372176297235     0.391640747485    12.000000000000
           H         -0.349989416776    -1.566930702765     0.179915747485     1.007825032070
           H          0.461360583224    -0.516299702765     1.294068747485     1.007825032070
           C         -2.282080416776    -0.035985702765     1.491677747485    12.000000000000
           H         -1.798426416776     0.347773297235    -0.572926252515     1.007825032070
           H         -0.985852416776     1.400051297235     0.542351747485     1.007825032070
           C         -3.516240416776     0.863514297235     1.544146747485    12.000000000000
           H         -2.593941416776    -1.066857702765     1.336368747485     1.007825032070
           H         -1.777769416776    -0.012331702765     2.455618747485     1.007825032070
           H         -4.061786416776     0.834766297235     0.605420747485     1.007825032070
           H         -4.195347416776     0.552612297235     2.331819747485     1.007825032070
           H         -3.239834416776     1.896698297235     1.733279747485     1.007825032070
           C          3.244104583224    -0.352729702765    -0.729709252515    12.000000000000
           H          3.374894583224     0.259200297235    -1.610574252515     1.007825032070
           H          3.955124583224    -1.164147702765    -0.729125252515     1.007825032070
           H          3.374160583224     0.259834297235     0.150834747485     1.007825032070

  Charge       = 0
  Multiplicity = 1
  Basis Set: 6-31G*
  Basis Set:

    Orbital Energies (a.u.)
    -----------------------

    Doubly Occupied:

       1A    -20.593150     2A    -20.550269     3A    -11.373243
       4A    -11.287348     5A    -11.236127     6A    -11.220621
       7A    -11.219336     8A    -11.210923     9A     -1.466258
      10A     -1.364311    11A     -1.088603    12A     -1.022462
      13A     -0.971718    14A     -0.889479    15A     -0.804895
      16A     -0.768126    17A     -0.696301    18A     -0.681420
      19A     -0.673159    20A     -0.644604    21A     -0.605759
      22A     -0.591831    23A     -0.583231    24A     -0.546949
      25A     -0.535753    26A     -0.515099    27A     -0.500997
      28A     -0.481208    29A     -0.476283    30A     -0.470420
      31A     -0.452621    32A     -0.433162

  @DF-RHF Final Energy:  -383.92966990440624

   => Energetics <=

    Nuclear Repulsion Energy =            381.4024396741289706
    One-Electron Energy =               -1278.7530232030653679
    Two-Electron Energy =                 513.4209136245300442
    DFT Exchange-Correlation Energy =       0.0000000000000000
    Empirical Dispersion Energy =           0.0000000000000000
    PCM Polarization Energy =               0.0000000000000000
    EFP Energy =                            0.0000000000000000
    Total Energy =                       -383.9296699044062962

  Mulliken Charges: (a.u.)
   Center  Symbol    Alpha    Beta     Spin     Total
       1     O     4.27307  4.27307  0.00000 -0.54614
       2     C     2.60656  2.60656  0.00000  0.78688
       3     C     3.21025  3.21025  0.00000 -0.42051
       4     O     4.31030  4.31030  0.00000 -0.62060
       5     C     3.15200  3.15200  0.00000 -0.30401
       6     H     0.39923  0.39923  0.00000  0.20154
       7     H     0.40477  0.40477  0.00000  0.19045
       8     C     3.15404  3.15404  0.00000 -0.30807
       9     H     0.41119  0.41119  0.00000  0.17763
      10     H     0.41302  0.41302  0.00000  0.17395
      11     C     3.23927  3.23927  0.00000 -0.47854
      12     H     0.42265  0.42265  0.00000  0.15471
      13     H     0.42366  0.42366  0.00000  0.15268
      14     H     0.41969  0.41969  0.00000  0.16061
      15     H     0.41878  0.41878  0.00000  0.16243
      16     H     0.42023  0.42023  0.00000  0.15954
      17     C     3.09505  3.09505  0.00000 -0.19010
      18     H     0.40254  0.40254  0.00000  0.19493
      19     H     0.40541  0.40541  0.00000  0.18917
      20     H     0.41829  0.41829  0.00000  0.16343

   Total alpha = 32.00000, Total beta = 32.00000, Total charge = -0.00000
