  ==> Input File <==

--------------------------------------------------------------------------
set {
	reference rhf
	basis 6-31G*
}

set_num_threads( 4 )
memory 2 gb

molecule MOL {
0 1

O	 1.846825	 1.296220	 0.000415
C	 1.705091	 0.115954	 0.001797
C	 0.381791	 -0.609817	 0.001258
O	 2.721346	 -0.737485	 -0.000216
C	 -0.823008	 0.326187	 0.001381
H	 0.371250	 -1.265087	 -0.865474
H	 0.370908	 -1.265746	 0.867490
C	 -2.149452	 -0.435131	 -0.000098
H	 -0.770201	 0.977095	 -0.865636
H	 -0.771220	 0.975655	 0.869608
C	 -3.368779	 0.488503	 -0.000883
H	 -2.193746	 -1.087250	 -0.871175
H	 -2.195311	 -1.087803	 0.870418
C	 -4.689344	 -0.266963	 -0.144514
H	 -3.273984	 1.207876	 -0.811228
H	 -3.381709	 1.067018	 0.920144
H	 -4.721038	 -0.828573	 -1.073925
H	 -5.534295	 0.414578	 -0.141415
H	 -4.829399	 -0.970933	 0.671036
C	 4.024888	 -0.184556	 -0.001949
H	 4.179030	 0.422472	 -0.882452
H	 4.701782	 -1.024608	 -0.003642
H	 4.181981	 0.421185	 0.878906

	symmetry c1
}
set optking {
	frozen_dihedral = ("
		15 11 8 12
	")
}

ee = optimize('scf')
oeprop('DIPOLE', 'QUADRUPOLE', 'MULLIKEN_CHARGES')
f=open( 'psi4out.xyz', 'w' )
f.write( "23  " )
f.write( str(ee) + "\n" )
f.write( MOL.save_string_xyz() )
f.close()
--------------------------------------------------------------------------

    Molecular point group: c1
  Charge       = 0
  Multiplicity = 1
  Basis Set: 6-31G*
  Basis Set:
  @DF-RHF Final Energy:  -422.97618021345573
    Total Energy =                       -422.9761802134555637
    Molecular point group: c1
  Basis Set: 6-31G*
  Basis Set:
  Basis Set: 6-31G*
  Basis Set:
  @DF-RHF Final Energy:  -422.97613880288827
    Total Energy =                       -422.9761388028880447
  Basis Set: 6-31G*
  Basis Set:
  Basis Set: 6-31G*
  Basis Set:
  @DF-RHF Final Energy:  -422.97607818364884
    Total Energy =                       -422.9760781836486103
  Basis Set: 6-31G*
  Basis Set:
  Basis Set: 6-31G*
  Basis Set:
  @DF-RHF Final Energy:  -422.97620054729663
    Total Energy =                       -422.9762005472964574
  Basis Set: 6-31G*
  Basis Set:
  Basis Set: 6-31G*
  Basis Set:
  @DF-RHF Final Energy:  -422.97620313396448
    Total Energy =                       -422.9762031339644182
  Basis Set: 6-31G*
  Basis Set:
  Charge       = 0
  Multiplicity = 1
  Basis Set: 6-31G*
  Basis Set:

    Orbital Energies (a.u.)
    -----------------------

    Doubly Occupied:

       1A    -20.603649     2A    -20.545457     3A    -11.372282
       4A    -11.280863     5A    -11.235576     6A    -11.219374
       7A    -11.217859     8A    -11.216436     9A    -11.209740
      10A     -1.469347    11A     -1.362797    12A     -1.093209
      13A     -1.043661    14A     -0.987087    15A     -0.932155
      16A     -0.843705    17A     -0.795214    18A     -0.767317
      19A     -0.696889    20A     -0.683860    21A     -0.671527
      22A     -0.651370    23A     -0.609154    24A     -0.599506
      25A     -0.572823    26A     -0.559210    27A     -0.556239
      28A     -0.523833    29A     -0.521069    30A     -0.507906
      31A     -0.484438    32A     -0.470201    33A     -0.465632
      34A     -0.461414    35A     -0.455593    36A     -0.435532

  @DF-RHF Final Energy:  -422.97620317097960

   => Energetics <=

    Nuclear Repulsion Energy =            452.1143654649209793
    One-Electron Energy =               -1471.9372924797166888
    Two-Electron Energy =                 596.8467238438163349
    DFT Exchange-Correlation Energy =       0.0000000000000000
    Empirical Dispersion Energy =           0.0000000000000000
    PCM Polarization Energy =               0.0000000000000000
    EFP Energy =                            0.0000000000000000
    Total Energy =                       -422.9762031709793746
    Molecular point group: c1
  Basis Set: 6-31G*
  Basis Set:

  -Total Gradient:
     Atom            X                  Y                   Z
    ------   -----------------  -----------------  -----------------
       1        0.000004534046    -0.000007170083    -0.000013132646
       2       -0.000004898888     0.000005007651     0.000032367929
       3       -0.000001564721     0.000001173838    -0.000025054611
       4        0.000002138618     0.000002652005    -0.000012296187
       5       -0.000006040523    -0.000002366706     0.000010793897
       6       -0.000001399089    -0.000004856207     0.000000604748
       7       -0.000000579581     0.000005764973    -0.000000273894
       8        0.000824567922     0.001104672418    -0.000551581185
       9       -0.000002039834     0.000005188171     0.000001717407
      10        0.000000113786    -0.000007380898     0.000000959480
      11       -0.000797271537    -0.001053725048    -0.000732715853
      12       -0.000561050527    -0.000754507626     0.000598564134
      13       -0.000002434258    -0.000005259867     0.000010580295
      14        0.000005176322     0.000002637817    -0.000000078438
      15        0.000535463044     0.000702798025     0.000678090289
      16        0.000001204954     0.000002387987     0.000002683452
      17       -0.000006989596     0.000006075637    -0.000003551778
      18        0.000001884181    -0.000001615457     0.000007636486
      19        0.000007534007    -0.000001747390    -0.000006522924
      20       -0.000000392167    -0.000000638289     0.000002998228
      21        0.000000297917     0.000000028151    -0.000000419881
      22        0.000000874802     0.000001048641    -0.000000636463
      23        0.000000871116    -0.000000167742    -0.000000732486

  **** Optimization is complete! (in 6 steps) ****
    Final optimized geometry and variables:
    Molecular point group: c1

    Geometry (in Angstrom), charge = 0, multiplicity = 1:

    O            1.846833285090     1.295580997144     0.013243672960
    C            1.705025931726     0.115352056822     0.017062871312
    C            0.381615804441    -0.610245100770     0.014059685608
    O            2.721130463238    -0.738224218859     0.024394737780
    C           -0.823007013146     0.325927169063     0.006142799819
    H            0.374205128972    -1.268525947249    -0.850435441418
    H            0.367315438949    -1.263105982797     0.882519544563
    C           -2.149230957785    -0.434846785058    -0.000842332731
    H           -0.765636756986     0.975160383185    -0.861825300893
    H           -0.775727647777     0.977098995560     0.873454650280
    C           -3.370040442307     0.487174518784     0.011180899833
    H           -2.197207470213    -1.084906512284    -0.873317476609
    H           -2.194777917484    -1.094425952777     0.864759948523
    C           -4.692276334988    -0.268232542624    -0.111214178651
    H           -3.284623563789     1.210653488947    -0.796587779622
    H           -3.369094161548     1.066165997524     0.932199372126
    H           -4.743641285914    -0.820659257666    -1.045204552342
    H           -5.537731233565     0.412009616334    -0.082517558980
    H           -4.813511987527    -0.980486225694     0.700203749447
    C            4.024770605546    -0.185452857837     0.027777558622
    H            4.184126604640     0.417680194202    -0.854464915260
    H            4.701555566410    -1.025627195042     0.033607266467
    H            4.176862930065     0.424056566875     0.906913376554

  Mulliken Charges: (a.u.)
   Center  Symbol    Alpha    Beta     Spin     Total
       1     O     4.28608  4.28608  0.00000 -0.57216
       2     C     2.60486  2.60486  0.00000  0.79028
       3     C     3.20826  3.20826  0.00000 -0.41652
       4     O     4.30741  4.30741  0.00000 -0.61482
       5     C     3.15243  3.15243  0.00000 -0.30485
       6     H     0.40059  0.40059  0.00000  0.19882
       7     H     0.40061  0.40061  0.00000  0.19878
       8     C     3.15348  3.15348  0.00000 -0.30697
       9     H     0.41158  0.41158  0.00000  0.17684
      10     H     0.41173  0.41173  0.00000  0.17653
      11     C     3.15162  3.15162  0.00000 -0.30324
      12     H     0.42406  0.42406  0.00000  0.15189
      13     H     0.42402  0.42402  0.00000  0.15196
      14     C     3.23960  3.23960  0.00000 -0.47920
      15     H     0.42124  0.42124  0.00000  0.15752
      16     H     0.42146  0.42146  0.00000  0.15707
      17     H     0.42169  0.42169  0.00000  0.15662
      18     H     0.41843  0.41843  0.00000  0.16314
      19     H     0.42182  0.42182  0.00000  0.15636
      20     C     3.09245  3.09245  0.00000 -0.18490
      21     H     0.40907  0.40907  0.00000  0.18186
      22     H     0.40842  0.40842  0.00000  0.18315
      23     H     0.40907  0.40907  0.00000  0.18185

   Total alpha = 36.00000, Total beta = 36.00000, Total charge =  0.00000
