  ==> Input File <==

--------------------------------------------------------------------------
set {
	reference rhf
	basis 6-31G*
}

set_num_threads( 4 )
memory 2 gb

molecule MOL {
0 1

H	 2.635680	 2.084523	 -1.055147
N	 1.870744	 1.440783	 -1.118522
C	 1.865559	 0.531981	 0.018834
H	 1.990767	 0.932039	 -1.973861
C	 0.645745	 -0.382037	 -0.029944
H	 1.826592	 1.134001	 0.921559
H	 2.771372	 -0.075713	 0.086724
C	 -0.679275	 0.379305	 0.025956
H	 0.698998	 -0.976915	 -0.937203
H	 0.693479	 -1.083846	 0.802235
C	 -1.903357	 -0.536963	 -0.023547
H	 -0.726309	 1.082987	 -0.803784
H	 -0.717680	 0.977832	 0.934877
C	 -3.225172	 0.228290	 0.028445
H	 -1.867824	 -1.134999	 -0.931459
H	 -1.860449	 -1.239604	 0.805977
H	 -3.313397	 0.915643	 -0.808262
H	 -4.073500	 -0.448134	 -0.008893
H	 -3.306061	 0.809945	 0.942516

	symmetry c1
}
set optking {
	frozen_dihedral = ("
		6 3 5 9
	")
}

ee = optimize('scf')
oeprop('DIPOLE', 'QUADRUPOLE', 'MULLIKEN_CHARGES')
f=open( 'psi4out.xyz', 'w' )
f.write( "19  " )
f.write( str(ee) + "\n" )
f.write( MOL.save_string_xyz() )
f.close()
--------------------------------------------------------------------------

    Molecular point group: c1
  Charge       = 0
  Multiplicity = 1
  Basis Set: 6-31G*
  Basis Set:
  @DF-RHF Final Energy:  -251.35121846683433
    Total Energy =                       -251.3512184668344389
    Molecular point group: c1
  Basis Set: 6-31G*
  Basis Set:
  Basis Set: 6-31G*
  Basis Set:
  @DF-RHF Final Energy:  -251.35138091789682
    Total Energy =                       -251.3513809178969041
  Basis Set: 6-31G*
  Basis Set:
  Basis Set: 6-31G*
  Basis Set:
  @DF-RHF Final Energy:  -251.35142228905457
    Total Energy =                       -251.3514222890546534
  Basis Set: 6-31G*
  Basis Set:
  Basis Set: 6-31G*
  Basis Set:
  @DF-RHF Final Energy:  -251.35142593437416
    Total Energy =                       -251.3514259343742765
  Basis Set: 6-31G*
  Basis Set:
  Basis Set: 6-31G*
  Basis Set:
  @DF-RHF Final Energy:  -251.35142779045503
    Total Energy =                       -251.3514277904549203
  Basis Set: 6-31G*
  Basis Set:
  Charge       = 0
  Multiplicity = 1
  Basis Set: 6-31G*
  Basis Set:

    Orbital Energies (a.u.)
    -----------------------

    Doubly Occupied:

       1A    -15.533515     2A    -11.240725     3A    -11.210447
       4A    -11.208732     5A    -11.202943     6A    -11.202243
       7A     -1.177634     8A     -1.066152     9A     -0.994995
      10A     -0.901248    11A     -0.811052    12A     -0.780426
      13A     -0.665955    14A     -0.633358    15A     -0.618971
      16A     -0.584747    17A     -0.561711    18A     -0.545852
      19A     -0.529965    20A     -0.491483    21A     -0.480208
      22A     -0.460689    23A     -0.455615    24A     -0.447881
      25A     -0.379206

  @DF-RHF Final Energy:  -251.35142841853869

   => Energetics <=

    Nuclear Repulsion Energy =            249.0718278800322594
    One-Electron Energy =                -832.4750012990114101
    Two-Electron Energy =                 332.0517450004402917
    DFT Exchange-Correlation Energy =       0.0000000000000000
    Empirical Dispersion Energy =           0.0000000000000000
    PCM Polarization Energy =               0.0000000000000000
    EFP Energy =                            0.0000000000000000
    Total Energy =                       -251.3514284185388306
    Molecular point group: c1
  Basis Set: 6-31G*
  Basis Set:

  -Total Gradient:
     Atom            X                  Y                   Z
    ------   -----------------  -----------------  -----------------
       1        0.000007934378     0.000005462044    -0.000012470299
       2        0.000015709866    -0.000028689654     0.000010047251
       3       -0.000308005107     0.000416773056    -0.000254865965
       4        0.000001857403     0.000011700175    -0.000016129597
       5       -0.000265753563     0.000358830417    -0.000308834015
       6        0.000287979182    -0.000393347835     0.000288718374
       7        0.000009593084     0.000020364351    -0.000020823643
       8        0.000031024922    -0.000028514409     0.000054570599
       9        0.000276941452    -0.000381477785     0.000293900432
      10       -0.000022377178    -0.000011098900     0.000009481461
      11       -0.000014799950     0.000003566670    -0.000013396590
      12       -0.000000602979     0.000022246355    -0.000023922781
      13       -0.000013734746     0.000005935607    -0.000010474802
      14       -0.000004884332    -0.000010533484     0.000009780711
      15        0.000000415102     0.000006745490     0.000002651120
      16       -0.000004448493     0.000002250479    -0.000006742370
      17        0.000000521109    -0.000005495465    -0.000004974195
      18       -0.000000158543     0.000002241307     0.000004423896
      19        0.000002788388     0.000003041582    -0.000000939589

  **** Optimization is complete! (in 6 steps) ****
    Final optimized geometry and variables:
    Molecular point group: c1

    Geometry (in Angstrom), charge = 0, multiplicity = 1:

    H            2.889707451543     1.779305551649    -0.849977434613
    N            2.124900313191     1.137587325720    -0.931057068548
    C            2.079640212969     0.241181350448     0.215939025895
    H            2.270501667948     0.617516160619    -1.775774305041
    C            0.848664316935    -0.661893167884     0.170944305326
    H            2.044915869951     0.850940908558     1.113866435425
    H            2.971238700045    -0.384197635994     0.299499462118
    C           -0.480772035316     0.091379912258     0.226580454070
    H            0.889071377075    -1.271123240930    -0.731903447503
    H            0.907385103524    -1.359273949242     1.004693702740
    C           -1.695796624955    -0.836914469060     0.176522789268
    H           -0.526042820899     0.800731235398    -0.592746726943
    H           -0.517006231257     0.679541234143     1.142646735481
    C           -3.023916592351    -0.083418836893     0.242059632509
    H           -1.661963766694    -1.426072277744    -0.737897905763
    H           -1.644834228233    -1.548513743744     0.998452511055
    H           -3.120505496919     0.611671507053    -0.587135646669
    H           -3.867573015477    -0.765889992477     0.202283581005
    H           -3.104537243590     0.488877059262     1.162028687691

  Mulliken Charges: (a.u.)
   Center  Symbol    Alpha    Beta     Spin     Total
       1     H     0.33172  0.33172  0.00000  0.33657
       2     N     3.92020  3.92020  0.00000 -0.84039
       3     C     3.06480  3.06480  0.00000 -0.12960
       4     H     0.33537  0.33537  0.00000  0.32926
       5     C     3.15567  3.15567  0.00000 -0.31134
       6     H     0.42079  0.42079  0.00000  0.15843
       7     H     0.43193  0.43193  0.00000  0.13614
       8     C     3.14860  3.14860  0.00000 -0.29720
       9     H     0.42732  0.42732  0.00000  0.14535
      10     H     0.42349  0.42349  0.00000  0.15302
      11     C     3.15163  3.15163  0.00000 -0.30326
      12     H     0.40769  0.40769  0.00000  0.18462
      13     H     0.42706  0.42706  0.00000  0.14588
      14     C     3.23858  3.23858  0.00000 -0.47716
      15     H     0.42483  0.42483  0.00000  0.15035
      16     H     0.42557  0.42557  0.00000  0.14887
      17     H     0.42132  0.42132  0.00000  0.15736
      18     H     0.42105  0.42105  0.00000  0.15790
      19     H     0.42240  0.42240  0.00000  0.15521

   Total alpha = 25.00000, Total beta = 25.00000, Total charge =  0.00000
