  ==> Input File <==

--------------------------------------------------------------------------
set {
	reference rhf
	basis 6-31G*
}

set_num_threads( 4 )
memory 2 gb

molecule MOL {
0 1

H	 -2.710296	 -0.543471	 1.928056
O	 -1.868711	 -0.256024	 1.604199
C	 -2.026376	 0.340750	 0.341611
C	 -0.673256	 0.843270	 -0.132153
H	 -2.420473	 -0.380481	 -0.372147
H	 -2.732366	 1.168585	 0.395656
C	 0.486613	 -0.083066	 0.235839
H	 -0.715586	 0.970948	 -1.210718
H	 -0.508072	 1.829858	 0.297090
C	 1.840406	 0.433480	 -0.254303
H	 0.300215	 -1.068318	 -0.178947
H	 0.519509	 -0.203625	 1.318070
C	 3.000220	 -0.489290	 0.118523
H	 1.809207	 0.553576	 -1.335192
H	 2.021860	 1.424500	 0.157276
H	 2.864959	 -1.479103	 -0.307933
H	 3.946603	 -0.099227	 -0.243630
H	 3.080049	 -0.602997	 1.196117

	symmetry c1
}
set optking {
	frozen_dihedral = ("
		2 3 4 8
	")
}

ee = optimize('scf')
oeprop('DIPOLE', 'QUADRUPOLE', 'MULLIKEN_CHARGES')
f=open( 'psi4out.xyz', 'w' )
f.write( "18  " )
f.write( str(ee) + "\n" )
f.write( MOL.save_string_xyz() )
f.close()
--------------------------------------------------------------------------

    Molecular point group: c1
  Charge       = 0
  Multiplicity = 1
  Basis Set: 6-31G*
  Basis Set:
  @DF-RHF Final Energy:  -271.17653584599680
    Total Energy =                       -271.1765358459966819
    Molecular point group: c1
  Basis Set: 6-31G*
  Basis Set:
  Basis Set: 6-31G*
  Basis Set:
  @DF-RHF Final Energy:  -271.17697375023806
    Total Energy =                       -271.1769737502381190
  Basis Set: 6-31G*
  Basis Set:
  Basis Set: 6-31G*
  Basis Set:
  @DF-RHF Final Energy:  -271.17720081961784
    Total Energy =                       -271.1772008196178376
  Basis Set: 6-31G*
  Basis Set:
  Basis Set: 6-31G*
  Basis Set:
  @DF-RHF Final Energy:  -271.17720393276977
    Total Energy =                       -271.1772039327698849
  Basis Set: 6-31G*
  Basis Set:
  Basis Set: 6-31G*
  Basis Set:
  @DF-RHF Final Energy:  -271.17720522788318
    Total Energy =                       -271.1772052278830643
  Basis Set: 6-31G*
  Basis Set:
  Charge       = 0
  Multiplicity = 1
  Basis Set: 6-31G*
  Basis Set:

    Orbital Energies (a.u.)
    -----------------------

    Doubly Occupied:

       1A    -20.553088     2A    -11.268650     3A    -11.212703
       4A    -11.209326     5A    -11.203860     6A    -11.203267
       7A     -1.360106     8A     -1.072856     9A     -1.006951
      10A     -0.912542    11A     -0.817087    12A     -0.781551
      13A     -0.700845    14A     -0.651459    15A     -0.618895
      16A     -0.580158    17A     -0.571259    18A     -0.555168
      19A     -0.519312    20A     -0.500701    21A     -0.490400
      22A     -0.464050    23A     -0.456523    24A     -0.443269
      25A     -0.429492

  @DF-RHF Final Energy:  -271.17720663288497

   => Energetics <=

    Nuclear Repulsion Energy =            249.7996672976590276
    One-Electron Energy =                -862.7867141727174385
    Two-Electron Energy =                 341.8098402421734363
    DFT Exchange-Correlation Energy =       0.0000000000000000
    Empirical Dispersion Energy =           0.0000000000000000
    PCM Polarization Energy =               0.0000000000000000
    EFP Energy =                            0.0000000000000000
    Total Energy =                       -271.1772066328850315
    Molecular point group: c1
  Basis Set: 6-31G*
  Basis Set:

  -Total Gradient:
     Atom            X                  Y                   Z
    ------   -----------------  -----------------  -----------------
       1        0.000000297763     0.000000245827    -0.000002685967
       2        0.000958196582    -0.003969371663    -0.001897389523
       3       -0.000851563287     0.004061578662     0.002353006937
       4       -0.002000818079     0.005278551025     0.000115400798
       5        0.000000609772     0.000000286061     0.000002205913
       6        0.000002592762    -0.000001801292     0.000005414207
       7       -0.000023650897     0.000011092146    -0.000018324403
       8        0.001907499681    -0.005379263407    -0.000564710337
       9       -0.000003953047     0.000004693776    -0.000001490947
      10        0.000012144849    -0.000000742812    -0.000000590664
      11        0.000004219156    -0.000006874868     0.000001028506
      12       -0.000001085940     0.000002628802     0.000006350077
      13       -0.000000960096    -0.000000451528    -0.000001647697
      14        0.000000255158    -0.000000652569     0.000001285870
      15       -0.000002976285    -0.000000707068     0.000001554703
      16       -0.000000587513    -0.000000819421     0.000000440886
      17       -0.000001217882    -0.000000343613    -0.000000768262
      18        0.000000997301     0.000001951943     0.000000919904

  **** Optimization is complete! (in 6 steps) ****
    Final optimized geometry and variables:
    Molecular point group: c1

    Geometry (in Angstrom), charge = 0, multiplicity = 1:

    H           -2.862849741902    -0.671198109615     1.524953396285
    O           -2.008216340992    -0.366424816966     1.255705343794
    C           -2.100589679528     0.217628144891    -0.018837275229
    C           -0.734642363241     0.747596636696    -0.445772670606
    H           -2.435170153419    -0.528902134309    -0.738031956947
    H           -2.830676255333     1.024360653526    -0.024143280345
    C            0.424348122470    -0.188979798883    -0.090216091067
    H           -0.749854347628     0.856666277153    -1.528169080214
    H           -0.559901920874     1.727454299576    -0.010936932983
    C            1.767298216720     0.312798726190    -0.624331409077
    H            0.222967856338    -1.179630753896    -0.494590213023
    H            0.479268402959    -0.305368958402     0.985897683927
    C            2.931587081212    -0.609707979735    -0.264735773554
    H            1.713548042698     0.419122152962    -1.706189500538
    H            1.962984511133     1.308257107479    -0.230457176249
    H            2.782826618708    -1.605522086031    -0.672897233658
    H            3.871129073427    -0.229558501063    -0.654350402467
    H            3.034738140583    -0.707620603261     0.812148849807

  Mulliken Charges: (a.u.)
   Center  Symbol    Alpha    Beta     Spin     Total
       1     H     0.28045  0.28045  0.00000  0.43909
       2     O     4.36964  4.36964  0.00000 -0.73928
       3     C     2.99462  2.99462  0.00000  0.01076
       4     C     3.16550  3.16550  0.00000 -0.33099
       5     H     0.43239  0.43239  0.00000  0.13522
       6     H     0.42914  0.42914  0.00000  0.14172
       7     C     3.14862  3.14862  0.00000 -0.29724
       8     H     0.42340  0.42340  0.00000  0.15321
       9     H     0.41812  0.41812  0.00000  0.16375
      10     C     3.15236  3.15236  0.00000 -0.30472
      11     H     0.42560  0.42560  0.00000  0.14879
      12     H     0.40737  0.40737  0.00000  0.18527
      13     C     3.23855  3.23855  0.00000 -0.47711
      14     H     0.42591  0.42591  0.00000  0.14817
      15     H     0.42403  0.42403  0.00000  0.15195
      16     H     0.42241  0.42241  0.00000  0.15517
      17     H     0.42089  0.42089  0.00000  0.15821
      18     H     0.42099  0.42099  0.00000  0.15802

   Total alpha = 25.00000, Total beta = 25.00000, Total charge =  0.00000
