  ==> Input File <==

--------------------------------------------------------------------------
set {
	reference rhf
	basis 6-31G*
}

set_num_threads( 4 )
memory 2 gb

molecule MOL {
0 1

H	 -2.499100	 -0.730091	 -0.745082
O	 -2.347518	 -0.290803	 0.079804
C	 -1.184022	 0.487508	 -0.006784
C	 0.062599	 -0.378592	 0.031606
H	 -1.176523	 1.099369	 -0.904519
H	 -1.187323	 1.153111	 0.844927
O	 0.382013	 -0.613936	 1.366660
H	 0.886032	 0.127356	 -0.476288
H	 -0.123686	 -1.310692	 -0.498555
C	 1.494589	 -1.428975	 1.559082
H	 2.390344	 -0.988415	 1.125307
H	 1.638948	 -1.538469	 2.624950
H	 1.346575	 -2.413294	 1.119766

	symmetry c1
}
set optking {
	frozen_dihedral = ("
		8 4 3 5
	")
}

ee = optimize('scf')
oeprop('DIPOLE', 'QUADRUPOLE', 'MULLIKEN_CHARGES')
f=open( 'psi4out.xyz', 'w' )
f.write( "13  " )
f.write( str(ee) + "\n" )
f.write( MOL.save_string_xyz() )
f.close()
--------------------------------------------------------------------------

    Molecular point group: c1
  Charge       = 0
  Multiplicity = 1
  Basis Set: 6-31G*
  Basis Set:
  @DF-RHF Final Energy:  -267.94597659048941
    Total Energy =                       -267.9459765904893516
    Molecular point group: c1
  Basis Set: 6-31G*
  Basis Set:
  Basis Set: 6-31G*
  Basis Set:
  @DF-RHF Final Energy:  -267.94644471496593
    Total Energy =                       -267.9464447149658781
  Basis Set: 6-31G*
  Basis Set:
  Basis Set: 6-31G*
  Basis Set:
  @DF-RHF Final Energy:  -267.94662683807775
    Total Energy =                       -267.9466268380777478
  Basis Set: 6-31G*
  Basis Set:
  Basis Set: 6-31G*
  Basis Set:
  @DF-RHF Final Energy:  -267.94664147549571
    Total Energy =                       -267.9466414754956531
  Basis Set: 6-31G*
  Basis Set:
  Charge       = 0
  Multiplicity = 1
  Basis Set: 6-31G*
  Basis Set:

    Orbital Energies (a.u.)
    -----------------------

    Doubly Occupied:

       1A    -20.559515     2A    -20.555399     3A    -11.273843
       4A    -11.270135     5A    -11.267998     6A     -1.388077
       7A     -1.360595     8A     -1.019050     9A     -0.915736
      10A     -0.842135    11A     -0.698823    12A     -0.676348
      13A     -0.661624    14A     -0.635388    15A     -0.600602
      16A     -0.564763    17A     -0.536234    18A     -0.498799
      19A     -0.475413    20A     -0.436601    21A     -0.419544

  @DF-RHF Final Energy:  -267.94664232730406

   => Energetics <=

    Nuclear Repulsion Energy =            192.1455694310154456
    One-Electron Energy =                -746.8711823146273900
    Two-Electron Energy =                 286.7789705563078542
    DFT Exchange-Correlation Energy =       0.0000000000000000
    Empirical Dispersion Energy =           0.0000000000000000
    PCM Polarization Energy =               0.0000000000000000
    EFP Energy =                            0.0000000000000000
    Total Energy =                       -267.9466423273040618
    Molecular point group: c1
  Basis Set: 6-31G*
  Basis Set:

  -Total Gradient:
     Atom            X                  Y                   Z
    ------   -----------------  -----------------  -----------------
       1       -0.000046999448    -0.000039173014    -0.000003031081
       2       -0.000005314697    -0.000011439625    -0.000053183592
       3       -0.002402418442    -0.003926594196    -0.003030331007
       4        0.001576970462     0.002827547357     0.004508847554
       5        0.001755246407     0.002810235622     0.001864325358
       6        0.000047889495     0.000029889413    -0.000009557042
       7        0.000002498022    -0.000029509900     0.000022278960
       8       -0.000897872143    -0.001686832624    -0.003289956153
       9       -0.000007168048     0.000010949357     0.000022592828
      10       -0.000026506081     0.000001978981    -0.000044054661
      11        0.000013213094     0.000002878116     0.000009167864
      12       -0.000013799328     0.000018683647    -0.000002685883
      13        0.000004260709    -0.000008613133     0.000005586854

  **** Optimization is complete! (in 5 steps) ****
    Final optimized geometry and variables:
    Molecular point group: c1

    Geometry (in Angstrom), charge = 0, multiplicity = 1:

    H           -2.127122283233    -0.363076567911    -1.271346006128
    O           -2.027563966330     0.191917257320    -0.510690266143
    C           -0.850715382127     0.939829921470    -0.622847131662
    C            0.416629240756     0.103539025651    -0.549733015038
    H           -0.839364588316     1.539214859663    -1.531873038687
    H           -0.849340613529     1.629764327130     0.209682609147
    O            0.727165428590    -0.161352973540     0.779437002878
    H            1.234876816887     0.623097996291    -1.050566950133
    H            0.266023946552    -0.829257026768    -1.097526340182
    C            1.827256613759    -0.995363300425     0.956361313415
    H            2.728653327644    -0.564431846863     0.523576070593
    H            1.974219549870    -1.119131210806     2.020190735606
    H            1.662080172120    -1.972852905348     0.507137789205

  Mulliken Charges: (a.u.)
   Center  Symbol    Alpha    Beta     Spin     Total
       1     H     0.28342  0.28342  0.00000  0.43317
       2     O     4.36449  4.36449  0.00000 -0.72899
       3     C     3.00457  3.00457  0.00000 -0.00915
       4     C     2.99640  2.99640  0.00000  0.00720
       5     H     0.43050  0.43050  0.00000  0.13899
       6     H     0.40352  0.40352  0.00000  0.19296
       7     O     4.29915  4.29915  0.00000 -0.59830
       8     H     0.43185  0.43185  0.00000  0.13629
       9     H     0.43657  0.43657  0.00000  0.12687
      10     C     3.08027  3.08027  0.00000 -0.16054
      11     H     0.43047  0.43047  0.00000  0.13907
      12     H     0.40978  0.40978  0.00000  0.18044
      13     H     0.42901  0.42901  0.00000  0.14198

   Total alpha = 21.00000, Total beta = 21.00000, Total charge =  0.00000
