  ==> Input File <==

--------------------------------------------------------------------------
set {
	reference rhf
	basis 6-31G*
}

set_num_threads( 1 )
memory 2 gb

molecule MOL {
0 1

H	 3.664244	 0.365732	 0.839899
O	 2.757858	 0.199199	 1.079664
C	 2.077727	 -0.067559	 -0.035091
C	 0.624473	 -0.343591	 0.253101
O	 2.595655	 -0.075525	 -1.104064
C	 -0.265902	 0.883932	 0.072916
H	 0.324016	 -1.163849	 -0.390541
H	 0.565024	 -0.726111	 1.268924
C	 -1.728698	 0.646073	 0.462102
H	 -0.209144	 1.219470	 -0.958188
H	 0.135059	 1.692851	 0.673903
C	 -2.482460	 -0.343073	 -0.431425
H	 -2.245265	 1.602650	 0.432430
H	 -1.779332	 0.308348	 1.496285
C	 -3.960546	 -0.461025	 -0.060175
H	 -2.395034	 -0.026811	 -1.468912
H	 -2.024850	 -1.327147	 -0.371646
H	 -4.472726	 -1.168004	 -0.705284
H	 -4.465146	 0.496508	 -0.151489
H	 -4.081218	 -0.800940	 0.964585

	symmetry c1
}
set optking {
	frozen_dihedral = ("
		16 12 9 6,
		7 4 6 10,
		12 9 6 10,
		1 2 3 5
	")
}

ee = energy('scf')
oeprop('DIPOLE', 'QUADRUPOLE', 'MULLIKEN_CHARGES')
f=open( 'psi4out.xyz', 'w' )
f.write( "20  " )
f.write( str(ee) + "\n" )
f.write( MOL.save_string_xyz() )
f.close()
--------------------------------------------------------------------------

    Molecular point group: c1

    Geometry (in Angstrom), charge = 0, multiplicity = 1:

       Center              X                  Y                   Z               Mass
    ------------   -----------------  -----------------  -----------------  -----------------
           H          3.666941741595     0.312049757363     0.802085082117     1.007825032070
           O          2.760555741595     0.145516757363     1.041850082117    15.994914619560
           C          2.080424741595    -0.121241242637    -0.072904917883    12.000000000000
           C          0.627170741595    -0.397273242637     0.215287082117    12.000000000000
           O          2.598352741595    -0.129207242637    -1.141877917883    15.994914619560
           C         -0.263204258405     0.830249757363     0.035102082117    12.000000000000
           H          0.326713741595    -1.217531242637    -0.428354917883     1.007825032070
           H          0.567721741595    -0.779793242637     1.231110082117     1.007825032070
           C         -1.726000258405     0.592390757363     0.424288082117    12.000000000000
           H         -0.206446258405     1.165787757363    -0.996001917883     1.007825032070
           H          0.137756741595     1.639168757363     0.636089082117     1.007825032070
           C         -2.479762258405    -0.396755242637    -0.469238917883    12.000000000000
           H         -2.242567258405     1.548967757363     0.394616082117     1.007825032070
           H         -1.776634258405     0.254665757363     1.458471082117     1.007825032070
           C         -3.957848258405    -0.514707242637    -0.097988917883    12.000000000000
           H         -2.392336258405    -0.080493242637    -1.506725917883     1.007825032070
           H         -2.022152258405    -1.380829242637    -0.409459917883     1.007825032070
           H         -4.470028258405    -1.221686242637    -0.743097917883     1.007825032070
           H         -4.462448258405     0.442825757363    -0.189302917883     1.007825032070
           H         -4.078520258405    -0.854622242637     0.926771082117     1.007825032070

  Charge       = 0
  Multiplicity = 1
  Basis Set: 6-31G*
  Basis Set:

    Orbital Energies (a.u.)
    -----------------------

    Doubly Occupied:

       1A    -20.612725     2A    -20.549165     3A    -11.379716
       4A    -11.237819     5A    -11.233230     6A    -11.224830
       7A    -11.222047     8A    -11.213779     9A     -1.473610
      10A     -1.363984    11A     -1.100031    12A     -1.042442
      13A     -0.961728    14A     -0.867615    15A     -0.821076
      16A     -0.787279    17A     -0.701251    18A     -0.686253
      19A     -0.647784    20A     -0.629119    21A     -0.620271
      22A     -0.594311    23A     -0.578427    24A     -0.556197
      25A     -0.538968    26A     -0.520466    27A     -0.497941
      28A     -0.484196    29A     -0.474188    30A     -0.470259
      31A     -0.459173    32A     -0.435984

  @DF-RHF Final Energy:  -383.94628761652342

   => Energetics <=

    Nuclear Repulsion Energy =            375.8482814514891857
    One-Electron Energy =               -1267.6173703754402595
    Two-Electron Energy =                 507.8228013074272553
    DFT Exchange-Correlation Energy =       0.0000000000000000
    Empirical Dispersion Energy =           0.0000000000000000
    PCM Polarization Energy =               0.0000000000000000
    EFP Energy =                            0.0000000000000000
    Total Energy =                       -383.9462876165238754

  Mulliken Charges: (a.u.)
   Center  Symbol    Alpha    Beta     Spin     Total
       1     H     0.26847  0.26847  0.00000  0.46306
       2     O     4.34705  4.34705  0.00000 -0.69411
       3     C     2.63280  2.63280  0.00000  0.73441
       4     C     3.20173  3.20173  0.00000 -0.40346
       5     O     4.27827  4.27827  0.00000 -0.55654
       6     C     3.16471  3.16471  0.00000 -0.32942
       7     H     0.39786  0.39786  0.00000  0.20428
       8     H     0.40225  0.40225  0.00000  0.19551
       9     C     3.15445  3.15445  0.00000 -0.30889
      10     H     0.40815  0.40815  0.00000  0.18370
      11     H     0.41032  0.41032  0.00000  0.17937
      12     C     3.15489  3.15489  0.00000 -0.30978
      13     H     0.41768  0.41768  0.00000  0.16463
      14     H     0.42108  0.42108  0.00000  0.15783
      15     C     3.23968  3.23968  0.00000 -0.47936
      16     H     0.42003  0.42003  0.00000  0.15994
      17     H     0.42125  0.42125  0.00000  0.15751
      18     H     0.41746  0.41746  0.00000  0.16507
      19     H     0.42075  0.42075  0.00000  0.15850
      20     H     0.42112  0.42112  0.00000  0.15776

   Total alpha = 32.00000, Total beta = 32.00000, Total charge =  0.00000
