  ==> Input File <==

--------------------------------------------------------------------------
set {
	reference rhf
	basis 6-31G*
}

set_num_threads( 4 )
memory 2 gb

molecule MOL {
0 1

H	 2.652209	 0.763231	 0.000000
O	 2.263154	 -0.100023	 0.000000
C	 0.912879	 -0.015685	 0.000000
C	 0.333446	 0.966655	 -0.792369
C	 0.115268	 -0.863161	 0.751455
H	 0.969905	 1.613363	 -1.367258
C	 -1.041758	 1.092066	 -0.825462
H	 0.565491	 -1.624942	 1.365872
C	 -1.264541	 -0.725977	 0.708744
H	 -1.485656	 1.854402	 -1.440674
C	 -1.852070	 0.248522	 -0.076635
H	 -1.876579	 -1.387964	 1.295151
H	 -2.921218	 0.352130	 -0.107478

	symmetry c1
}
set optking {
	frozen_dihedral = ("
		4 3 2 1
	")
}

ee = optimize('scf')
oeprop('DIPOLE', 'QUADRUPOLE', 'MULLIKEN_CHARGES')
f=open( 'psi4out.xyz', 'w' )
f.write( "13  " )
f.write( str(ee) + "\n" )
f.write( MOL.save_string_xyz() )
f.close()
--------------------------------------------------------------------------

    Molecular point group: c1
  Charge       = 0
  Multiplicity = 1
  Basis Set: 6-31G*
  Basis Set:
  @DF-RHF Final Energy:  -305.55402625223036
    Total Energy =                       -305.5540262522301873
    Molecular point group: c1
  Basis Set: 6-31G*
  Basis Set:
  Basis Set: 6-31G*
  Basis Set:
  @DF-RHF Final Energy:  -305.55566873861659
    Total Energy =                       -305.5556687386164754
  Basis Set: 6-31G*
  Basis Set:
  Basis Set: 6-31G*
  Basis Set:
  @DF-RHF Final Energy:  -305.55579364460959
    Total Energy =                       -305.5557936446094800
  Basis Set: 6-31G*
  Basis Set:
  Basis Set: 6-31G*
  Basis Set:
  @DF-RHF Final Energy:  -305.55580832895816
    Total Energy =                       -305.5558083289583919
  Basis Set: 6-31G*
  Basis Set:
  Basis Set: 6-31G*
  Basis Set:
  @DF-RHF Final Energy:  -305.55581132513811
    Total Energy =                       -305.5558113251382224
  Basis Set: 6-31G*
  Basis Set:
  Charge       = 0
  Multiplicity = 1
  Basis Set: 6-31G*
  Basis Set:

    Orbital Energies (a.u.)
    -----------------------

    Doubly Occupied:

       1A    -20.584856     2A    -11.294306     3A    -11.236197
       4A    -11.234482     5A    -11.227953     6A    -11.224066
       7A    -11.223131     8A     -1.401896     9A     -1.147372
      10A     -1.018282    11A     -1.003844    12A     -0.841927
      13A     -0.822352    14A     -0.734420    15A     -0.682317
      16A     -0.647962    17A     -0.617187    18A     -0.593005
      19A     -0.588324    20A     -0.541050    21A     -0.513622
      22A     -0.490918    23A     -0.474807    24A     -0.337420
      25A     -0.314611

  @DF-RHF Final Energy:  -305.55581161716344

   => Energetics <=

    Nuclear Repulsion Energy =            272.9381445270362860
    One-Electron Energy =                -955.3953025922326106
    Two-Electron Energy =                 376.9013464480328253
    DFT Exchange-Correlation Energy =       0.0000000000000000
    Empirical Dispersion Energy =           0.0000000000000000
    PCM Polarization Energy =               0.0000000000000000
    EFP Energy =                            0.0000000000000000
    Total Energy =                       -305.5558116171635561
    Molecular point group: c1
  Basis Set: 6-31G*
  Basis Set:

  -Total Gradient:
     Atom            X                  Y                   Z
    ------   -----------------  -----------------  -----------------
       1       -0.000050178962     0.000065407284     0.002495826320
       2        0.000066893842    -0.000742124150    -0.003873462960
       3        0.000136453511     0.001916003762     0.002825964245
       4       -0.000095956779    -0.001213545569    -0.001434031099
       5       -0.000048857024    -0.000017261765    -0.000016919056
       6       -0.000006558891    -0.000005049115     0.000003477137
       7       -0.000000528275    -0.000007405498    -0.000028604209
       8        0.000009301690     0.000007825592    -0.000004862369
       9       -0.000004767134    -0.000000970609    -0.000005449439
      10       -0.000013850080     0.000003432203     0.000007547585
      11        0.000007410870    -0.000016917260     0.000030027458
      12       -0.000000855567     0.000002342285     0.000005700945
      13        0.000001492801     0.000008262840    -0.000005214558

  **** Optimization is complete! (in 6 steps) ****
    Final optimized geometry and variables:
    Molecular point group: c1

    Geometry (in Angstrom), charge = 0, multiplicity = 1:

    H            2.699125177240     0.593205944789     0.052837700525
    O            2.256291774829    -0.243755017668     0.067772639452
    C            0.907330048954    -0.070384629057     0.032240980398
    C            0.317450043710     0.895325042325    -0.768125461016
    C            0.120638606228    -0.933249185595     0.778911937005
    H            0.933940224032     1.546066193820    -1.364165924240
    C           -1.063214478252     1.011229552926    -0.799405573144
    H            0.598865838459    -1.679882466800     1.385214260534
    C           -1.257428638649    -0.817396948336     0.729751611099
    H           -1.515707993555     1.766407405679    -1.417181582774
    C           -1.857787130566     0.156776405043    -0.053919268082
    H           -1.864554520741    -1.488101421070     1.311345097188
    H           -2.928473374754     0.245845947016    -0.084605791599

  Mulliken Charges: (a.u.)
   Center  Symbol    Alpha    Beta     Spin     Total
       1     H     0.27241  0.27241  0.00000  0.45518
       2     O     4.38193  4.38193  0.00000 -0.76385
       3     C     2.80435  2.80435  0.00000  0.39129
       4     C     3.13474  3.13474  0.00000 -0.26949
       5     C     3.12060  3.12060  0.00000 -0.24120
       6     H     0.40137  0.40137  0.00000  0.19726
       7     C     3.09285  3.09285  0.00000 -0.18569
       8     H     0.39191  0.39191  0.00000  0.21619
       9     C     3.09330  3.09330  0.00000 -0.18661
      10     H     0.39830  0.39830  0.00000  0.20341
      11     C     3.11008  3.11008  0.00000 -0.22016
      12     H     0.39800  0.39800  0.00000  0.20400
      13     H     0.40016  0.40016  0.00000  0.19968

   Total alpha = 25.00000, Total beta = 25.00000, Total charge = -0.00000
