  ==> Input File <==

--------------------------------------------------------------------------
set {
	reference rhf
	basis cc-pvtz
}

set_num_threads( 4 )
memory 2 gb

molecule MOL {
0 1

H	 1.128311	 0.207724	 1.465118
C	 1.134565	 0.093781	 0.372499
C	 0.062554	 0.862911	 -0.350953
O	 1.948932	 -0.587720	 -0.146651
C	 0.631195	 1.812846	 -1.409672
H	 -0.533638	 1.393751	 0.379977
H	 -0.576222	 0.128067	 -0.835765
C	 1.436808	 2.966857	 -0.819846
H	 -0.192262	 2.207869	 -1.993153
H	 1.250368	 1.250117	 -2.102786
H	 0.826380	 3.565397	 -0.152999
H	 1.810054	 3.615645	 -1.603047
H	 2.289439	 2.611918	 -0.251450

	symmetry c1
}
set optking {
	frozen_dihedral = ("
		6 3 2 4
	")
}

ee = optimize('scf')
oeprop('DIPOLE', 'QUADRUPOLE', 'MULLIKEN_CHARGES')
f=open( 'psi4out.xyz', 'w' )
f.write( "13  " )
f.write( str(ee) + "\n" )
f.write( MOL.save_string_xyz() )
f.close()
--------------------------------------------------------------------------

    Molecular point group: c1
  Charge       = 0
  Multiplicity = 1
  Basis Set: CC-PVTZ
  Basis Set:
  @DF-RHF Final Energy:  -231.06854165676339
    Total Energy =                       -231.0685416567632444
    Molecular point group: c1
  Basis Set: CC-PVTZ
  Basis Set:
  Basis Set: CC-PVTZ
  Basis Set:
  @DF-RHF Final Energy:  -231.06821069855488
    Total Energy =                       -231.0682106985551059
  Basis Set: CC-PVTZ
  Basis Set:
  Basis Set: CC-PVTZ
  Basis Set:
  @DF-RHF Final Energy:  -231.06864545896528
    Total Energy =                       -231.0686454589651930
  Basis Set: CC-PVTZ
  Basis Set:
  Basis Set: CC-PVTZ
  Basis Set:
  @DF-RHF Final Energy:  -231.06890990490493
    Total Energy =                       -231.0689099049049275
  Basis Set: CC-PVTZ
  Basis Set:
  Charge       = 0
  Multiplicity = 1
  Basis Set: CC-PVTZ
  Basis Set:

    Orbital Energies (a.u.)
    -----------------------

    Doubly Occupied:

       1A    -20.552720     2A    -11.322886     3A    -11.234540
       4A    -11.229380     5A    -11.216767     6A     -1.408344
       7A     -1.081332     8A     -0.972168     9A     -0.853642
      10A     -0.770848    11A     -0.688433    12A     -0.641848
      13A     -0.624575    14A     -0.594793    15A     -0.559164
      16A     -0.535215    17A     -0.503101    18A     -0.487971
      19A     -0.480859    20A     -0.412633

  @DF-RHF Final Energy:  -231.06891033167776

   => Energetics <=

    Nuclear Repulsion Energy =            175.4876797450311017
    One-Electron Energy =                -660.7707382645058942
    Two-Electron Energy =                 254.2141481877968374
    DFT Exchange-Correlation Energy =       0.0000000000000000
    Empirical Dispersion Energy =           0.0000000000000000
    PCM Polarization Energy =               0.0000000000000000
    EFP Energy =                            0.0000000000000000
    Total Energy =                       -231.0689103316779835
    Molecular point group: c1
  Basis Set: CC-PVTZ
  Basis Set:

  -Total Gradient:
     Atom            X                  Y                   Z
    ------   -----------------  -----------------  -----------------
       1       -0.000011621985     0.000033632140     0.000008886157
       2        0.000972719048     0.001151231710    -0.000080790772
       3        0.000535244063     0.000645171274    -0.000025728876
       4       -0.000805861481    -0.000947914814     0.000065985783
       5       -0.000029597152     0.000100292262    -0.000012141333
       6       -0.000713311764    -0.000952740330     0.000053545465
       7        0.000043250722     0.000005821648    -0.000011013728
       8        0.000043228946    -0.000038072775    -0.000005830797
       9       -0.000012425469     0.000007374504     0.000000301396
      10       -0.000018252279     0.000000586976     0.000003290947
      11       -0.000004343225     0.000011434770    -0.000020816513
      12        0.000013620662    -0.000007466044    -0.000009130914
      13       -0.000012650085    -0.000009351323     0.000033443184

  **** Optimization is complete! (in 5 steps) ****
    Final optimized geometry and variables:
    Molecular point group: c1

    Geometry (in Angstrom), charge = 0, multiplicity = 1:

    H            0.060254576666    -0.881727462725     1.953867750682
    C            0.075005108256    -0.944492982003     0.859766213855
    C           -0.995360313959    -0.172340155921     0.120348698376
    O            0.887179632268    -1.612908426205     0.319144337694
    C           -0.429496112399     0.776999090158    -0.939275588453
    H           -1.615918558813     0.360762860231     0.832438858936
    H           -1.626808755517    -0.914171007393    -0.359344458982
    C            0.377002414984     1.932582816680    -0.354090460624
    H           -1.256001902618     1.171640858806    -1.519792045193
    H            0.188637189600     0.204827860204    -1.619648322436
    H           -0.227451892287     2.533031544028     0.317987767242
    H            0.741752480681     2.582927337671    -1.139900459388
    H            1.238897512331     1.576148464227     0.199166293995

  Mulliken Charges: (a.u.)
   Center  Symbol    Alpha    Beta     Spin     Total
       1     H     0.45450  0.45450  0.00000  0.09100
       2     C     2.91497  2.91497  0.00000  0.17006
       3     C     3.09343  3.09343  0.00000 -0.18686
       4     O     4.16842  4.16842  0.00000 -0.33684
       5     C     3.08818  3.08818  0.00000 -0.17636
       6     H     0.44837  0.44837  0.00000  0.10326
       7     H     0.43889  0.43889  0.00000  0.12221
       8     C     3.15153  3.15153  0.00000 -0.30307
       9     H     0.44710  0.44710  0.00000  0.10580
      10     H     0.44272  0.44272  0.00000  0.11457
      11     H     0.45565  0.45565  0.00000  0.08870
      12     H     0.44537  0.44537  0.00000  0.10926
      13     H     0.45086  0.45086  0.00000  0.09828

   Total alpha = 20.00000, Total beta = 20.00000, Total charge = -0.00000
