  ==> Input File <==

--------------------------------------------------------------------------
set {
	reference rhf
	basis 6-31G*
}

set_num_threads( 4 )
memory 2 gb

molecule MOL {
0 1

H	 2.965956	 1.511206	 1.428499
N	 2.128615	 0.963070	 1.384297
C	 1.865559	 0.531981	 0.018834
H	 1.383868	 1.544941	 1.718376
C	 0.645745	 -0.382037	 -0.029944
H	 2.737243	 -0.014640	 -0.327910
H	 1.722341	 1.364887	 -0.674098
C	 -0.679275	 0.379305	 0.025956
H	 0.698998	 -0.976915	 -0.937203
H	 0.693479	 -1.083846	 0.802235
C	 -1.903357	 -0.536963	 -0.023547
H	 -0.726309	 1.082987	 -0.803784
H	 -0.717680	 0.977832	 0.934877
C	 -3.225172	 0.228290	 0.028445
H	 -1.867824	 -1.134999	 -0.931459
H	 -1.860449	 -1.239604	 0.805977
H	 -3.313397	 0.915643	 -0.808262
H	 -4.073500	 -0.448134	 -0.008893
H	 -3.306061	 0.809945	 0.942516

	symmetry c1
}
set optking {
	frozen_dihedral = ("
		6 3 5 9
	")
}

ee = optimize('scf')
oeprop('DIPOLE', 'QUADRUPOLE', 'MULLIKEN_CHARGES')
f=open( 'psi4out.xyz', 'w' )
f.write( "19  " )
f.write( str(ee) + "\n" )
f.write( MOL.save_string_xyz() )
f.close()
--------------------------------------------------------------------------

    Molecular point group: c1
  Charge       = 0
  Multiplicity = 1
  Basis Set: 6-31G*
  Basis Set:
  @DF-RHF Final Energy:  -251.34973405085555
    Total Energy =                       -251.3497340508554885
    Molecular point group: c1
  Basis Set: 6-31G*
  Basis Set:
  Basis Set: 6-31G*
  Basis Set:
  @DF-RHF Final Energy:  -251.34996591118778
    Total Energy =                       -251.3499659111874962
  Basis Set: 6-31G*
  Basis Set:
  Basis Set: 6-31G*
  Basis Set:
  @DF-RHF Final Energy:  -251.35001881688416
    Total Energy =                       -251.3500188168841305
  Basis Set: 6-31G*
  Basis Set:
  Charge       = 0
  Multiplicity = 1
  Basis Set: 6-31G*
  Basis Set:

    Orbital Energies (a.u.)
    -----------------------

    Doubly Occupied:

       1A    -15.532544     2A    -11.239848     3A    -11.214297
       4A    -11.213555     5A    -11.208833     6A    -11.207967
       7A     -1.176608     8A     -1.071943     9A     -0.997436
      10A     -0.905585    11A     -0.814205    12A     -0.783322
      13A     -0.665057    14A     -0.647431    15A     -0.614000
      16A     -0.587293    17A     -0.559249    18A     -0.549964
      19A     -0.532895    20A     -0.500576    21A     -0.486796
      22A     -0.464279    23A     -0.461661    24A     -0.444297
      25A     -0.380621

  @DF-RHF Final Energy:  -251.35001910668981

   => Energetics <=

    Nuclear Repulsion Energy =            248.4620257568258523
    One-Electron Energy =                -831.1035671097565682
    Two-Electron Energy =                 331.2915222462406746
    DFT Exchange-Correlation Energy =       0.0000000000000000
    Empirical Dispersion Energy =           0.0000000000000000
    PCM Polarization Energy =               0.0000000000000000
    EFP Energy =                            0.0000000000000000
    Total Energy =                       -251.3500191066900697
    Molecular point group: c1
  Basis Set: 6-31G*
  Basis Set:

  -Total Gradient:
     Atom            X                  Y                   Z
    ------   -----------------  -----------------  -----------------
       1        0.000033422178     0.000029865759    -0.000016802756
       2       -0.000020355117    -0.000017957116     0.000005079594
       3        0.001016100618    -0.001676253328     0.003863746941
       4       -0.000050674072     0.000012203805     0.000005810946
       5       -0.001927304954     0.002877443831    -0.002413940370
       6       -0.000540017200     0.000878789664    -0.002794790778
       7        0.000004199952     0.000002198018    -0.000007270122
       8       -0.000024916769     0.000030162980    -0.000042167323
       9        0.001460735091    -0.002092929989     0.001419439538
      10        0.000018456510     0.000003728813    -0.000043856930
      11        0.000039801909    -0.000023756497     0.000046174186
      12        0.000013334198    -0.000031754839    -0.000048978233
      13        0.000000627319     0.000022375534    -0.000001309321
      14       -0.000002488239     0.000005461567     0.000033845807
      15       -0.000013649473     0.000012748201    -0.000003247957
      16       -0.000004033127    -0.000029162254    -0.000008799327
      17        0.000008170186    -0.000006359199     0.000004223660
      18       -0.000004035741     0.000000645344     0.000003910838
      19       -0.000007373267     0.000002549705    -0.000001068392

  **** Optimization is complete! (in 4 steps) ****
    Final optimized geometry and variables:
    Molecular point group: c1

    Geometry (in Angstrom), charge = 0, multiplicity = 1:

    H            3.183119149778     1.260054302173     1.178381652893
    N            2.319706612890     0.753253274726     1.140700657364
    C            2.055065874089     0.298409686114    -0.217404532578
    H            1.605468772185     1.383929002979     1.450074623598
    C            0.816606606168    -0.595422259987    -0.283180197892
    H            2.916828453453    -0.265548296952    -0.558392409045
    H            1.938239838048     1.122227607118    -0.927180500920
    C           -0.512359392917     0.160536057618    -0.226458543576
    H            0.861239851750    -1.191600347699    -1.192362365101
    H            0.872014830191    -1.299597836228     0.542642977058
    C           -1.730153442893    -0.763638390170    -0.283886646454
    H           -0.560306370938     0.869473123111    -1.051842650934
    H           -0.563568409152     0.750133112717     0.687485773249
    C           -3.057756613663    -0.009085510286    -0.223287006220
    H           -1.690953086929    -1.352122481218    -1.198137715624
    H           -1.680408037357    -1.473923461912     0.538293111457
    H           -3.151876225256     0.686727817245    -1.052378987263
    H           -3.900861964328    -0.691614851604    -0.267555034671
    H           -3.142864946505     0.561591071371     0.697286545523

  Mulliken Charges: (a.u.)
   Center  Symbol    Alpha    Beta     Spin     Total
       1     H     0.33238  0.33238  0.00000  0.33525
       2     N     3.92159  3.92159  0.00000 -0.84318
       3     C     3.06517  3.06517  0.00000 -0.13034
       4     H     0.33316  0.33316  0.00000  0.33368
       5     C     3.15402  3.15402  0.00000 -0.30805
       6     H     0.41877  0.41877  0.00000  0.16246
       7     H     0.43524  0.43524  0.00000  0.12952
       8     C     3.15442  3.15442  0.00000 -0.30884
       9     H     0.42353  0.42353  0.00000  0.15294
      10     H     0.41258  0.41258  0.00000  0.17483
      11     C     3.15102  3.15102  0.00000 -0.30204
      12     H     0.42477  0.42477  0.00000  0.15046
      13     H     0.42633  0.42633  0.00000  0.14734
      14     C     3.23936  3.23936  0.00000 -0.47871
      15     H     0.42303  0.42303  0.00000  0.15393
      16     H     0.42111  0.42111  0.00000  0.15778
      17     H     0.42229  0.42229  0.00000  0.15543
      18     H     0.41919  0.41919  0.00000  0.16162
      19     H     0.42204  0.42204  0.00000  0.15592

   Total alpha = 25.00000, Total beta = 25.00000, Total charge = -0.00000
