  ==> Input File <==

--------------------------------------------------------------------------
set {
	reference rhf
	basis 6-31G*
}

set_num_threads( 4 )
memory 2 gb

molecule MOL {
0 1

O	 -2.042549	 -1.228399	 -0.269030
C	 -1.653912	 -0.146171	 0.050137
C	 -0.332303	 0.024011	 0.778412
C	 -2.438579	 1.106236	 -0.272369
C	 0.845713	 -0.001731	 -0.208243
H	 -0.323783	 0.953829	 1.340327
H	 -0.235459	 -0.796807	 1.480410
C	 0.418256	 -0.384769	 -1.625844
H	 1.602023	 -0.703085	 0.139866
H	 1.311474	 0.979153	 -0.216893
C	 1.586281	 -0.402432	 -2.611040
H	 -0.055624	 -1.363832	 -1.608547
H	 -0.337606	 0.315702	 -1.973093
H	 2.344385	 -1.119296	 -2.308652
H	 2.060054	 0.572759	 -2.674157
H	 1.253420	 -0.674030	 -3.607767
H	 -3.277823	 0.863061	 -0.908988
H	 -1.806773	 1.843019	 -0.759671
H	 -2.802853	 1.554979	 0.648059

	symmetry c1
}
set optking {
	frozen_dihedral = ("
		9 5 3 2
	")
}

ee = optimize('scf')
oeprop('DIPOLE', 'QUADRUPOLE', 'MULLIKEN_CHARGES')
f=open( 'psi4out.xyz', 'w' )
f.write( "19  " )
f.write( str(ee) + "\n" )
f.write( MOL.save_string_xyz() )
f.close()
--------------------------------------------------------------------------

    Molecular point group: c1
  Charge       = 0
  Multiplicity = 1
  Basis Set: 6-31G*
  Basis Set:
  @DF-RHF Final Energy:  -309.05271537862137
    Total Energy =                       -309.0527153786214285
    Molecular point group: c1
  Basis Set: 6-31G*
  Basis Set:
  Basis Set: 6-31G*
  Basis Set:
  @DF-RHF Final Energy:  -309.05542514216143
    Total Energy =                       -309.0554251421618801
  Basis Set: 6-31G*
  Basis Set:
  Basis Set: 6-31G*
  Basis Set:
  @DF-RHF Final Energy:  -309.05577653175891
    Total Energy =                       -309.0557765317587382
  Basis Set: 6-31G*
  Basis Set:
  Basis Set: 6-31G*
  Basis Set:
  @DF-RHF Final Energy:  -309.05675221434711
    Total Energy =                       -309.0567522143473980
  Basis Set: 6-31G*
  Basis Set:
  @DF-RHF Final Energy:  -309.05681979277449
    Total Energy =                       -309.0568197927742631
  @DF-RHF Final Energy:  -309.05683097050053
    Total Energy =                       -309.0568309704999592
  Basis Set: 6-31G*
  Basis Set:
  @DF-RHF Final Energy:  -309.05684570435636
    Total Energy =                       -309.0568457043560784
  Basis Set: 6-31G*
  Basis Set:
  Basis Set: 6-31G*
  Basis Set:
  @DF-RHF Final Energy:  -309.05685593453751
    Total Energy =                       -309.0568559345373956
  Basis Set: 6-31G*
  Basis Set:
  Basis Set: 6-31G*
  Basis Set:
  @DF-RHF Final Energy:  -309.05686019297542
    Total Energy =                       -309.0568601929755346
  Basis Set: 6-31G*
  Basis Set:
  Charge       = 0
  Multiplicity = 1
  Basis Set: 6-31G*
  Basis Set:

    Orbital Energies (a.u.)
    -----------------------

    Doubly Occupied:

       1A    -20.547699     2A    -11.324944     3A    -11.231729
       4A    -11.229571     5A    -11.227876     6A    -11.221202
       7A    -11.213340     8A     -1.393668     9A     -1.086636
      10A     -1.026380    11A     -0.982662    12A     -0.890835
      13A     -0.811949    14A     -0.724542    15A     -0.659247
      16A     -0.641127    17A     -0.622064    18A     -0.617014
      19A     -0.578879    20A     -0.572193    21A     -0.560676
      22A     -0.540218    23A     -0.508993    24A     -0.492379
      25A     -0.485606    26A     -0.467507    27A     -0.463558
      28A     -0.397183

  @DF-RHF Final Energy:  -309.05686101048661

   => Energetics <=

    Nuclear Repulsion Energy =            309.4077796251046948
    One-Electron Energy =               -1031.8899247088779703
    Two-Electron Energy =                 413.4252840732870595
    DFT Exchange-Correlation Energy =       0.0000000000000000
    Empirical Dispersion Energy =           0.0000000000000000
    PCM Polarization Energy =               0.0000000000000000
    EFP Energy =                            0.0000000000000000
    Total Energy =                       -309.0568610104862159
    Molecular point group: c1
  Basis Set: 6-31G*
  Basis Set:

  -Total Gradient:
     Atom            X                  Y                   Z
    ------   -----------------  -----------------  -----------------
       1       -0.000024322541     0.000015014493    -0.000004135407
       2        0.000206481865    -0.002508190886     0.000186314979
       3       -0.000573717728     0.003018261225    -0.000640068064
       4       -0.000023985106    -0.000050355232     0.000070609935
       5        0.001950310899     0.001979429298     0.002197912473
       6        0.000015317948     0.000000630810    -0.000015463704
       7       -0.000018589708     0.000005235819    -0.000010918074
       8       -0.000032103924     0.000037687880    -0.000006041305
       9       -0.001531936332    -0.002461648786    -0.001714894553
      10        0.000004465787    -0.000000327961    -0.000000356960
      11       -0.000002266749     0.000002913746     0.000009091972
      12       -0.000003180064    -0.000013664599    -0.000008808362
      13        0.000018702305    -0.000021320640    -0.000034653054
      14       -0.000005430464    -0.000007283905     0.000002240513
      15       -0.000007093474     0.000003977033     0.000010764316
      16       -0.000006648837     0.000001471878     0.000000153141
      17        0.000001999165     0.000001075322    -0.000015831226
      18        0.000013608159    -0.000012735174    -0.000012066809
      19        0.000018388798     0.000009829680    -0.000013849812

  **** Optimization is complete! (in 10 steps) ****
    Final optimized geometry and variables:
    Molecular point group: c1

    Geometry (in Angstrom), charge = 0, multiplicity = 1:

    O           -1.669184073517    -1.076602313478     0.554234764993
    C           -1.191776988037     0.003164808701     0.727293813915
    C            0.193476522781     0.163520347001     1.332849821299
    C           -1.949124948988     1.265917753462     0.376863667507
    C            1.365700312702     0.157443871832     0.304624587672
    H            0.228625612252     1.076168053721     1.918881375205
    H            0.313628049137    -0.667387946015     2.016770321819
    C            1.009603308559    -0.236294865311    -1.134886599956
    H            2.108961478866    -0.551303525012     0.654286860734
    H            1.841316919733     1.133105331189     0.294496071965
    C            2.243819395646    -0.268143255233    -2.035657061020
    H            0.530085904396    -1.209385467244    -1.139012177025
    H            0.287980666785     0.462961210306    -1.550863354846
    H            2.972950551966    -0.988607543172    -1.676141535121
    H            2.729967358370     0.702760688036    -2.074200927908
    H            1.978112613165    -0.545766890209    -3.050595988753
    H           -2.824387162420     1.022380699554    -0.209447810688
    H           -1.319737684255     1.963884498750    -0.166189836522
    H           -2.260958730082     1.761494538512     1.292888055185

  Mulliken Charges: (a.u.)
   Center  Symbol    Alpha    Beta     Spin     Total
       1     O     4.26219  4.26219  0.00000 -0.52438
       2     C     2.73702  2.73702  0.00000  0.52596
       3     C     3.20486  3.20486  0.00000 -0.40971
       4     C     3.28882  3.28882  0.00000 -0.57763
       5     C     3.15540  3.15540  0.00000 -0.31080
       6     H     0.41405  0.41405  0.00000  0.17189
       7     H     0.39919  0.39919  0.00000  0.20162
       8     C     3.16602  3.16602  0.00000 -0.33205
       9     H     0.41296  0.41296  0.00000  0.17408
      10     H     0.41800  0.41800  0.00000  0.16400
      11     C     3.24000  3.24000  0.00000 -0.48001
      12     H     0.40474  0.40474  0.00000  0.19052
      13     H     0.42357  0.42357  0.00000  0.15286
      14     H     0.42010  0.42010  0.00000  0.15980
      15     H     0.42237  0.42237  0.00000  0.15526
      16     H     0.41626  0.41626  0.00000  0.16749
      17     H     0.39735  0.39735  0.00000  0.20530
      18     H     0.41096  0.41096  0.00000  0.17807
      19     H     0.40614  0.40614  0.00000  0.18772

   Total alpha = 28.00000, Total beta = 28.00000, Total charge = -0.00000
