                              Psi4 1.0.54 Driver

  ==> Input File <==

--------------------------------------------------------------------------
set {
	reference rhf
	basis cc-pvtz
}

set_num_threads( 4 )
memory 2 gb

molecule MOL {
0 1

H	 2.438262	 0.951817	 0.541529
O	 1.535159	 1.051169	 0.778549
C	 0.700177	 0.619554	 -0.266242
C	 -0.713111	 0.588314	 0.266177
H	 0.984677	 -0.374293	 -0.598286
H	 0.755947	 1.298202	 -1.113416
O	 -1.421673	 -0.521378	 -0.196983
H	 -1.244794	 1.469161	 -0.069059
H	 -0.685100	 0.604721	 1.352683
H	 -0.933408	 -1.297830	 0.014544

	symmetry c1
}
set optking {
	frozen_dihedral = ("
		5 3 4 7
	")
}

ee,wfn = optimize('scf', return_wfn=True)
oeprop( wfn, 'DIPOLE', 'QUADRUPOLE', 'MULLIKEN_CHARGES')
f=open( 'psi4out.xyz', 'w' )
f.write( "10  " )
f.write( str(ee) + "\n" )
f.write( MOL.save_string_xyz() )
f.close()
--------------------------------------------------------------------------

    Molecular point group: c1
  Charge       = 0
  Multiplicity = 1
  Basis Set: CC-PVTZ
  Basis Set:
  @DF-RHF Final Energy:  -229.01968522075126
    Total Energy =                       -229.0196852207511427
    Molecular point group: c1
  Basis Set: CC-PVTZ
  Basis Set:
  Basis Set: CC-PVTZ
  Basis Set:
  @DF-RHF Final Energy:  -229.02091957222851
    Total Energy =                       -229.0209195722283084
  Basis Set: CC-PVTZ
  Basis Set:
  Basis Set: CC-PVTZ
  Basis Set:
  @DF-RHF Final Energy:  -229.02133531153069
    Total Energy =                       -229.0213353115307768
  Basis Set: CC-PVTZ
  Basis Set:
  Basis Set: CC-PVTZ
  Basis Set:
  @DF-RHF Final Energy:  -229.02142335561180
    Total Energy =                       -229.0214233556117733
  Basis Set: CC-PVTZ
  Basis Set:
  Basis Set: CC-PVTZ
  Basis Set:
  @DF-RHF Final Energy:  -229.02142629330839
    Total Energy =                       -229.0214262933085081
  Basis Set: CC-PVTZ
  Basis Set:
  Charge       = 0
  Multiplicity = 1
  Basis Set: CC-PVTZ
  Basis Set:

    Orbital Energies (a.u.)
    -----------------------

    Doubly Occupied:

       1A    -20.556297     2A    -20.550480     3A    -11.271859
       4A    -11.267502     5A     -1.378801     6A     -1.364550
       7A     -0.997257     8A     -0.848886     9A     -0.729851
      10A     -0.672380    11A     -0.656540    12A     -0.612961
      13A     -0.576384    14A     -0.529441    15A     -0.496652
      16A     -0.447411    17A     -0.438293

  @DF-RHF Final Energy:  -229.02142669340711

   => Energetics <=

    Nuclear Repulsion Energy =            131.3512287851189910
    One-Electron Energy =                -573.9542248738894159
    Two-Electron Energy =                 213.5815693953632888
    DFT Exchange-Correlation Energy =       0.0000000000000000
    Empirical Dispersion Energy =           0.0000000000000000
    PCM Polarization Energy =               0.0000000000000000
    EFP Energy =                            0.0000000000000000
    Total Energy =                       -229.0214266934071077
    Molecular point group: c1
  Basis Set: CC-PVTZ
  Basis Set:

  -Total Gradient:
     Atom            X                  Y                   Z
    ------   -----------------  -----------------  -----------------
       1       -0.000010849194     0.000001076087     0.000012998394
       2       -0.000001108418    -0.000001699079    -0.000029185937
       3        0.001898172516    -0.001749135093     0.005008207868
       4       -0.001461720434     0.002503047362    -0.003883518942
       5       -0.001276255219     0.000936012157    -0.003407743240
       6        0.000001822997    -0.000003966008     0.000000061450
       7        0.000868878916    -0.001667388127     0.002299467204
       8       -0.000009407418    -0.000015527012    -0.000003656527
       9       -0.000010771094     0.000003388507     0.000003167311
      10        0.000001237348    -0.000005808792     0.000000202420

  **** Optimization is complete! (in 6 steps) ****
    Final optimized geometry and variables:
    Molecular point group: c1

    Geometry (in Angstrom), charge = 0, multiplicity = 1:

    H            2.391061987865     0.752800855812     0.284465290967
    O            1.528304893545     0.598806507457     0.622185269115
    C            0.670934197061     0.189265051274    -0.406845298050
    C           -0.760703063089     0.175911642640     0.128195229517
    H            0.918919158230    -0.803414026365    -0.773474052819
    H            0.747683287966     0.861198789451    -1.257150124393
    O           -1.514823792150    -0.893757405063    -0.369915499076
    H           -1.285787683665     1.077373071284    -0.151602423156
    H           -0.710302177893     0.145602232421     1.211327327601
    H           -1.206666925708    -1.700572470706     0.000568292341

  Mulliken Charges: (a.u.)
   Center  Symbol    Alpha    Beta     Spin     Total
       1     H     0.39250  0.39250  0.00000  0.21500
       2     O     4.19861  4.19861  0.00000 -0.39723
       3     C     2.96474  2.96474  0.00000  0.07052
       4     C     2.97260  2.97260  0.00000  0.05481
       5     H     0.47881  0.47881  0.00000  0.04239
       6     H     0.47453  0.47453  0.00000  0.05094
       7     O     4.20388  4.20388  0.00000 -0.40775
       8     H     0.45702  0.45702  0.00000  0.08596
       9     H     0.46464  0.46464  0.00000  0.07073
      10     H     0.39268  0.39268  0.00000  0.21463

   Total alpha = 17.00000, Total beta = 17.00000, Total charge =  0.00000

*** Psi4 exiting successfully. Buy a developer a beer!
