  ==> Input File <==

--------------------------------------------------------------------------
set {
	reference rhf
	basis 6-31G*
}

set_num_threads( 1 )
memory 2 gb

molecule MOL {
0 1

H	 3.119448	 -1.054280	 2.085504
O	 2.462742	 -1.232324	 1.419326
C	 1.698241	 -0.147971	 1.292308
C	 0.624473	 -0.343591	 0.253101
O	 1.878342	 0.830986	 1.940554
C	 -0.265902	 0.883932	 0.072916
H	 1.123046	 -0.625095	 -0.668611
H	 0.041532	 -1.211019	 0.552268
C	 -1.728698	 0.646073	 0.462102
H	 -0.209144	 1.219470	 -0.958188
H	 0.135059	 1.692851	 0.673903
C	 -2.482460	 -0.343073	 -0.431425
H	 -2.245265	 1.602650	 0.432430
H	 -1.779332	 0.308348	 1.496285
C	 -3.960546	 -0.461025	 -0.060175
H	 -2.395034	 -0.026811	 -1.468912
H	 -2.024850	 -1.327147	 -0.371646
H	 -4.472726	 -1.168004	 -0.705284
H	 -4.465146	 0.496508	 -0.151489
H	 -4.081218	 -0.800940	 0.964585

	symmetry c1
}
set optking {
	frozen_dihedral = ("
		16 12 9 6,
		12 9 6 10,
		5 3 4 7,
		1 2 3 5
	")
}

ee = energy('scf')
oeprop('DIPOLE', 'QUADRUPOLE', 'MULLIKEN_CHARGES')
f=open( 'psi4out.xyz', 'w' )
f.write( "20  " )
f.write( str(ee) + "\n" )
f.write( MOL.save_string_xyz() )
f.close()
--------------------------------------------------------------------------

    Molecular point group: c1

    Geometry (in Angstrom), charge = 0, multiplicity = 1:

       Center              X                  Y                   Z               Mass
    ------------   -----------------  -----------------  -----------------  -----------------
           H          3.303212566670    -1.015448654024     1.441981599002     1.007825032070
           O          2.646506566670    -1.193492654024     0.775803599002    15.994914619560
           C          1.882005566670    -0.109139654024     0.648785599002    12.000000000000
           C          0.808237566670    -0.304759654024    -0.390421400998    12.000000000000
           O          2.062106566670     0.869817345976     1.297031599002    15.994914619560
           C         -0.082137433330     0.922763345976    -0.570606400998    12.000000000000
           H          1.306810566670    -0.586263654024    -1.312133400998     1.007825032070
           H          0.225296566670    -1.172187654024    -0.091254400998     1.007825032070
           C         -1.544933433330     0.684904345976    -0.181420400998    12.000000000000
           H         -0.025379433330     1.258301345976    -1.601710400998     1.007825032070
           H          0.318823566670     1.731682345976     0.030380599002     1.007825032070
           C         -2.298695433330    -0.304241654024    -1.074947400998    12.000000000000
           H         -2.061500433330     1.641481345976    -0.211092400998     1.007825032070
           H         -1.595567433330     0.347179345976     0.852762599002     1.007825032070
           C         -3.776781433330    -0.422193654024    -0.703697400998    12.000000000000
           H         -2.211269433330     0.012020345976    -2.112434400998     1.007825032070
           H         -1.841085433330    -1.288315654024    -1.015168400998     1.007825032070
           H         -4.288961433330    -1.129172654024    -1.348806400998     1.007825032070
           H         -4.281381433330     0.535339345976    -0.795011400998     1.007825032070
           H         -3.897453433330    -0.762108654024     0.321062599002     1.007825032070

  Charge       = 0
  Multiplicity = 1
  Basis Set: 6-31G*
  Basis Set:

    Orbital Energies (a.u.)
    -----------------------

    Doubly Occupied:

       1A    -20.613341     2A    -20.552610     3A    -11.381804
       4A    -11.238864     5A    -11.219398     6A    -11.218745
       7A    -11.217985     8A    -11.211508     9A     -1.475442
      10A     -1.366837    11A     -1.095097    12A     -1.039921
      13A     -0.959529    14A     -0.869216    15A     -0.816342
      16A     -0.774399    17A     -0.701476    18A     -0.693167
      19A     -0.663291    20A     -0.635448    21A     -0.599116
      22A     -0.594383    23A     -0.574225    24A     -0.553287
      25A     -0.540654    26A     -0.508297    27A     -0.498720
      28A     -0.480374    29A     -0.465994    30A     -0.464278
      31A     -0.454840    32A     -0.447054

  @DF-RHF Final Energy:  -383.94409537687864

   => Energetics <=

    Nuclear Repulsion Energy =            378.4993840426815268
    One-Electron Energy =               -1273.0356884886627995
    Two-Electron Energy =                 510.5922090691017274
    DFT Exchange-Correlation Energy =       0.0000000000000000
    Empirical Dispersion Energy =           0.0000000000000000
    PCM Polarization Energy =               0.0000000000000000
    EFP Energy =                            0.0000000000000000
    Total Energy =                       -383.9440953768795453

  Mulliken Charges: (a.u.)
   Center  Symbol    Alpha    Beta     Spin     Total
       1     H     0.26765  0.26765  0.00000  0.46469
       2     O     4.35016  4.35016  0.00000 -0.70032
       3     C     2.62802  2.62802  0.00000  0.74396
       4     C     3.21376  3.21376  0.00000 -0.42753
       5     O     4.27821  4.27821  0.00000 -0.55643
       6     C     3.16596  3.16596  0.00000 -0.33192
       7     H     0.39485  0.39485  0.00000  0.21031
       8     H     0.39585  0.39585  0.00000  0.20830
       9     C     3.15645  3.15645  0.00000 -0.31290
      10     H     0.41861  0.41861  0.00000  0.16278
      11     H     0.39039  0.39039  0.00000  0.21921
      12     C     3.15389  3.15389  0.00000 -0.30778
      13     H     0.41897  0.41897  0.00000  0.16206
      14     H     0.42147  0.42147  0.00000  0.15706
      15     C     3.23914  3.23914  0.00000 -0.47828
      16     H     0.42253  0.42253  0.00000  0.15495
      17     H     0.42363  0.42363  0.00000  0.15275
      18     H     0.41874  0.41874  0.00000  0.16251
      19     H     0.42056  0.42056  0.00000  0.15888
      20     H     0.42116  0.42116  0.00000  0.15769

   Total alpha = 32.00000, Total beta = 32.00000, Total charge =  0.00000
