  ==> Input File <==

--------------------------------------------------------------------------
set {
	reference rhf
	basis 6-31G*
}

set_num_threads( 4 )
memory 2 gb

molecule MOL {
0 1

H	 -0.826744	 -1.126251	 -0.681292
O	 -1.422729	 -0.573567	 -0.196946
C	 -0.731407	 0.539437	 0.309156
C	 0.680193	 0.672443	 -0.251532
H	 -1.319765	 1.404033	 0.030086
H	 -0.700012	 0.506517	 1.397677
C	 1.599139	 -0.492137	 0.118598
H	 0.616402	 0.758534	 -1.332349
H	 1.107032	 1.602637	 0.117369
H	 1.239738	 -1.428634	 -0.297334
H	 2.601428	 -0.335055	 -0.265730
H	 1.674954	 -0.608418	 1.197020

	symmetry c1
}
set optking {
	frozen_dihedral = ("
		1 2 3 4
	")
}

ee = optimize('scf')
oeprop('DIPOLE', 'QUADRUPOLE', 'MULLIKEN_CHARGES')
f=open( 'psi4out.xyz', 'w' )
f.write( "12  " )
f.write( str(ee) + "\n" )
f.write( MOL.save_string_xyz() )
f.close()
--------------------------------------------------------------------------

    Molecular point group: c1
  Charge       = 0
  Multiplicity = 1
  Basis Set: 6-31G*
  Basis Set:
  @DF-RHF Final Energy:  -193.10649262243058
    Total Energy =                       -193.1064926224306078
    Molecular point group: c1
  Basis Set: 6-31G*
  Basis Set:
  Basis Set: 6-31G*
  Basis Set:
  @DF-RHF Final Energy:  -193.10682039061348
    Total Energy =                       -193.1068203906133931
  Basis Set: 6-31G*
  Basis Set:
  Basis Set: 6-31G*
  Basis Set:
  @DF-RHF Final Energy:  -193.10696691191725
    Total Energy =                       -193.1069669119172545
  Basis Set: 6-31G*
  Basis Set:
  Charge       = 0
  Multiplicity = 1
  Basis Set: 6-31G*
  Basis Set:

    Orbital Energies (a.u.)
    -----------------------

    Doubly Occupied:

       1A    -20.549310     2A    -11.267264     3A    -11.227940
       4A    -11.222835     5A     -1.356885     6A     -1.056074
       7A     -0.929701     8A     -0.819528     9A     -0.671819
      10A     -0.644007    11A     -0.626944    12A     -0.579609
      13A     -0.550255    14A     -0.511404    15A     -0.495283
      16A     -0.465229    17A     -0.430693

  @DF-RHF Final Energy:  -193.10696688530763

   => Energetics <=

    Nuclear Repulsion Energy =            133.0442533745673757
    One-Electron Energy =                -525.4928766049050637
    Two-Electron Energy =                 199.3416563450302306
    DFT Exchange-Correlation Energy =       0.0000000000000000
    Empirical Dispersion Energy =           0.0000000000000000
    PCM Polarization Energy =               0.0000000000000000
    EFP Energy =                            0.0000000000000000
    Total Energy =                       -193.1069668853074859
    Molecular point group: c1
  Basis Set: 6-31G*
  Basis Set:

  -Total Gradient:
     Atom            X                  Y                   Z
    ------   -----------------  -----------------  -----------------
       1       -0.000120035209     0.000211774222    -0.000489490608
       2        0.000322873770    -0.000678997165     0.000774237562
       3       -0.000374328247     0.000645489644    -0.000697055008
       4        0.000140473136    -0.000234125707     0.000437074933
       5        0.000045023790     0.000121203780     0.000068602867
       6        0.000034868502    -0.000051733231    -0.000047175395
       7        0.000025402276    -0.000047248194     0.000009144654
       8       -0.000043983154     0.000068384469    -0.000020317002
       9        0.000001170043    -0.000038890900    -0.000009060581
      10       -0.000069189156     0.000008889421     0.000016739238
      11        0.000037003807     0.000000841900    -0.000012657578
      12        0.000000720446    -0.000005588239    -0.000030043082

  **** Optimization is complete! (in 4 steps) ****
    Final optimized geometry and variables:
    Molecular point group: c1

    Geometry (in Angstrom), charge = 0, multiplicity = 1:

    H           -0.876494904961    -1.133598489314    -0.692296929062
    O           -1.447275750391    -0.568066858021    -0.194959286609
    C           -0.732565415717     0.528888265477     0.319970258178
    C            0.680066830520     0.660475621976    -0.238273174736
    H           -1.299551456813     1.424491214985     0.090533717630
    H           -0.688136153049     0.440168635150     1.402733027007
    C            1.610266367728    -0.491865664876     0.148613601805
    H            0.624664609497     0.747908812084    -1.321559516175
    H            1.100542452881     1.594416000407     0.124716933943
    H            1.258083491278    -1.449849995319    -0.223899141397
    H            2.605075351420    -0.337942422897    -0.255974019420
    H            1.697058915020    -0.574952325742     1.227621411173

  Mulliken Charges: (a.u.)
   Center  Symbol    Alpha    Beta     Spin     Total
       1     H     0.27828  0.27828  0.00000  0.44344
       2     O     4.37862  4.37862  0.00000 -0.75724
       3     C     2.97575  2.97575  0.00000  0.04850
       4     C     3.18625  3.18625  0.00000 -0.37250
       5     H     0.42112  0.42112  0.00000  0.15775
       6     H     0.42812  0.42812  0.00000  0.14377
       7     C     3.24297  3.24297  0.00000 -0.48593
       8     H     0.41739  0.41739  0.00000  0.16522
       9     H     0.41586  0.41586  0.00000  0.16828
      10     H     0.42594  0.42594  0.00000  0.14812
      11     H     0.41400  0.41400  0.00000  0.17199
      12     H     0.41570  0.41570  0.00000  0.16859

   Total alpha = 17.00000, Total beta = 17.00000, Total charge =  0.00000
