  ==> Input File <==

--------------------------------------------------------------------------
set {
	reference rhf
	basis 6-31G*
}

set_num_threads( 1 )
memory 2 gb

molecule MOL {
0 1

H	 1.175985	 -0.087078	 1.689499
O	 1.360519	 -0.289717	 0.782450
C	 0.709265	 0.639550	 -0.033818
C	 -0.793441	 0.596080	 0.058728
H	 1.018084	 0.418877	 -1.049267
H	 1.051250	 1.651169	 0.182278
C	 -1.530462	 -0.493172	 -0.025500
H	 -1.268471	 1.554324	 0.202247
H	 -1.092586	 -1.461565	 -0.186463
H	 -2.602122	 -0.450675	 0.050101

	symmetry c1
}
set optking {
	frozen_dihedral = ("
		5 3 2 1,
		3 4 7 9
	")
}

ee = energy('scf')
oeprop('DIPOLE', 'QUADRUPOLE', 'MULLIKEN_CHARGES')
f=open( 'psi4out.xyz', 'w' )
f.write( "10  " )
f.write( str(ee) + "\n" )
f.write( MOL.save_string_xyz() )
f.close()
--------------------------------------------------------------------------

    Molecular point group: c1

    Geometry (in Angstrom), charge = 0, multiplicity = 1:

       Center              X                  Y                   Z               Mass
    ------------   -----------------  -----------------  -----------------  -----------------
           H          1.164709915441    -0.188957314601     1.458571070533     1.007825032070
           O          1.349243915441    -0.391596314601     0.551522070533    15.994914619560
           C          0.697989915441     0.537670685399    -0.264745929467    12.000000000000
           C         -0.804716084559     0.494200685399    -0.172199929467    12.000000000000
           H          1.006808915441     0.316997685399    -1.280194929467     1.007825032070
           H          1.039974915441     1.549289685399    -0.048649929467     1.007825032070
           C         -1.541737084559    -0.595051314601    -0.256427929467    12.000000000000
           H         -1.279746084559     1.452444685399    -0.028680929467     1.007825032070
           H         -1.103861084559    -1.563444314601    -0.417390929467     1.007825032070
           H         -2.613397084559    -0.552554314601    -0.180826929467     1.007825032070

  Charge       = 0
  Multiplicity = 1
  Basis Set: 6-31G*
  Basis Set:

    Orbital Energies (a.u.)
    -----------------------

    Doubly Occupied:

       1A    -20.556698     2A    -11.274600     3A    -11.227472
       4A    -11.222360     5A     -1.365340     6A     -1.057927
       7A     -0.923647     8A     -0.773241     9A     -0.683587
      10A     -0.654875    11A     -0.607676    12A     -0.579360
      13A     -0.545078    14A     -0.478025    15A     -0.443589
      16A     -0.366554

  @DF-RHF Final Energy:  -191.91299858626559

   => Energetics <=

    Nuclear Repulsion Energy =            118.6523767718195472
    One-Electron Energy =                -495.6106934451141228
    Two-Electron Energy =                 185.0453180870290737
    DFT Exchange-Correlation Energy =       0.0000000000000000
    Empirical Dispersion Energy =           0.0000000000000000
    PCM Polarization Energy =               0.0000000000000000
    EFP Energy =                            0.0000000000000000
    Total Energy =                       -191.9129985862655019

  Mulliken Charges: (a.u.)
   Center  Symbol    Alpha    Beta     Spin     Total
       1     H     0.28229  0.28229  0.00000  0.43542
       2     O     4.36442  4.36442  0.00000 -0.72884
       3     C     3.00220  3.00220  0.00000 -0.00440
       4     C     3.10594  3.10594  0.00000 -0.21189
       5     H     0.40856  0.40856  0.00000  0.18288
       6     H     0.42785  0.42785  0.00000  0.14430
       7     C     3.18424  3.18424  0.00000 -0.36848
       8     H     0.40995  0.40995  0.00000  0.18009
       9     H     0.40404  0.40404  0.00000  0.19193
      10     H     0.41050  0.41050  0.00000  0.17899

   Total alpha = 16.00000, Total beta = 16.00000, Total charge = -0.00000
