  ==> Input File <==

--------------------------------------------------------------------------
set {
	reference rhf
	basis cc-pvtz
}

set_num_threads( 4 )
memory 2 gb

molecule MOL {
0 1

O	 0.886848	 0.314383	 -2.315850
C	 0.285178	 0.620627	 -1.326443
C	 -0.878035	 1.586910	 -1.416248
N	 0.622280	 0.144970	 -0.099307
H	 -0.707375	 2.467264	 -0.809454
H	 -0.975260	 1.879045	 -2.448574
H	 -1.800875	 1.125113	 -1.087487
C	 1.664396	 -0.854993	 0.000772
C	 -0.194467	 0.305222	 1.080098
H	 2.462727	 -0.615153	 -0.690869
H	 1.261798	 -1.821849	 -0.240651
H	 2.081615	 -0.891605	 1.003877
H	 0.446279	 0.376349	 1.949593
H	 -0.784914	 1.204327	 1.036758
H	 -0.863890	 -0.539166	 1.228171

	symmetry c1
}
set optking {
	frozen_dihedral = ("
		2 4 8 10
	")
}

ee = optimize('scf')
oeprop('DIPOLE', 'QUADRUPOLE', 'MULLIKEN_CHARGES')
f=open( 'psi4out.xyz', 'w' )
f.write( "15  " )
f.write( str(ee) + "\n" )
f.write( MOL.save_string_xyz() )
f.close()
--------------------------------------------------------------------------

    Molecular point group: c1
  Charge       = 0
  Multiplicity = 1
  Basis Set: CC-PVTZ
  Basis Set:
  @DF-RHF Final Energy:  -286.13473808031154
    Total Energy =                       -286.1347380803113083
    Molecular point group: c1
  Basis Set: CC-PVTZ
  Basis Set:
  Basis Set: CC-PVTZ
  Basis Set:
  @DF-RHF Final Energy:  -286.13534427678746
    Total Energy =                       -286.1353442767874640
  Basis Set: CC-PVTZ
  Basis Set:
  Basis Set: CC-PVTZ
  Basis Set:
  @DF-RHF Final Energy:  -286.13532103859637
    Total Energy =                       -286.1353210385963735
  Basis Set: CC-PVTZ
  Basis Set:
  Basis Set: CC-PVTZ
  Basis Set:
  @DF-RHF Final Energy:  -286.13547709547731
    Total Energy =                       -286.1354770954774267
  Basis Set: CC-PVTZ
  Basis Set:
  Basis Set: CC-PVTZ
  Basis Set:
  @DF-RHF Final Energy:  -286.13548947219073
    Total Energy =                       -286.1354894721905566
  Basis Set: CC-PVTZ
  Basis Set:
  Basis Set: CC-PVTZ
  Basis Set:
  @DF-RHF Final Energy:  -286.13549437657025
    Total Energy =                       -286.1354943765704206
  Basis Set: CC-PVTZ
  Basis Set:
  Charge       = 0
  Multiplicity = 1
  Basis Set: CC-PVTZ
  Basis Set:

    Orbital Energies (a.u.)
    -----------------------

    Doubly Occupied:

       1A    -20.504874     2A    -15.577825     3A    -11.334243
       4A    -11.263992     5A    -11.246680     6A    -11.226602
       7A     -1.388330     8A     -1.245383     9A     -1.014884
      10A     -0.973242    11A     -0.919810    12A     -0.738618
      13A     -0.682657    14A     -0.661183    15A     -0.653807
      16A     -0.589790    17A     -0.578219    18A     -0.568962
      19A     -0.563119    20A     -0.547472    21A     -0.530350
      22A     -0.504986    23A     -0.414794    24A     -0.371349

  @DF-RHF Final Energy:  -286.13549586024277

   => Energetics <=

    Nuclear Repulsion Energy =            253.0487866170608982
    One-Electron Energy =                -890.1662192070122046
    Two-Electron Energy =                 350.9819367297084227
    DFT Exchange-Correlation Energy =       0.0000000000000000
    Empirical Dispersion Energy =           0.0000000000000000
    PCM Polarization Energy =               0.0000000000000000
    EFP Energy =                            0.0000000000000000
    Total Energy =                       -286.1354958602428269
    Molecular point group: c1
  Basis Set: CC-PVTZ
  Basis Set:

  -Total Gradient:
     Atom            X                  Y                   Z
    ------   -----------------  -----------------  -----------------
       1       -0.000005468358     0.000004226280    -0.000008211634
       2       -0.000271953475    -0.000296535182     0.000042132218
       3       -0.000000246028    -0.000009296156    -0.000032341124
       4        0.000466025561     0.000539813221     0.000134140740
       5        0.000003115131    -0.000004036713    -0.000006765945
       6       -0.000009156124     0.000006997848    -0.000009305115
       7        0.000013191780     0.000005972478    -0.000007404741
       8       -0.000500358836    -0.000544385548    -0.000469042788
       9        0.000032086906     0.000021917481    -0.000020512984
      10        0.000261255468     0.000273751709     0.000334481703
      11        0.000050617677    -0.000001692961     0.000007078096
      12       -0.000036785219     0.000039766873    -0.000020249430
      13       -0.000003503123     0.000003927980     0.000023487111
      14        0.000007391266    -0.000029607606     0.000021115040
      15       -0.000006212626    -0.000010819700     0.000011398851

  **** Optimization is complete! (in 7 steps) ****
    Final optimized geometry and variables:
    Molecular point group: c1

    Geometry (in Angstrom), charge = 0, multiplicity = 1:

    O            0.472213083454    -0.068227365260    -1.636536375588
    C           -0.114307520085     0.273951850770    -0.650113098450
    C           -1.264902277549     1.253371966457    -0.750100747085
    N            0.239998121594    -0.176570761920     0.582239406799
    H           -1.099995406342     2.124811034336    -0.129421065543
    H           -1.341938005110     1.556866520883    -1.780972570537
    H           -2.197114193957     0.793672584198    -0.445029547778
    C            1.269771845866    -1.193743393241     0.653061399674
    C           -0.594614169209    -0.044315009469     1.753422275222
    H            2.044845873540    -0.982261476451    -0.063117694442
    H            0.874634599949    -2.184825972511     0.448536018117
    H            1.695802112908    -1.191438567063     1.647300215501
    H            0.031178827224     0.051343968318     2.631006075623
    H           -1.215081860927     0.833643550657     1.698909280925
    H           -1.238286234595    -0.909891565828     1.894488448044

  Mulliken Charges: (a.u.)
   Center  Symbol    Alpha    Beta     Spin     Total
       1     O     4.21911  4.21911  0.00000 -0.43821
       2     C     2.84495  2.84495  0.00000  0.31011
       3     C     3.16064  3.16064  0.00000 -0.32127
       4     N     3.56435  3.56435  0.00000 -0.12870
       5     H     0.44882  0.44882  0.00000  0.10236
       6     H     0.42872  0.42872  0.00000  0.14256
       7     H     0.44895  0.44895  0.00000  0.10210
       8     C     3.09394  3.09394  0.00000 -0.18789
       9     C     3.09592  3.09592  0.00000 -0.19185
      10     H     0.43133  0.43133  0.00000  0.13735
      11     H     0.45566  0.45566  0.00000  0.08867
      12     H     0.45778  0.45778  0.00000  0.08444
      13     H     0.44866  0.44866  0.00000  0.10268
      14     H     0.44545  0.44545  0.00000  0.10910
      15     H     0.45572  0.45572  0.00000  0.08856

   Total alpha = 24.00000, Total beta = 24.00000, Total charge = -0.00000
