                              Psi4 1.0.54 Driver

  ==> Input File <==

--------------------------------------------------------------------------
set {
	reference rhf
	basis cc-pvtz
}

set_num_threads( 4 )
memory 2 gb

molecule MOL {
0 1

H	 2.768805	 -1.138433	 1.086089
O	 3.462122	 -1.121183	 0.452967
C	 3.202512	 -2.038696	 -0.576617
C	 2.088646	 -1.598381	 -1.514758
H	 4.127013	 -2.130435	 -1.130568
H	 2.976337	 -3.019511	 -0.162735
C	 0.711687	 -1.518279	 -0.859458
H	 2.351480	 -0.631393	 -1.933100
H	 2.052257	 -2.301563	 -2.343377
C	 -0.385969	 -1.105300	 -1.838966
H	 0.746538	 -0.811677	 -0.036961
H	 0.460415	 -2.486566	 -0.429844
C	 -1.798981	 -1.080477	 -1.253274
H	 -0.149674	 -0.125780	 -2.247540
H	 -0.374978	 -1.793527	 -2.679616
C	 -2.041121	 -0.006551	 -0.194127
H	 -2.502597	 -0.927777	 -2.066991
H	 -2.030640	 -2.057244	 -0.834449
C	 -3.489218	 0.042606	 0.286507
H	 -1.766159	 0.964642	 -0.599895
H	 -1.393865	 -0.173036	 0.661645
C	 -4.219984	 1.311773	 -0.139038
H	 -4.022855	 -0.824300	 -0.093339
H	 -3.510372	 -0.038577	 1.370031
H	 -4.244251	 1.405725	 -1.219696
H	 -5.244345	 1.313233	 0.215630
H	 -3.732090	 2.196311	 0.257073

	symmetry c1
}
set optking {
	frozen_dihedral = ("
		20 16 19 22
	")
}

ee,wfn = optimize('scf', return_wfn=True)
oeprop( wfn, 'DIPOLE', 'QUADRUPOLE', 'MULLIKEN_CHARGES')
f=open( 'psi4out.xyz', 'w' )
f.write( "27  " )
f.write( str(ee) + "\n" )
f.write( MOL.save_string_xyz() )
f.close()
--------------------------------------------------------------------------

    Molecular point group: c1
  Charge       = 0
  Multiplicity = 1
  Basis Set: CC-PVTZ
  Basis Set:
  @DF-RHF Final Energy:  -388.42207876051026
    Total Energy =                       -388.4220787605098621
    Molecular point group: c1
  Basis Set: CC-PVTZ
  Basis Set:
  Basis Set: CC-PVTZ
  Basis Set:
  @DF-RHF Final Energy:  -388.42233305034114
    Total Energy =                       -388.4223330503407396
  Basis Set: CC-PVTZ
  Basis Set:
  Basis Set: CC-PVTZ
  Basis Set:
  @DF-RHF Final Energy:  -388.42240362518720
    Total Energy =                       -388.4224036251863481
  Basis Set: CC-PVTZ
  Basis Set:
  Basis Set: CC-PVTZ
  Basis Set:
  @DF-RHF Final Energy:  -388.42239395532022
    Total Energy =                       -388.4223939553202172
  Basis Set: CC-PVTZ
  Basis Set:
  Basis Set: CC-PVTZ
  Basis Set:
  @DF-RHF Final Energy:  -388.42240635073682
    Total Energy =                       -388.4224063507368783
  Basis Set: CC-PVTZ
  Basis Set:
  Charge       = 0
  Multiplicity = 1
  Basis Set: CC-PVTZ
  Basis Set:

    Orbital Energies (a.u.)
    -----------------------

    Doubly Occupied:

       1A    -20.545359     2A    -11.264990     3A    -11.216787
       4A    -11.214526     5A    -11.213669     6A    -11.213585
       7A    -11.213248     8A    -11.211676     9A    -11.207587
      10A     -1.363258    11A     -1.095409    12A     -1.060973
      13A     -1.011645    14A     -0.948638    15A     -0.889460
      16A     -0.823057    17A     -0.800983    18A     -0.777533
      19A     -0.696278    20A     -0.648448    21A     -0.635593
      22A     -0.616431    23A     -0.601981    24A     -0.591951
      25A     -0.580012    26A     -0.554892    27A     -0.540051
      28A     -0.528557    29A     -0.511163    30A     -0.491594
      31A     -0.484760    32A     -0.476475    33A     -0.469399
      34A     -0.459745    35A     -0.449939    36A     -0.440564
      37A     -0.425443

  @DF-RHF Final Energy:  -388.42240635314602

   => Energetics <=

    Nuclear Repulsion Energy =            460.1454574146280265
    One-Electron Energy =               -1438.5844047207519907
    Two-Electron Energy =                 590.0165409529781755
    DFT Exchange-Correlation Energy =       0.0000000000000000
    Empirical Dispersion Energy =           0.0000000000000000
    PCM Polarization Energy =               0.0000000000000000
    EFP Energy =                            0.0000000000000000
    Total Energy =                       -388.4224063531457887
    Molecular point group: c1
  Basis Set: CC-PVTZ
  Basis Set:

  -Total Gradient:
     Atom            X                  Y                   Z
    ------   -----------------  -----------------  -----------------
       1        0.000002675191    -0.000000432255    -0.000000425097
       2       -0.000000198874     0.000000370369    -0.000000937204
       3       -0.000002525795    -0.000006618666     0.000000511998
       4       -0.000003452997    -0.000007626615    -0.000004999276
       5       -0.000000690136    -0.000000166160     0.000000295481
       6        0.000001236136    -0.000000248765     0.000001027213
       7        0.000001285360     0.000011949682    -0.000000699874
       8       -0.000002603272    -0.000000555605     0.000005024775
       9        0.000002263161     0.000001404874    -0.000004644955
      10        0.000007930731    -0.000003607094     0.000003178649
      11       -0.000001073669     0.000001194610    -0.000006511265
      12        0.000000562048     0.000004652507     0.000002154154
      13       -0.000000526719    -0.000001897286     0.000008324830
      14       -0.000001808746     0.000000930963     0.000007618772
      15        0.000004878301     0.000000735084    -0.000004938447
      16        0.000794051403     0.000883305441     0.002375743091
      17        0.000007404065    -0.000000705777    -0.000000843137
      18       -0.000006072017    -0.000000288052     0.000002001805
      19       -0.000633160160    -0.000943733195    -0.001872256909
      20       -0.000532666797    -0.000523572114    -0.001593400412
      21       -0.000011865268     0.000000065964     0.000000850220
      22        0.000369514183     0.000582826178     0.001080184453
      23        0.000000604820     0.000002403697    -0.000001620740
      24        0.000002678969     0.000003220967     0.000000699269
      25        0.000002798757     0.000000300057     0.000002817719
      26       -0.000001517184    -0.000000364352    -0.000001890131
      27        0.000000278508    -0.000003544458     0.000002735016

  **** Optimization is complete! (in 6 steps) ****
    Final optimized geometry and variables:
    Molecular point group: c1

    Geometry (in Angstrom), charge = 0, multiplicity = 1:

    H            3.008034261602    -0.357788214103     1.679733900409
    O            3.698878449889    -0.340945592896     1.044103933700
    C            3.432868647136    -1.254965428971     0.013115584977
    C            2.316609309939    -0.809300800413    -0.919524986766
    H            4.354986246286    -1.347771932070    -0.544592694486
    H            3.205634566147    -2.236180849477     0.425364258547
    C            0.943182023846    -0.722813252534    -0.257791386011
    H            2.581985852214     0.156512644634    -1.338823505936
    H            2.273074413953    -1.512059296932    -1.748128406711
    C           -0.158561910042    -0.312246228360    -1.233803908712
    H            0.983564007544    -0.012544475411     0.561261426299
    H            0.692047978646    -1.688502591109     0.177512648099
    C           -1.569544414043    -0.293286199884    -0.644291749974
    H            0.073326451239     0.668646580866    -1.641656413266
    H           -0.147311012030    -0.999339932494    -2.075408332985
    C           -1.812135900347     0.773982785270     0.424604002328
    H           -2.276504731488    -0.134978695357    -1.454466355800
    H           -1.800202765630    -1.272769910374    -0.231571097958
    C           -3.280648835735     0.835072591438     0.892858565878
    H           -1.523893865233     1.737105685258     0.012610060339
    H           -1.163606446512     0.596303640895     1.273816644788
    C           -4.007724475718     2.101964223030     0.450450623643
    H           -3.817384207188    -0.032692687873     0.523160596745
    H           -3.324160435248     0.772271217032     1.974944586864
    H           -4.002801040929     2.200556314240    -0.630479640116
    H           -5.041613469024     2.097390181085     0.776948793276
    H           -3.532946777707     2.985670487210     0.862949506855

  Mulliken Charges: (a.u.)
   Center  Symbol    Alpha    Beta     Spin     Total
       1     H     0.39231  0.39231  0.00000  0.21537
       2     O     4.20552  4.20552  0.00000 -0.41103
       3     C     2.97995  2.97995  0.00000  0.04010
       4     C     3.08923  3.08923  0.00000 -0.17846
       5     H     0.44857  0.44857  0.00000  0.10286
       6     H     0.46971  0.46971  0.00000  0.06058
       7     C     3.10282  3.10282  0.00000 -0.20564
       8     H     0.45077  0.45077  0.00000  0.09846
       9     H     0.45529  0.45529  0.00000  0.08942
      10     C     3.09882  3.09882  0.00000 -0.19763
      11     H     0.45589  0.45589  0.00000  0.08822
      12     H     0.45363  0.45363  0.00000  0.09274
      13     C     3.09845  3.09845  0.00000 -0.19691
      14     H     0.45146  0.45146  0.00000  0.09708
      15     H     0.44811  0.44811  0.00000  0.10377
      16     C     3.09789  3.09789  0.00000 -0.19577
      17     H     0.44701  0.44701  0.00000  0.10597
      18     H     0.45324  0.45324  0.00000  0.09351
      19     C     3.08918  3.08918  0.00000 -0.17836
      20     H     0.45410  0.45410  0.00000  0.09180
      21     H     0.44782  0.44782  0.00000  0.10435
      22     C     3.14700  3.14700  0.00000 -0.29400
      23     H     0.45431  0.45431  0.00000  0.09137
      24     H     0.44966  0.44966  0.00000  0.10068
      25     H     0.45542  0.45542  0.00000  0.08916
      26     H     0.44942  0.44942  0.00000  0.10116
      27     H     0.45441  0.45441  0.00000  0.09119

   Total alpha = 37.00000, Total beta = 37.00000, Total charge = -0.00000

*** Psi4 exiting successfully. Buy a developer a beer!
