                              Psi4 1.0.54 Driver

  ==> Input File <==

--------------------------------------------------------------------------
set {
	reference rhf
	basis cc-pvtz
}

set_num_threads( 4 )
memory 2 gb

molecule MOL {
0 1

H	 -3.436473	 1.252944	 -1.023892
O	 -3.458596	 0.315260	 -0.960865
C	 -3.176635	 -0.080824	 0.355601
C	 -1.763371	 0.265266	 0.799691
H	 -3.321825	 -1.153438	 0.379502
H	 -3.895468	 0.357385	 1.043382
C	 -0.673390	 -0.426948	 -0.013392
H	 -1.631049	 1.344913	 0.747560
H	 -1.664587	 -0.001624	 1.849167
C	 -0.131766	 -1.686677	 0.657203
H	 0.138749	 0.269908	 -0.188702
H	 -1.071528	 -0.682890	 -0.992415
C	 0.955199	 -2.377408	 -0.164043
H	 0.254138	 -1.425389	 1.637865
H	 -0.948602	 -2.385115	 0.826968
C	 1.473474	 -3.689221	 0.427889
H	 1.789330	 -1.693264	 -0.301968
H	 0.563481	 -2.579481	 -1.157192
C	 2.230516	 -3.539990	 1.745372
H	 2.130514	 -4.157264	 -0.298753
H	 0.640541	 -4.373580	 0.566792
H	 3.066415	 -2.855946	 1.638434
H	 2.626425	 -4.495044	 2.071514
H	 1.595223	 -3.164109	 2.538292

	symmetry c1
}
set optking {
	frozen_dihedral = ("
		11 7 4 3
	")
}

ee,wfn = optimize('scf', return_wfn=True)
oeprop( wfn, 'DIPOLE', 'QUADRUPOLE', 'MULLIKEN_CHARGES')
f=open( 'psi4out.xyz', 'w' )
f.write( "24  " )
f.write( str(ee) + "\n" )
f.write( MOL.save_string_xyz() )
f.close()
--------------------------------------------------------------------------

    Molecular point group: c1
  Charge       = 0
  Multiplicity = 1
  Basis Set: CC-PVTZ
  Basis Set:
  @DF-RHF Final Energy:  -349.37674699168298
    Total Energy =                       -349.3767469916828645
    Molecular point group: c1
  Basis Set: CC-PVTZ
  Basis Set:
  Basis Set: CC-PVTZ
  Basis Set:
  @DF-RHF Final Energy:  -349.37694063243600
    Total Energy =                       -349.3769406324367424
  Basis Set: CC-PVTZ
  Basis Set:
  Basis Set: CC-PVTZ
  Basis Set:
  @DF-RHF Final Energy:  -349.37699612447420
    Total Energy =                       -349.3769961244741467
  Basis Set: CC-PVTZ
  Basis Set:
  Charge       = 0
  Multiplicity = 1
  Basis Set: CC-PVTZ
  Basis Set:

    Orbital Energies (a.u.)
    -----------------------

    Doubly Occupied:

       1A    -20.546716     2A    -11.265652     3A    -11.215139
       4A    -11.211546     5A    -11.210007     6A    -11.208826
       7A    -11.208356     8A    -11.204885     9A     -1.364876
      10A     -1.088880    11A     -1.047934    12A     -0.985192
      13A     -0.915416    14A     -0.855708    15A     -0.799190
      16A     -0.776588    17A     -0.680713    18A     -0.648825
      19A     -0.635316    20A     -0.614334    21A     -0.606755
      22A     -0.576723    23A     -0.555449    24A     -0.544029
      25A     -0.523884    26A     -0.510632    27A     -0.492198
      28A     -0.480633    29A     -0.468865    30A     -0.460022
      31A     -0.452320    32A     -0.440900    33A     -0.425910

  @DF-RHF Final Energy:  -349.37699692017759

   => Energetics <=

    Nuclear Repulsion Energy =            387.6283654861754258
    One-Electron Energy =               -1241.9658857074155094
    Two-Electron Energy =                 504.9605233010626648
    DFT Exchange-Correlation Energy =       0.0000000000000000
    Empirical Dispersion Energy =           0.0000000000000000
    PCM Polarization Energy =               0.0000000000000000
    EFP Energy =                            0.0000000000000000
    Total Energy =                       -349.3769969201774188
    Molecular point group: c1
  Basis Set: CC-PVTZ
  Basis Set:

  -Total Gradient:
     Atom            X                  Y                   Z
    ------   -----------------  -----------------  -----------------
       1        0.000012566059     0.000003833743     0.000022541408
       2        0.000057902942    -0.000091049697    -0.000004551856
       3        0.000002574792     0.001789264035    -0.001457651738
       4       -0.000400286423    -0.002228255595     0.001437734163
       5       -0.000023829931     0.000025853829    -0.000039542810
       6        0.000054342222    -0.000019945732     0.000004677124
       7        0.001606983671    -0.000494083652     0.002625185474
       8        0.000036831512    -0.000097060673    -0.000046851409
       9        0.000038340801    -0.000007024833    -0.000065952621
      10        0.000056384674     0.000039982440     0.000126879031
      11       -0.001337073430     0.000912298308    -0.002620138962
      12       -0.000040676726     0.000101178827     0.000035375700
      13       -0.000036036911     0.000072945059    -0.000037162867
      14       -0.000014873048     0.000003653750    -0.000079439413
      15        0.000040093709     0.000013727444     0.000015212698
      16       -0.000082095896    -0.000023788148     0.000039525075
      17       -0.000035816987    -0.000002335988     0.000044761351
      18        0.000031839653     0.000030972225     0.000015777471
      19        0.000006510593     0.000001725942     0.000013605357
      20       -0.000042394529     0.000017811173     0.000020145951
      21        0.000031894389     0.000005812745     0.000019995614
      22       -0.000021651414    -0.000007542293     0.000004637724
      23       -0.000000404914     0.000006071908    -0.000020959566
      24        0.000058875188    -0.000054044818    -0.000053802896

  **** Optimization is complete! (in 4 steps) ****
    Final optimized geometry and variables:
    Molecular point group: c1

    Geometry (in Angstrom), charge = 0, multiplicity = 1:

    H           -2.788071252845     2.609654861144    -1.395445362179
    O           -2.823551535764     1.672384692626    -1.331479679921
    C           -2.569313398013     1.275202252008    -0.010521992108
    C           -1.171306322284     1.646819023121     0.464401090542
    H           -2.702414713441     0.200747491698     0.004224434533
    H           -3.310520750915     1.700210008236     0.661525464728
    C           -0.044034660188     0.964628895528    -0.325648081743
    H           -1.072020654966     2.727341667743     0.391887620637
    H           -1.089194004021     1.410470352696     1.521451318565
    C            0.495648804355    -0.298184770655     0.341339560651
    H            0.766273052933     1.667765365856    -0.490722939677
    H           -0.414977787756     0.720203474688    -1.315111665490
    C            1.557956807743    -1.005706838921    -0.496901147178
    H            0.900961377185    -0.036950780094     1.313888289175
    H           -0.325889185241    -0.986759027702     0.528128234053
    C            2.071751333189    -2.321299521038     0.090749839651
    H            2.397799103700    -0.332324850463    -0.653563334513
    H            1.144425416121    -1.206518840134    -1.481094547781
    C            2.863713028251    -2.175834643903     1.387933276103
    H            2.703564705751    -2.803246195479    -0.648959856308
    H            1.232799651603    -2.992615319455     0.254270677255
    H            3.705598147835    -1.503524963054     1.256524837993
    H            3.255136746623    -3.134507329483     1.708789938162
    H            2.253914523043    -1.787762256438     2.194749518305

  Mulliken Charges: (a.u.)
   Center  Symbol    Alpha    Beta     Spin     Total
       1     H     0.39510  0.39510  0.00000  0.20979
       2     O     4.20336  4.20336  0.00000 -0.40672
       3     C     2.97538  2.97538  0.00000  0.04923
       4     C     3.10936  3.10936  0.00000 -0.21871
       5     H     0.45842  0.45842  0.00000  0.08317
       6     H     0.46009  0.46009  0.00000  0.07982
       7     C     3.10139  3.10139  0.00000 -0.20278
       8     H     0.45192  0.45192  0.00000  0.09616
       9     H     0.45322  0.45322  0.00000  0.09356
      10     C     3.09149  3.09149  0.00000 -0.18298
      11     H     0.44861  0.44861  0.00000  0.10278
      12     H     0.44357  0.44357  0.00000  0.11285
      13     C     3.09567  3.09567  0.00000 -0.19134
      14     H     0.45288  0.45288  0.00000  0.09424
      15     H     0.45549  0.45549  0.00000  0.08901
      16     C     3.08993  3.08993  0.00000 -0.17986
      17     H     0.45436  0.45436  0.00000  0.09128
      18     H     0.44785  0.44785  0.00000  0.10430
      19     C     3.15234  3.15234  0.00000 -0.30469
      20     H     0.44862  0.44862  0.00000  0.10275
      21     H     0.45490  0.45490  0.00000  0.09019
      22     H     0.45514  0.45514  0.00000  0.08973
      23     H     0.44663  0.44663  0.00000  0.10674
      24     H     0.45427  0.45427  0.00000  0.09147

   Total alpha = 33.00000, Total beta = 33.00000, Total charge = -0.00000

*** Psi4 exiting successfully. Buy a developer a beer!
