  ==> Input File <==

--------------------------------------------------------------------------
set {
	reference rhf
	basis 6-31G*
}

set_num_threads( 1 )
memory 2 gb

molecule MOL {
0 1

H	 -4.236494	 0.538104	 0.039757
O	 -3.517110	 -0.026191	 -0.205115
C	 -2.306886	 0.532354	 0.237577
C	 -1.177863	 -0.397191	 -0.171080
H	 -2.156308	 1.517575	 -0.201710
H	 -2.315015	 0.655684	 1.319734
C	 0.198102	 0.111031	 0.262842
H	 -1.208843	 -0.518759	 -1.250427
H	 -1.368741	 -1.376554	 0.258909
C	 1.331804	 -0.827780	 -0.158768
H	 0.361943	 1.100838	 -0.156218
H	 0.217265	 0.229072	 1.345532
C	 2.723619	 -0.410569	 0.329459
H	 1.342964	 -0.912588	 -1.244120
H	 1.116806	 -1.824343	 0.220779
C	 3.757063	 -0.220096	 -0.782318
H	 3.088111	 -1.169564	 1.017325
H	 2.641555	 0.507573	 0.907772
H	 3.851302	 -1.119149	 -1.385528
H	 3.494803	 0.597378	 -1.445742
H	 4.734927	 0.000918	 -0.365559

	symmetry c1
}
set optking {
	frozen_dihedral = ("
		2 3 4 8,
		8 4 7 10,
		4 7 10 14,
		1 2 3 5
	")
}

ee = energy('scf')
oeprop('DIPOLE', 'QUADRUPOLE', 'MULLIKEN_CHARGES')
f=open( 'psi4out.xyz', 'w' )
f.write( "21  " )
f.write( str(ee) + "\n" )
f.write( MOL.save_string_xyz() )
f.close()
--------------------------------------------------------------------------

    Molecular point group: c1

    Geometry (in Angstrom), charge = 0, multiplicity = 1:

       Center              X                  Y                   Z               Mass
    ------------   -----------------  -----------------  -----------------  -----------------
           H         -4.311841435549     0.702187225516     0.114338464125     1.007825032070
           O         -3.592457435549     0.137892225516    -0.130533535875    15.994914619560
           C         -2.382233435549     0.696437225516     0.312158464125    12.000000000000
           C         -1.253210435549    -0.233107774484    -0.096498535875    12.000000000000
           H         -2.231655435549     1.681658225516    -0.127128535875     1.007825032070
           H         -2.390362435549     0.819767225516     1.394315464125     1.007825032070
           C          0.122754564451     0.275114225516     0.337423464125    12.000000000000
           H         -1.284190435549    -0.354675774484    -1.175845535875     1.007825032070
           H         -1.444088435549    -1.212470774484     0.333490464125     1.007825032070
           C          1.256456564451    -0.663696774484    -0.084186535875    12.000000000000
           H          0.286595564451     1.264921225516    -0.081636535875     1.007825032070
           H          0.141917564451     0.393155225516     1.420113464125     1.007825032070
           C          2.648271564451    -0.246485774484     0.404040464125    12.000000000000
           H          1.267616564451    -0.748504774484    -1.169538535875     1.007825032070
           H          1.041458564451    -1.660259774484     0.295360464125     1.007825032070
           C          3.681715564451    -0.056012774484    -0.707736535875    12.000000000000
           H          3.012763564451    -1.005480774484     1.091906464125     1.007825032070
           H          2.566207564451     0.671656225516     0.982353464125     1.007825032070
           H          3.775954564451    -0.955065774484    -1.310946535875     1.007825032070
           H          3.419455564451     0.761461225516    -1.371160535875     1.007825032070
           H          4.659579564451     0.165001225516    -0.290977535875     1.007825032070

  Charge       = 0
  Multiplicity = 1
  Basis Set: 6-31G*
  Basis Set:

    Orbital Energies (a.u.)
    -----------------------

    Doubly Occupied:

       1A    -20.551811     2A    -11.267051     3A    -11.216603
       4A    -11.213506     5A    -11.212033     6A    -11.210358
       7A    -11.208468     8A     -1.358635     9A     -1.085355
      10A     -1.033842    11A     -0.956270    12A     -0.869810
      13A     -0.803496    14A     -0.787962    15A     -0.692310
      16A     -0.661479    17A     -0.623687    18A     -0.603747
      19A     -0.586123    20A     -0.563359    21A     -0.541337
      22A     -0.523724    23A     -0.507386    24A     -0.486066
      25A     -0.478395    26A     -0.461839    27A     -0.453208
      28A     -0.442314    29A     -0.433930

  @DF-RHF Final Energy:  -310.20829796619228

   => Energetics <=

    Nuclear Repulsion Energy =            309.4852170691860920
    One-Electron Energy =               -1033.7190320754202730
    Two-Electron Energy =                 414.0255170400422458
    DFT Exchange-Correlation Energy =       0.0000000000000000
    Empirical Dispersion Energy =           0.0000000000000000
    PCM Polarization Energy =               0.0000000000000000
    EFP Energy =                            0.0000000000000000
    Total Energy =                       -310.2082979661919353

  Mulliken Charges: (a.u.)
   Center  Symbol    Alpha    Beta     Spin     Total
       1     H     0.28119  0.28119  0.00000  0.43762
       2     O     4.37172  4.37172  0.00000 -0.74344
       3     C     2.98981  2.98981  0.00000  0.02037
       4     C     3.16000  3.16000  0.00000 -0.32001
       5     H     0.43297  0.43297  0.00000  0.13407
       6     H     0.43288  0.43288  0.00000  0.13424
       7     C     3.16198  3.16198  0.00000 -0.32396
       8     H     0.41468  0.41468  0.00000  0.17065
       9     H     0.41469  0.41469  0.00000  0.17063
      10     C     3.15394  3.15394  0.00000 -0.30789
      11     H     0.42309  0.42309  0.00000  0.15381
      12     H     0.42319  0.42319  0.00000  0.15363
      13     C     3.15479  3.15479  0.00000 -0.30957
      14     H     0.41989  0.41989  0.00000  0.16022
      15     H     0.42026  0.42026  0.00000  0.15948
      16     C     3.24005  3.24005  0.00000 -0.48010
      17     H     0.42056  0.42056  0.00000  0.15888
      18     H     0.42087  0.42087  0.00000  0.15826
      19     H     0.42125  0.42125  0.00000  0.15749
      20     H     0.42159  0.42159  0.00000  0.15683
      21     H     0.42061  0.42061  0.00000  0.15879

   Total alpha = 29.00000, Total beta = 29.00000, Total charge = -0.00000
