  ==> Input File <==

--------------------------------------------------------------------------
set {
	reference rhf
	basis cc-pvtz
}

set_num_threads( 4 )
memory 2 gb

molecule MOL {
0 1

H	 1.056649	 0.990570	 1.903651
C	 0.123368	 1.090974	 1.369219
O	 -0.000000	 0.000000	 0.518769
H	 -0.690689	 1.128361	 2.090169
H	 0.135570	 2.027969	 0.816276
C	 -1.165153	 0.000000	 -0.236961
H	 -1.229451	 0.882440	 -0.870223
H	 -2.002557	 0.000000	 0.445289
H	 -1.229451	 -0.882440	 -0.870223

	symmetry c1
}
set optking {
	frozen_dihedral = ("
		2 3 6 7
	")
}

ee = optimize('scf')
oeprop('DIPOLE', 'QUADRUPOLE', 'MULLIKEN_CHARGES')
f=open( 'psi4out.xyz', 'w' )
f.write( "9  " )
f.write( str(ee) + "\n" )
f.write( MOL.save_string_xyz() )
f.close()
--------------------------------------------------------------------------

    Molecular point group: c1
  Charge       = 0
  Multiplicity = 1
  Basis Set: CC-PVTZ
  Basis Set:
  @DF-RHF Final Energy:  -154.12616887129019
    Total Energy =                       -154.1261688712902469
    Molecular point group: c1
  Basis Set: CC-PVTZ
  Basis Set:
  Basis Set: CC-PVTZ
  Basis Set:
  @DF-RHF Final Energy:  -154.12698810811469
    Total Energy =                       -154.1269881081145172
  Basis Set: CC-PVTZ
  Basis Set:
  Basis Set: CC-PVTZ
  Basis Set:
  @DF-RHF Final Energy:  -154.12719375255080
    Total Energy =                       -154.1271937525507383
  Basis Set: CC-PVTZ
  Basis Set:
  Charge       = 0
  Multiplicity = 1
  Basis Set: CC-PVTZ
  Basis Set:

    Orbital Energies (a.u.)
    -----------------------

    Doubly Occupied:

       1A    -20.550449     2A    -11.263250     3A    -11.263225
       4A     -1.382990     5A     -0.975889     6A     -0.872746
       7A     -0.664267     8A     -0.655930     9A     -0.647134
      10A     -0.551528    11A     -0.529840    12A     -0.477095
      13A     -0.420481

  @DF-RHF Final Energy:  -154.12719492420723

   => Energetics <=

    Nuclear Repulsion Energy =             84.8689546388811493
    One-Electron Energy =                -377.4826497168875221
    Two-Electron Energy =                 138.4865001537990565
    DFT Exchange-Correlation Energy =       0.0000000000000000
    Empirical Dispersion Energy =           0.0000000000000000
    PCM Polarization Energy =               0.0000000000000000
    EFP Energy =                            0.0000000000000000
    Total Energy =                       -154.1271949242072878
    Molecular point group: c1
  Basis Set: CC-PVTZ
  Basis Set:

  -Total Gradient:
     Atom            X                  Y                   Z
    ------   -----------------  -----------------  -----------------
       1       -0.000013432075    -0.000086231511    -0.000055525460
       2       -0.000117679800     0.000124692900    -0.000152638416
       3       -0.000034816411    -0.000112877238     0.000088489176
       4        0.000008823895    -0.000020657421     0.000014240151
       5        0.000021214750     0.000030982629     0.000016650804
       6        0.000035914059     0.000019721343    -0.000060456189
       7        0.000008873715     0.000053767977     0.000092183185
       8        0.000030146897    -0.000001076152     0.000030127409
       9        0.000060954972    -0.000008322527     0.000026929338

  **** Optimization is complete! (in 4 steps) ****
    Final optimized geometry and variables:
    Molecular point group: c1

    Geometry (in Angstrom), charge = 0, multiplicity = 1:

    H            1.429304104716     0.607280098859     1.340149112213
    C            0.492854054349     0.714501336831     0.812309496846
    O            0.354365309662    -0.377373045828    -0.034478786566
    H           -0.315523027576     0.760374946780     1.539341018806
    H            0.508770674206     1.650342595178     0.257270594190
    C           -0.816589836087    -0.369811385410    -0.780872562838
    H           -0.878739245507     0.511842792621    -1.415607562695
    H           -1.696713800926    -0.394553552384    -0.141411476290
    H           -0.816466833880    -1.250266991466    -1.406852510350

  Mulliken Charges: (a.u.)
   Center  Symbol    Alpha    Beta     Spin     Total
       1     H     0.44827  0.44827  0.00000  0.10346
       2     C     3.02200  3.02200  0.00000 -0.04400
       3     O     4.16710  4.16710  0.00000 -0.33420
       4     H     0.47314  0.47314  0.00000  0.05372
       5     H     0.47304  0.47304  0.00000  0.05391
       6     C     3.02198  3.02198  0.00000 -0.04396
       7     H     0.47322  0.47322  0.00000  0.05356
       8     H     0.47298  0.47298  0.00000  0.05404
       9     H     0.44827  0.44827  0.00000  0.10347

   Total alpha = 13.00000, Total beta = 13.00000, Total charge =  0.00000
