  ==> Input File <==

--------------------------------------------------------------------------
set {
	reference rhf
	basis 6-31G*
}

set_num_threads( 4 )
memory 2 gb

molecule MOL {
0 1

H	 -3.161837	 0.500524	 -0.000234
C	 -2.367097	 -0.232926	 -0.000000
O	 -1.158440	 0.455814	 -0.000122
H	 -2.468853	 -0.861886	 -0.882833
H	 -2.468942	 -0.861421	 0.883154
C	 -0.029776	 -0.365156	 0.000148
C	 1.212217	 0.508981	 0.000007
H	 -0.036772	 -1.013236	 -0.877259
H	 -0.036869	 -1.012778	 0.877897
C	 0.942689	 1.907226	 -0.554202
H	 1.587114	 0.574548	 1.016774
H	 1.980972	 0.014829	 -0.586106
H	 0.192607	 2.428903	 0.033720
H	 1.845368	 2.508800	 -0.543025
H	 0.588534	 1.865208	 -1.580464

	symmetry c1
}
set optking {
	frozen_dihedral = ("
		11 7 6 8
	")
}

ee = optimize('scf')
oeprop('DIPOLE', 'QUADRUPOLE', 'MULLIKEN_CHARGES')
f=open( 'psi4out.xyz', 'w' )
f.write( "15  " )
f.write( str(ee) + "\n" )
f.write( MOL.save_string_xyz() )
f.close()
--------------------------------------------------------------------------

    Molecular point group: c1
  Charge       = 0
  Multiplicity = 1
  Basis Set: 6-31G*
  Basis Set:
  @DF-RHF Final Energy:  -232.13262187349727
    Total Energy =                       -232.1326218734972713
    Molecular point group: c1
  Basis Set: 6-31G*
  Basis Set:
  Basis Set: 6-31G*
  Basis Set:
  @DF-RHF Final Energy:  -232.13344384139995
    Total Energy =                       -232.1334438413998669
  Basis Set: 6-31G*
  Basis Set:
  Basis Set: 6-31G*
  Basis Set:
  @DF-RHF Final Energy:  -232.13423146106786
    Total Energy =                       -232.1342314610677704
  Basis Set: 6-31G*
  Basis Set:
  Basis Set: 6-31G*
  Basis Set:
  @DF-RHF Final Energy:  -232.13426899407989
    Total Energy =                       -232.1342689940798323
  Basis Set: 6-31G*
  Basis Set:
  Basis Set: 6-31G*
  Basis Set:
  @DF-RHF Final Energy:  -232.13427154401600
    Total Energy =                       -232.1342715440158599
  Basis Set: 6-31G*
  Basis Set:
  Charge       = 0
  Multiplicity = 1
  Basis Set: 6-31G*
  Basis Set:

    Orbital Energies (a.u.)
    -----------------------

    Doubly Occupied:

       1A    -20.555063     2A    -11.267176     3A    -11.265048
       4A    -11.215528     5A    -11.201257     6A     -1.380145
       7A     -1.049950     8A     -0.949255     9A     -0.890465
      10A     -0.794427    11A     -0.671223    12A     -0.658523
      13A     -0.635112    14A     -0.599383    15A     -0.554227
      16A     -0.541804    17A     -0.505608    18A     -0.483516
      19A     -0.472369    20A     -0.459756    21A     -0.410254

  @DF-RHF Final Energy:  -232.13427363152812

   => Energetics <=

    Nuclear Repulsion Energy =            193.2278703292209912
    One-Electron Energy =                -697.6041113292151294
    Two-Electron Energy =                 272.2419673684660211
    DFT Exchange-Correlation Energy =       0.0000000000000000
    Empirical Dispersion Energy =           0.0000000000000000
    PCM Polarization Energy =               0.0000000000000000
    EFP Energy =                            0.0000000000000000
    Total Energy =                       -232.1342736315281172
    Molecular point group: c1
  Basis Set: 6-31G*
  Basis Set:

  -Total Gradient:
     Atom            X                  Y                   Z
    ------   -----------------  -----------------  -----------------
       1        0.000021715792     0.000014239882     0.000000215387
       2        0.000033113199    -0.000008259329    -0.000002302576
       3       -0.000103613965     0.000064759093     0.000003714218
       4        0.000001260916     0.000000701371    -0.000007876671
       5        0.000004096956     0.000002204287     0.000007313457
       6       -0.002838474494     0.004270127273    -0.004117374498
       7       -0.003626656821     0.005014390798     0.002009195727
       8        0.002998849668    -0.004393425319     0.003122112353
       9        0.000025962979    -0.000008011729    -0.000000033151
      10       -0.000006483613     0.000000332389    -0.000011940790
      11        0.003493275135    -0.004968400228    -0.000996463277
      12        0.000007862697    -0.000006727941    -0.000005411519
      13       -0.000001812975     0.000005247905    -0.000006134020
      14       -0.000011140387     0.000001091920     0.000003460059
      15        0.000002044914     0.000011729629     0.000001525301

  **** Optimization is complete! (in 6 steps) ****
    Final optimized geometry and variables:
    Molecular point group: c1

    Geometry (in Angstrom), charge = 0, multiplicity = 1:

    H           -2.893404213314    -0.041652471072     0.168760363578
    C           -2.070959158913    -0.742795580674     0.129803639458
    O           -0.890171564037    -0.007757224165     0.138156429365
    H           -2.161093994009    -1.341834568769    -0.774741540003
    H           -2.133277573254    -1.407276397597     0.989881487601
    C            0.264993213775    -0.786169999909     0.083579087362
    C            1.521221104568     0.092014124979     0.127845911691
    H            0.271683282315    -1.415191491593    -0.807046982539
    H            0.279544515277    -1.477810922879     0.926787223903
    C            1.347082262072     1.485596858471    -0.471057969973
    H            1.894625862968     0.148294760013     1.146122221882
    H            2.300047122011    -0.433762404594    -0.420708181868
    H            0.621000191600     2.064791664899     0.083939740806
    H            2.292616351730     2.019052588193    -0.459568817345
    H            1.006857475429     1.429289541995    -1.500212699849

  Mulliken Charges: (a.u.)
   Center  Symbol    Alpha    Beta     Spin     Total
       1     H     0.41201  0.41201  0.00000  0.17599
       2     C     3.07930  3.07930  0.00000 -0.15859
       3     O     4.30316  4.30316  0.00000 -0.60633
       4     H     0.42986  0.42986  0.00000  0.14029
       5     H     0.43003  0.43003  0.00000  0.13994
       6     C     2.98616  2.98616  0.00000  0.02768
       7     C     3.16897  3.16897  0.00000 -0.33793
       8     H     0.43220  0.43220  0.00000  0.13560
       9     H     0.43127  0.43127  0.00000  0.13747
      10     C     3.23311  3.23311  0.00000 -0.46621
      11     H     0.41814  0.41814  0.00000  0.16371
      12     H     0.42216  0.42216  0.00000  0.15569
      13     H     0.40872  0.40872  0.00000  0.18255
      14     H     0.42399  0.42399  0.00000  0.15202
      15     H     0.42093  0.42093  0.00000  0.15813

   Total alpha = 21.00000, Total beta = 21.00000, Total charge = -0.00000
