  ==> Input File <==

--------------------------------------------------------------------------
set {
	reference rhf
	basis cc-pvtz
}

set_num_threads( 4 )
memory 2 gb

molecule MOL {
0 1

H	 -3.436473	 1.252944	 -1.023892
O	 -3.458596	 0.315260	 -0.960865
C	 -3.176635	 -0.080824	 0.355601
C	 -1.763371	 0.265266	 0.799691
H	 -3.321825	 -1.153438	 0.379502
H	 -3.895468	 0.357385	 1.043382
C	 -0.673390	 -0.426948	 -0.013392
H	 -1.631049	 1.344913	 0.747560
H	 -1.664587	 -0.001624	 1.849167
C	 0.737842	 -0.043159	 0.423759
H	 -0.806103	 -0.190518	 -1.063345
H	 -0.797221	 -1.503753	 0.074146
C	 1.824000	 -0.743224	 -0.390623
H	 0.850588	 1.033777	 0.343840
H	 0.868587	 -0.286314	 1.476203
C	 3.255957	 -0.453067	 0.062319
H	 1.718250	 -0.470599	 -1.438164
H	 1.658105	 -1.815850	 -0.339904
C	 3.668650	 1.014220	 -0.026544
H	 3.934357	 -1.041868	 -0.547486
H	 3.386793	 -0.802674	 1.083141
H	 3.542733	 1.393346	 -1.035744
H	 4.711304	 1.137296	 0.243581
H	 3.085228	 1.640926	 0.637130

	symmetry c1
}
set optking {
	frozen_dihedral = ("
		20 16 13 17
	")
}

ee = optimize('scf')
oeprop('DIPOLE', 'QUADRUPOLE', 'MULLIKEN_CHARGES')
f=open( 'psi4out.xyz', 'w' )
f.write( "24  " )
f.write( str(ee) + "\n" )
f.write( MOL.save_string_xyz() )
f.close()
--------------------------------------------------------------------------

    Molecular point group: c1
  Charge       = 0
  Multiplicity = 1
  Basis Set: CC-PVTZ
  Basis Set:
  @DF-RHF Final Energy:  -349.38033747229235
    Total Energy =                       -349.3803374722923536
    Molecular point group: c1
  Basis Set: CC-PVTZ
  Basis Set:
  Basis Set: CC-PVTZ
  Basis Set:
  @DF-RHF Final Energy:  -349.38032001892708
    Total Energy =                       -349.3803200189266818
  Basis Set: CC-PVTZ
  Basis Set:
  Basis Set: CC-PVTZ
  Basis Set:
  @DF-RHF Final Energy:  -349.38036338502798
    Total Energy =                       -349.3803633850278629
  Basis Set: CC-PVTZ
  Basis Set:
  Charge       = 0
  Multiplicity = 1
  Basis Set: CC-PVTZ
  Basis Set:

    Orbital Energies (a.u.)
    -----------------------

    Doubly Occupied:

       1A    -20.546265     2A    -11.265514     3A    -11.215172
       4A    -11.212142     5A    -11.210222     6A    -11.209422
       7A    -11.208976     8A    -11.205210     9A     -1.364121
      10A     -1.089881    11A     -1.049389    12A     -0.986615
      13A     -0.916092    14A     -0.851749    15A     -0.801695
      16A     -0.775638    17A     -0.681899    18A     -0.654720
      19A     -0.627043    20A     -0.621053    21A     -0.597520
      22A     -0.586183    23A     -0.558331    24A     -0.542449
      25A     -0.515904    26A     -0.508905    27A     -0.500838
      28A     -0.473127    29A     -0.467971    30A     -0.461076
      31A     -0.455895    32A     -0.451354    33A     -0.421360

  @DF-RHF Final Energy:  -349.38036356497656

   => Energetics <=

    Nuclear Repulsion Energy =            385.0223908489511473
    One-Electron Energy =               -1236.7380520834556137
    Two-Electron Energy =                 502.3352976695282450
    DFT Exchange-Correlation Energy =       0.0000000000000000
    Empirical Dispersion Energy =           0.0000000000000000
    PCM Polarization Energy =               0.0000000000000000
    EFP Energy =                            0.0000000000000000
    Total Energy =                       -349.3803635649762782
    Molecular point group: c1
  Basis Set: CC-PVTZ
  Basis Set:

  -Total Gradient:
     Atom            X                  Y                   Z
    ------   -----------------  -----------------  -----------------
       1       -0.000000862445     0.000001557266    -0.000003077144
       2        0.000001324352     0.000006965091    -0.000000500385
       3        0.000000505369    -0.000015614560     0.000004885179
       4       -0.000000310775    -0.000014155717     0.000018369564
       5       -0.000001224791    -0.000000731165     0.000003730571
       6        0.000001126168     0.000001034600    -0.000001687445
       7        0.000007564268    -0.000010789032    -0.000012373914
       8        0.000001278706    -0.000006927364    -0.000006148009
       9       -0.000003591954     0.000005987032     0.000008678905
      10       -0.000002062673     0.000048705978    -0.000035499839
      11        0.000004519105     0.000008990813     0.000004607641
      12       -0.000006013233    -0.000004145781    -0.000010457778
      13       -0.000275113279     0.001116363342     0.000201416390
      14        0.000008323118     0.000007172154    -0.000005089349
      15        0.000010175378    -0.000000380196    -0.000018544222
      16       -0.000017550843    -0.000988191398     0.000645662428
      17        0.000218656951    -0.000793842607    -0.000211861447
      18       -0.000006146855    -0.000018396042    -0.000013786945
      19       -0.000001314109    -0.000008069603     0.000014865112
      20        0.000056061783     0.000645541260    -0.000578587700
      21        0.000001553049     0.000009030832    -0.000001706899
      22        0.000002038642    -0.000002060144    -0.000001852970
      23        0.000001249260     0.000002198966     0.000001349034
      24       -0.000000185191     0.000009756276    -0.000002390785

  **** Optimization is complete! (in 4 steps) ****
    Final optimized geometry and variables:
    Molecular point group: c1

    Geometry (in Angstrom), charge = 0, multiplicity = 1:

    H           -3.446308047211     1.230698666357    -1.041483625104
    O           -3.462334159562     0.293352051608    -0.972155688604
    C           -3.174221052235    -0.091988789763     0.346078516560
    C           -1.761820375650     0.265834563999     0.783645594829
    H           -3.312722951316    -1.165301624174     0.377332250106
    H           -3.893873370538     0.346245675991     1.032996006107
    C           -0.669891032198    -0.423023210058    -0.029672947679
    H           -1.636940192675     1.346064032530     0.725705258582
    H           -1.657759955093     0.004878325905     1.834115942769
    C            0.740302016019    -0.031863049157     0.404456953901
    H           -0.805246016537    -0.189423334482    -1.079960444265
    H           -0.788732702267    -1.500158504923     0.060336685281
    C            1.827519032941    -0.729333611841    -0.410025332117
    H            0.848161032732     1.045225414759     0.321508729782
    H            0.873648254117    -0.271679358349     1.457459304033
    C            3.260079288722    -0.457503229686     0.052337867217
    H            1.730716670039    -0.450895644247    -1.456894870906
    H            1.655414940211    -1.801738542105    -0.370986058448
    C            3.694605717745     1.003895829530    -0.035400996797
    H            3.933058306090    -1.052297117677    -0.557693956295
    H            3.381502923659    -0.808206162131     1.073747148056
    H            3.565443117138     1.388974530157    -1.042059537103
    H            4.741638422870     1.109064595713     0.225170985872
    H            3.127784408189     1.637387304208     0.636038997029

  Mulliken Charges: (a.u.)
   Center  Symbol    Alpha    Beta     Spin     Total
       1     H     0.39530  0.39530  0.00000  0.20940
       2     O     4.20372  4.20372  0.00000 -0.40745
       3     C     2.97773  2.97773  0.00000  0.04454
       4     C     3.10181  3.10181  0.00000 -0.20362
       5     H     0.45891  0.45891  0.00000  0.08217
       6     H     0.46033  0.46033  0.00000  0.07933
       7     C     3.08678  3.08678  0.00000 -0.17355
       8     H     0.45926  0.45926  0.00000  0.08148
       9     H     0.45342  0.45342  0.00000  0.09315
      10     C     3.09202  3.09202  0.00000 -0.18404
      11     H     0.44648  0.44648  0.00000  0.10704
      12     H     0.45499  0.45499  0.00000  0.09002
      13     C     3.09495  3.09495  0.00000 -0.18990
      14     H     0.45298  0.45298  0.00000  0.09404
      15     H     0.45607  0.45607  0.00000  0.08786
      16     C     3.09004  3.09004  0.00000 -0.18009
      17     H     0.45308  0.45308  0.00000  0.09384
      18     H     0.45002  0.45002  0.00000  0.09996
      19     C     3.15369  3.15369  0.00000 -0.30738
      20     H     0.44884  0.44884  0.00000  0.10231
      21     H     0.45467  0.45467  0.00000  0.09066
      22     H     0.45470  0.45470  0.00000  0.09060
      23     H     0.44637  0.44637  0.00000  0.10727
      24     H     0.45383  0.45383  0.00000  0.09234

   Total alpha = 33.00000, Total beta = 33.00000, Total charge = -0.00000
