  ==> Input File <==

--------------------------------------------------------------------------
set {
	reference rhf
	basis 6-31G*
}

set_num_threads( 1 )
memory 2 gb

molecule MOL {
0 1

O	 1.807713	 1.250445	 -0.338081
C	 1.705091	 0.115954	 0.001797
C	 0.436059	 -0.546325	 0.480138
O	 2.721346	 -0.737485	 -0.000216
C	 -0.766969	 0.391741	 0.500140
H	 0.255735	 -1.404299	 -0.161796
H	 0.634605	 -0.953157	 1.467957
C	 -2.038210	 -0.304995	 0.987548
H	 -0.924648	 0.792313	 -0.496288
H	 -0.545916	 1.243314	 1.135961
C	 -3.255235	 0.621318	 1.013101
H	 -2.252498	 -1.160086	 0.348098
H	 -1.872936	 -0.706557	 1.986204
C	 -4.524841	 -0.075079	 1.501345
H	 -3.423238	 1.021301	 0.015640
H	 -3.043046	 1.475551	 1.652162
H	 -4.783024	 -0.914114	 0.861364
H	 -5.369269	 0.607082	 1.508410
H	 -4.399627	 -0.456682	 2.510806
C	 4.024888	 -0.184556	 -0.001949
H	 4.179030	 0.422472	 -0.882452
H	 4.701782	 -1.024608	 -0.003642
H	 4.181981	 0.421185	 0.878906

	symmetry c1
}
set optking {
	frozen_dihedral = ("
		15 11 8 12,
		9 5 8 12,
		1 2 3 6,
		9 5 3 6
	")
}

ee = energy('scf')
oeprop('DIPOLE', 'QUADRUPOLE', 'MULLIKEN_CHARGES')
f=open( 'psi4out.xyz', 'w' )
f.write( "23  " )
f.write( str(ee) + "\n" )
f.write( MOL.save_string_xyz() )
f.close()
--------------------------------------------------------------------------

    Molecular point group: c1

    Geometry (in Angstrom), charge = 0, multiplicity = 1:

       Center              X                  Y                   Z               Mass
    ------------   -----------------  -----------------  -----------------  -----------------
           O          1.756589268612     1.190643151049    -0.793735867574    15.994914619560
           C          1.653967268612     0.056152151049    -0.453857867574    12.000000000000
           C          0.384935268612    -0.606126848951     0.024483132426    12.000000000000
           O          2.670222268612    -0.797286848951    -0.455870867574    15.994914619560
           C         -0.818092731388     0.331939151049     0.044485132426    12.000000000000
           H          0.204611268612    -1.464100848951    -0.617450867574     1.007825032070
           H          0.583481268612    -1.012958848951     1.012302132426     1.007825032070
           C         -2.089333731388    -0.364796848951     0.531893132426    12.000000000000
           H         -0.975771731388     0.732511151049    -0.951942867574     1.007825032070
           H         -0.597039731388     1.183512151049     0.680306132426     1.007825032070
           C         -3.306358731388     0.561516151049     0.557446132426    12.000000000000
           H         -2.303621731388    -1.219887848951    -0.107556867574     1.007825032070
           H         -1.924059731388    -0.766358848951     1.530549132426     1.007825032070
           C         -4.575964731388    -0.134880848951     1.045690132426    12.000000000000
           H         -3.474361731388     0.961499151049    -0.440014867574     1.007825032070
           H         -3.094169731388     1.415749151049     1.196507132426     1.007825032070
           H         -4.834147731388    -0.973915848951     0.405709132426     1.007825032070
           H         -5.420392731388     0.547280151049     1.052755132426     1.007825032070
           H         -4.450750731388    -0.516483848951     2.055151132426     1.007825032070
           C          3.973764268612    -0.244357848951    -0.457603867574    12.000000000000
           H          4.127906268612     0.362670151049    -1.338106867574     1.007825032070
           H          4.650658268612    -1.084409848951    -0.459296867574     1.007825032070
           H          4.130857268612     0.361383151049     0.423251132426     1.007825032070

  Charge       = 0
  Multiplicity = 1
  Basis Set: 6-31G*
  Basis Set:

    Orbital Energies (a.u.)
    -----------------------

    Doubly Occupied:

       1A    -20.601459     2A    -20.546187     3A    -11.372481
       4A    -11.281858     5A    -11.235604     6A    -11.219231
       7A    -11.217913     8A    -11.216517     9A    -11.209707
      10A     -1.468660    11A     -1.362946    12A     -1.093200
      13A     -1.043462    14A     -0.986948    15A     -0.932783
      16A     -0.843967    17A     -0.795130    18A     -0.767321
      19A     -0.696865    20A     -0.683161    21A     -0.671566
      22A     -0.651563    23A     -0.609495    24A     -0.600356
      25A     -0.573263    26A     -0.560996    27A     -0.555458
      28A     -0.527201    29A     -0.517038    30A     -0.507782
      31A     -0.484537    32A     -0.469912    33A     -0.466418
      34A     -0.462620    35A     -0.454327    36A     -0.434281

  @DF-RHF Final Energy:  -422.97382997182655

   => Energetics <=

    Nuclear Repulsion Energy =            452.1747933475449486
    One-Electron Energy =               -1472.0528128690486938
    Two-Electron Energy =                 596.9041895496787902
    DFT Exchange-Correlation Energy =       0.0000000000000000
    Empirical Dispersion Energy =           0.0000000000000000
    PCM Polarization Energy =               0.0000000000000000
    EFP Energy =                            0.0000000000000000
    Total Energy =                       -422.9738299718250119

  Mulliken Charges: (a.u.)
   Center  Symbol    Alpha    Beta     Spin     Total
       1     O     4.28380  4.28380  0.00000 -0.56760
       2     C     2.60455  2.60455  0.00000  0.79090
       3     C     3.20886  3.20886  0.00000 -0.41772
       4     O     4.30799  4.30799  0.00000 -0.61599
       5     C     3.15261  3.15261  0.00000 -0.30523
       6     H     0.39988  0.39988  0.00000  0.20023
       7     H     0.40181  0.40181  0.00000  0.19637
       8     C     3.15328  3.15328  0.00000 -0.30655
       9     H     0.41134  0.41134  0.00000  0.17732
      10     H     0.41215  0.41215  0.00000  0.17570
      11     C     3.15154  3.15154  0.00000 -0.30309
      12     H     0.42385  0.42385  0.00000  0.15230
      13     H     0.42426  0.42426  0.00000  0.15148
      14     C     3.23958  3.23958  0.00000 -0.47916
      15     H     0.42121  0.42121  0.00000  0.15757
      16     H     0.42145  0.42145  0.00000  0.15710
      17     H     0.42175  0.42175  0.00000  0.15650
      18     H     0.41847  0.41847  0.00000  0.16306
      19     H     0.42190  0.42190  0.00000  0.15620
      20     C     3.09359  3.09359  0.00000 -0.18718
      21     H     0.40474  0.40474  0.00000  0.19052
      22     H     0.40792  0.40792  0.00000  0.18415
      23     H     0.41344  0.41344  0.00000  0.17312

   Total alpha = 36.00000, Total beta = 36.00000, Total charge =  0.00000
