  ==> Input File <==

--------------------------------------------------------------------------
set {
	reference rhf
	basis 6-31G*
}

set_num_threads( 4 )
memory 2 gb

molecule MOL {
0 1

H	 2.274902	 -0.201071	 -0.452756
O	 1.586534	 -0.678666	 -0.000226
C	 0.489431	 0.077273	 0.000046
C	 -0.764129	 -0.759190	 0.000191
O	 0.537743	 1.263962	 0.000257
C	 -2.038368	 0.075731	 -0.000248
H	 -0.717284	 -1.412404	 -0.866059
H	 -0.717458	 -1.411724	 0.866967
H	 -2.086483	 0.712501	 -0.875098
H	 -2.908485	 -0.571682	 -0.000042
H	 -2.086576	 0.713280	 0.874068

	symmetry c1
}
set optking {
	frozen_dihedral = ("
		1 2 3 5
	")
}

ee = optimize('scf')
oeprop('DIPOLE', 'QUADRUPOLE', 'MULLIKEN_CHARGES')
f=open( 'psi4out.xyz', 'w' )
f.write( "11  " )
f.write( str(ee) + "\n" )
f.write( MOL.save_string_xyz() )
f.close()
--------------------------------------------------------------------------

    Molecular point group: c1
  Charge       = 0
  Multiplicity = 1
  Basis Set: 6-31G*
  Basis Set:
  @DF-RHF Final Energy:  -266.84073896914362
    Total Energy =                       -266.8407389691432741
    Molecular point group: c1
  Basis Set: 6-31G*
  Basis Set:
  Basis Set: 6-31G*
  Basis Set:
  @DF-RHF Final Energy:  -266.83744048161145
    Total Energy =                       -266.8374404816116225
  Basis Set: 6-31G*
  Basis Set:
  Basis Set: 6-31G*
  Basis Set:
  @DF-RHF Final Energy:  -266.84118767489406
    Total Energy =                       -266.8411876748937743
  Basis Set: 6-31G*
  Basis Set:
  Basis Set: 6-31G*
  Basis Set:
  @DF-RHF Final Energy:  -266.84124697177708
    Total Energy =                       -266.8412469717769682
  Basis Set: 6-31G*
  Basis Set:
  @DF-RHF Final Energy:  -266.84125389696965
    Total Energy =                       -266.8412538969696470
  @DF-RHF Final Energy:  -266.84125565221996
    Total Energy =                       -266.8412556522199566
  Basis Set: 6-31G*
  Basis Set:
  @DF-RHF Final Energy:  -266.84125409044907
    Total Energy =                       -266.8412540904490697
  Basis Set: 6-31G*
  Basis Set:
  Basis Set: 6-31G*
  Basis Set:
  @DF-RHF Final Energy:  -266.84116463687371
    Total Energy =                       -266.8411646368739980
  Basis Set: 6-31G*
  Basis Set:
  Basis Set: 6-31G*
  Basis Set:
  @DF-RHF Final Energy:  -266.84125698035575
    Total Energy =                       -266.8412569803557517
  Basis Set: 6-31G*
  Basis Set:
  Charge       = 0
  Multiplicity = 1
  Basis Set: 6-31G*
  Basis Set:

    Orbital Energies (a.u.)
    -----------------------

    Doubly Occupied:

       1A    -20.609780     2A    -20.554893     3A    -11.382173
       4A    -11.243763     5A    -11.220159     6A     -1.471682
       7A     -1.367682     8A     -1.064563     9A     -0.915719
      10A     -0.801877    11A     -0.703544    12A     -0.687853
      13A     -0.659951    14A     -0.604477    15A     -0.582053
      16A     -0.529282    17A     -0.525823    18A     -0.505175
      19A     -0.481347    20A     -0.445672

  @DF-RHF Final Energy:  -266.84125729206391

   => Energetics <=

    Nuclear Repulsion Energy =            179.5978762702279425
    One-Electron Energy =                -720.1633348971899977
    Two-Electron Energy =                 273.7242013348980549
    DFT Exchange-Correlation Energy =       0.0000000000000000
    Empirical Dispersion Energy =           0.0000000000000000
    PCM Polarization Energy =               0.0000000000000000
    EFP Energy =                            0.0000000000000000
    Total Energy =                       -266.8412572920639718
    Molecular point group: c1
  Basis Set: 6-31G*
  Basis Set:

  -Total Gradient:
     Atom            X                  Y                   Z
    ------   -----------------  -----------------  -----------------
       1       -0.002156632719    -0.004510057935    -0.008757613702
       2        0.002375229665     0.005639714202     0.015107018121
       3        0.000534126670    -0.001511647707    -0.015407909835
       4        0.000001086313    -0.000007427256     0.000063659690
       5       -0.000764656132     0.000375433455     0.009035200225
       6        0.000002974858     0.000001108613    -0.000020528387
       7        0.000005571590    -0.000003651768    -0.000017204041
       8        0.000001732859     0.000010989390    -0.000016072996
       9       -0.000000120660     0.000000808406     0.000002065178
      10        0.000004488817     0.000001815890     0.000004278326
      11       -0.000003801263     0.000002914709     0.000007107421

  **** Optimization is complete! (in 10 steps) ****
    Final optimized geometry and variables:
    Molecular point group: c1

    Geometry (in Angstrom), charge = 0, multiplicity = 1:

    H            2.322336070183    -0.224143774150    -0.326738032574
    O            1.591243253295    -0.672931294452     0.084427399670
    C            0.490106861830     0.080525676089    -0.033396052326
    C           -0.762059364542    -0.757295819816    -0.002930957247
    O            0.531865545517     1.264862199261    -0.077937325568
    C           -2.038375578619     0.072827836129     0.043347705274
    H           -0.739280310878    -1.400113240738    -0.878662013170
    H           -0.686300812951    -1.421608238112     0.852496450728
    H           -2.111427404914     0.723541260500    -0.819334736254
    H           -2.906539717162    -0.577128245653     0.056618910192
    H           -2.065384495988     0.696116816571     0.929023014406

  Mulliken Charges: (a.u.)
   Center  Symbol    Alpha    Beta     Spin     Total
       1     H     0.26702  0.26702  0.00000  0.46596
       2     O     4.35419  4.35419  0.00000 -0.70839
       3     C     2.62764  2.62764  0.00000  0.74472
       4     C     3.20814  3.20814  0.00000 -0.41628
       5     O     4.27092  4.27092  0.00000 -0.54183
       6     C     3.23963  3.23963  0.00000 -0.47927
       7     H     0.40038  0.40038  0.00000  0.19924
       8     H     0.39707  0.39707  0.00000  0.20586
       9     H     0.40895  0.40895  0.00000  0.18210
      10     H     0.41677  0.41677  0.00000  0.16645
      11     H     0.40928  0.40928  0.00000  0.18145

   Total alpha = 20.00000, Total beta = 20.00000, Total charge =  0.00000
