  ==> Input File <==

--------------------------------------------------------------------------
set {
	reference rhf
	basis 6-31G*
}

set_num_threads( 4 )
memory 2 gb

molecule MOL {
0 1

O	 -2.705600	 -0.542507	 0.609111
C	 -1.921153	 0.064240	 -0.045697
C	 -2.248527	 0.816048	 -1.307425
O	 -0.632575	 0.154573	 0.251549
H	 -1.666126	 0.419929	 -2.131347
H	 -3.302782	 0.723444	 -1.521451
H	 -1.983546	 1.860491	 -1.190462
C	 0.160891	 -1.019931	 0.106212
C	 1.589627	 -0.672828	 0.480843
H	 0.089836	 -1.367806	 -0.916050
H	 -0.238459	 -1.792301	 0.749618
C	 2.246377	 0.346236	 -0.452210
H	 2.163194	 -1.597435	 0.473358
H	 1.604769	 -0.303424	 1.502885
C	 3.691736	 0.652107	 -0.061850
H	 2.219579	 -0.032311	 -1.472055
H	 1.666466	 1.263317	 -0.447249
H	 4.134505	 1.377213	 -0.737283
H	 4.305508	 -0.243868	 -0.089969
H	 3.748266	 1.059562	 0.943567

	symmetry c1
}
set optking {
	frozen_dihedral = ("
		1 2 4 8
	")
}

ee = optimize('scf')
oeprop('DIPOLE', 'QUADRUPOLE', 'MULLIKEN_CHARGES')
f=open( 'psi4out.xyz', 'w' )
f.write( "20  " )
f.write( str(ee) + "\n" )
f.write( MOL.save_string_xyz() )
f.close()
--------------------------------------------------------------------------

    Molecular point group: c1
  Charge       = 0
  Multiplicity = 1
  Basis Set: 6-31G*
  Basis Set:
  @DF-RHF Final Energy:  -383.92828552746346
    Total Energy =                       -383.9282855274633448
    Molecular point group: c1
  Basis Set: 6-31G*
  Basis Set:
  Basis Set: 6-31G*
  Basis Set:
  @DF-RHF Final Energy:  -383.92612120075654
    Total Energy =                       -383.9261212007565973
  Basis Set: 6-31G*
  Basis Set:
  Basis Set: 6-31G*
  Basis Set:
  @DF-RHF Final Energy:  -383.92927902395917
    Total Energy =                       -383.9292790239588840
  Basis Set: 6-31G*
  Basis Set:
  Basis Set: 6-31G*
  Basis Set:
  @DF-RHF Final Energy:  -383.92942331239419
    Total Energy =                       -383.9294233123941922
  Basis Set: 6-31G*
  Basis Set:
  Basis Set: 6-31G*
  Basis Set:
  @DF-RHF Final Energy:  -383.92943014693230
    Total Energy =                       -383.9294301469319635
  Basis Set: 6-31G*
  Basis Set:
  Basis Set: 6-31G*
  Basis Set:
  @DF-RHF Final Energy:  -383.92943305974148
    Total Energy =                       -383.9294330597419957
  Basis Set: 6-31G*
  Basis Set:
  Charge       = 0
  Multiplicity = 1
  Basis Set: 6-31G*
  Basis Set:

    Orbital Energies (a.u.)
    -----------------------

    Doubly Occupied:

       1A    -20.585070     2A    -20.554764     3A    -11.377030
       4A    -11.290582     5A    -11.235966     6A    -11.227024
       7A    -11.221602     8A    -11.214004     9A     -1.458877
      10A     -1.365468    11A     -1.085006    12A     -1.024371
      13A     -0.986218    14A     -0.881017    15A     -0.810974
      16A     -0.775987    17A     -0.693902    18A     -0.684507
      19A     -0.650897    20A     -0.635296    21A     -0.612590
      22A     -0.593380    23A     -0.574904    24A     -0.560698
      25A     -0.546578    26A     -0.528847    27A     -0.503311
      28A     -0.485625    29A     -0.477600    30A     -0.473915
      31A     -0.446628    32A     -0.437266

  @DF-RHF Final Energy:  -383.92943315115872

   => Energetics <=

    Nuclear Repulsion Energy =            384.2810189364565758
    One-Electron Energy =               -1284.4210984053793254
    Two-Electron Energy =                 516.2106463177638034
    DFT Exchange-Correlation Energy =       0.0000000000000000
    Empirical Dispersion Energy =           0.0000000000000000
    PCM Polarization Energy =               0.0000000000000000
    EFP Energy =                            0.0000000000000000
    Total Energy =                       -383.9294331511589462
    Molecular point group: c1
  Basis Set: 6-31G*
  Basis Set:

  -Total Gradient:
     Atom            X                  Y                   Z
    ------   -----------------  -----------------  -----------------
       1       -0.001122140552     0.005740068501     0.003275427158
       2        0.002133528448    -0.007901873158    -0.007274375892
       3       -0.000038177676    -0.000024696075    -0.000009664787
       4       -0.001825934887     0.001187057246     0.009176186710
       5        0.000001609368    -0.000000789370     0.000008612255
       6       -0.000024264024     0.000020312274    -0.000036084802
       7       -0.000000517573    -0.000022919454     0.000007096113
       8        0.000879457262     0.001023348594    -0.005131446515
       9       -0.000023643514     0.000015390458    -0.000008888846
      10        0.000028275025    -0.000017851176     0.000012522237
      11       -0.000007115447    -0.000006822881    -0.000002294626
      12        0.000011886537    -0.000015069479    -0.000005326775
      13       -0.000024302122    -0.000008253050    -0.000012085317
      14        0.000013370188    -0.000006344888     0.000003940027
      15       -0.000005992515     0.000018343556     0.000010207269
      16        0.000008833473    -0.000001274338    -0.000002347665
      17       -0.000006660799    -0.000004851729    -0.000017986931
      18       -0.000001507833     0.000006743061     0.000006477826
      19       -0.000003422317     0.000002220095    -0.000006265831
      20        0.000006718950    -0.000002738187     0.000006298388

  **** Optimization is complete! (in 7 steps) ****
    Final optimized geometry and variables:
    Molecular point group: c1

    Geometry (in Angstrom), charge = 0, multiplicity = 1:

    O           -2.688145946270    -0.491875629953     0.711991756350
    C           -1.948732099556     0.077076769592    -0.014816472059
    C           -2.368646622830     0.828261656936    -1.248425830817
    O           -0.629709654777     0.194096910390     0.240059493052
    H           -1.844118075020     0.436576805674    -2.113686820728
    H           -3.435703104053     0.744859062575    -1.392836789964
    H           -2.086884428461     1.870208342402    -1.145055509575
    C            0.155534898096    -0.988276139150     0.142613332129
    C            1.581060177399    -0.655082936230     0.539748075883
    H            0.117078865993    -1.355383371213    -0.879817178361
    H           -0.261775245277    -1.744532151957     0.795199686288
    C            2.263522964868     0.352711089026    -0.386456306266
    H            2.145541713583    -1.585359298388     0.550294936785
    H            1.574173500381    -0.278336410179     1.558537402496
    C            3.701175686454     0.654359502492     0.034583648605
    H            2.258935498021    -0.034486378957    -1.403760151267
    H            1.687539961847     1.271724708029    -0.401812760302
    H            4.163042082297     1.371422477717    -0.636626545903
    H            4.311090698569    -0.244738714970     0.028669290618
    H            3.736158391272     1.070477726731     1.037286979354

  Mulliken Charges: (a.u.)
   Center  Symbol    Alpha    Beta     Spin     Total
       1     O     4.25669  4.25669  0.00000 -0.51339
       2     C     2.62259  2.62259  0.00000  0.75481
       3     C     3.28475  3.28475  0.00000 -0.56949
       4     O     4.31903  4.31903  0.00000 -0.63805
       5     H     0.40608  0.40608  0.00000  0.18784
       6     H     0.39763  0.39763  0.00000  0.20473
       7     H     0.39808  0.39808  0.00000  0.20385
       8     C     3.00344  3.00344  0.00000 -0.00689
       9     C     3.16383  3.16383  0.00000 -0.32766
      10     H     0.42434  0.42434  0.00000  0.15132
      11     H     0.40491  0.40491  0.00000  0.19017
      12     C     3.15508  3.15508  0.00000 -0.31016
      13     H     0.41897  0.41897  0.00000  0.16206
      14     H     0.41008  0.41008  0.00000  0.17984
      15     C     3.24056  3.24056  0.00000 -0.48112
      16     H     0.42526  0.42526  0.00000  0.14949
      17     H     0.40969  0.40969  0.00000  0.18061
      18     H     0.41763  0.41763  0.00000  0.16474
      19     H     0.42195  0.42195  0.00000  0.15609
      20     H     0.41940  0.41940  0.00000  0.16121

   Total alpha = 32.00000, Total beta = 32.00000, Total charge = -0.00000
