                              Psi4 1.0.54 Driver

  ==> Input File <==

--------------------------------------------------------------------------
set {
	reference rhf
	basis cc-pvtz
}

set_num_threads( 4 )
memory 2 gb

molecule MOL {
0 1

O	 3.326820	 0.591906	 -0.996838
C	 2.841259	 0.166180	 -0.000295
C	 1.542794	 -0.614730	 -0.000853
C	 3.493953	 0.377879	 1.347072
C	 0.288398	 0.247429	 0.000314
H	 1.557171	 -1.273139	 -0.866508
H	 1.557484	 -1.274998	 0.863344
C	 -0.993089	 -0.581367	 -0.000217
H	 0.305153	 0.900562	 -0.864701
H	 0.305567	 0.898805	 0.866656
C	 -2.258482	 0.271340	 0.000669
H	 -1.002280	 -1.233920	 -0.870484
H	 -1.002061	 -1.235367	 0.868958
C	 -3.544441	 -0.550271	 -0.000253
H	 -2.250545	 0.925250	 -0.867923
H	 -2.250598	 0.923423	 0.870642
C	 -4.804551	 0.308747	 0.000556
H	 -3.553737	 -1.201524	 -0.870151
H	 -3.553831	 -1.203282	 0.868313
H	 -4.842050	 0.949078	 -0.874436
H	 -5.698404	 -0.304480	 -0.000254
H	 -4.842277	 0.947103	 0.876982
H	 3.712955	 -0.577598	 1.810912
H	 4.406389	 0.941382	 1.227424
H	 2.820196	 0.910409	 2.009270

	symmetry c1
}
set optking {
	frozen_dihedral = ("
		1 2 3 6
	")
}

ee,wfn = optimize('scf', return_wfn=True)
oeprop( wfn, 'DIPOLE', 'QUADRUPOLE', 'MULLIKEN_CHARGES')
f=open( 'psi4out.xyz', 'w' )
f.write( "25  " )
f.write( str(ee) + "\n" )
f.write( MOL.save_string_xyz() )
f.close()
--------------------------------------------------------------------------

    Molecular point group: c1
  Charge       = 0
  Multiplicity = 1
  Basis Set: CC-PVTZ
  Basis Set:
  @DF-RHF Final Energy:  -387.27192417587565
    Total Energy =                       -387.2719241758757107
    Molecular point group: c1
  Basis Set: CC-PVTZ
  Basis Set:
  Basis Set: CC-PVTZ
  Basis Set:
  @DF-RHF Final Energy:  -387.27236061716485
    Total Energy =                       -387.2723606171643951
  Basis Set: CC-PVTZ
  Basis Set:
  Basis Set: CC-PVTZ
  Basis Set:
  @DF-RHF Final Energy:  -387.27059402277314
    Total Energy =                       -387.2705940227731389
  Basis Set: CC-PVTZ
  Basis Set:
  Basis Set: CC-PVTZ
  Basis Set:
  @DF-RHF Final Energy:  -387.27288776362104
    Total Energy =                       -387.2728877636205880
  Basis Set: CC-PVTZ
  Basis Set:
  Basis Set: CC-PVTZ
  Basis Set:
  @DF-RHF Final Energy:  -387.27295562588637
    Total Energy =                       -387.2729556258858565
  Basis Set: CC-PVTZ
  Basis Set:
  Basis Set: CC-PVTZ
  Basis Set:
  @DF-RHF Final Energy:  -387.27296454166924
    Total Energy =                       -387.2729645416690119
  Basis Set: CC-PVTZ
  Basis Set:
  Basis Set: CC-PVTZ
  Basis Set:
  @DF-RHF Final Energy:  -387.27296600856113
    Total Energy =                       -387.2729660085610703
  Basis Set: CC-PVTZ
  Basis Set:
  Charge       = 0
  Multiplicity = 1
  Basis Set: CC-PVTZ
  Basis Set:

    Orbital Energies (a.u.)
    -----------------------

    Doubly Occupied:

       1A    -20.536568     2A    -11.319245     3A    -11.227753
       4A    -11.227128     5A    -11.226918     6A    -11.219672
       7A    -11.216577     8A    -11.215749     9A    -11.208950
      10A     -1.396803    11A     -1.099998    12A     -1.060234
      13A     -1.014111    14A     -0.971791    15A     -0.894479
      16A     -0.817993    17A     -0.795726    18A     -0.733694
      19A     -0.668778    20A     -0.649637    21A     -0.639807
      22A     -0.611709    23A     -0.606083    24A     -0.588207
      25A     -0.569471    26A     -0.558284    27A     -0.542107
      28A     -0.540961    29A     -0.510113    30A     -0.499904
      31A     -0.491203    32A     -0.477265    33A     -0.467885
      34A     -0.467207    35A     -0.454769    36A     -0.397947

  @DF-RHF Final Energy:  -387.27296627238434

   => Energetics <=

    Nuclear Repulsion Energy =            439.8682463882416869
    One-Electron Energy =               -1396.4329786863518166
    Two-Electron Energy =                 569.2917660257263606
    DFT Exchange-Correlation Energy =       0.0000000000000000
    Empirical Dispersion Energy =           0.0000000000000000
    PCM Polarization Energy =               0.0000000000000000
    EFP Energy =                            0.0000000000000000
    Total Energy =                       -387.2729662723837691
    Molecular point group: c1
  Basis Set: CC-PVTZ
  Basis Set:

  -Total Gradient:
     Atom            X                  Y                   Z
    ------   -----------------  -----------------  -----------------
       1       -0.000125574058     0.000171946280     0.000018102481
       2        0.000201554687    -0.000271333034    -0.000026788392
       3       -0.000130378737     0.000254661760    -0.000145574642
       4       -0.000016675386     0.000012609335    -0.000017897142
       5       -0.000051473707     0.000014312818     0.000009812772
       6        0.000095478771    -0.000164592847     0.000105361066
       7        0.000004578935     0.000004931193     0.000004487963
       8        0.000012097335     0.000015058256     0.000013278127
       9        0.000013365284    -0.000004875627     0.000008635702
      10        0.000004938169    -0.000008613690    -0.000003296208
      11       -0.000000376742    -0.000003030118    -0.000000378802
      12       -0.000000507561    -0.000006184176     0.000001304446
      13       -0.000003312053     0.000002709494     0.000004819470
      14        0.000002087143     0.000000651083    -0.000004636791
      15       -0.000001177117     0.000006548438     0.000001210109
      16        0.000001598662    -0.000005425078     0.000002295893
      17        0.000001102288     0.000000406986    -0.000007423663
      18       -0.000001310963    -0.000005013737    -0.000000572637
      19        0.000002906603     0.000003518225     0.000000666222
      20       -0.000001598034     0.000002365203    -0.000000301242
      21       -0.000000463129    -0.000000426641    -0.000001139674
      22        0.000000703814    -0.000000923818     0.000000818484
      23       -0.000001302842    -0.000005342659     0.000011606481
      24       -0.000011444237    -0.000009888211     0.000001897779
      25        0.000005182885    -0.000004069436     0.000023712199

  **** Optimization is complete! (in 8 steps) ****
    Final optimized geometry and variables:
    Molecular point group: c1

    Geometry (in Angstrom), charge = 0, multiplicity = 1:

    O            3.257682110194     0.524684181959    -1.052469933488
    C            2.842144008417     0.093161528571    -0.026641683977
    C            1.569480346691    -0.730025281868     0.015525697121
    C            3.541349809200     0.356754520907     1.285299793135
    C            0.329840321221     0.171407987915    -0.025441625593
    H            1.573655437640    -1.383987081215    -0.847588517299
    H            1.548234121129    -1.346506071975     0.907794482958
    C           -0.974766219407    -0.619482465203    -0.005203972785
    H            0.376068740162     0.781768127125    -0.920277938081
    H            0.347765554115     0.855794436625     0.819028217916
    C           -2.215198706060     0.267634668476    -0.057721516645
    H           -0.987748319325    -1.306375620495    -0.847466468256
    H           -1.010038498468    -1.234523026793     0.890782986379
    C           -3.522904168214    -0.518905271079    -0.044984163129
    H           -2.177093385014     0.884640996506    -0.952044812993
    H           -2.202531912655     0.954180628343     0.785619836080
    C           -4.758789029963     0.372885303820    -0.098826066488
    H           -3.536953846387    -1.204559683375    -0.887730051094
    H           -3.562436827983    -1.135196966308     0.849143391975
    H           -4.766104147934     0.977374338788    -0.999663134256
    H           -5.668695546252    -0.216017444657    -0.088797308158
    H           -4.792163277916     1.047364932723     0.750366040216
    H            3.935743573726    -0.576424191744     1.674617425132
    H            4.348527388703     1.058653775978     1.142870782249
    H            2.841006714149     0.739007397432     2.019814244259

  Mulliken Charges: (a.u.)
   Center  Symbol    Alpha    Beta     Spin     Total
       1     O     4.17840  4.17840  0.00000 -0.35681
       2     C     2.85821  2.85821  0.00000  0.28357
       3     C     3.09865  3.09865  0.00000 -0.19729
       4     C     3.15499  3.15499  0.00000 -0.30998
       5     C     3.10075  3.10075  0.00000 -0.20151
       6     H     0.43941  0.43941  0.00000  0.12118
       7     H     0.44921  0.44921  0.00000  0.10157
       8     C     3.09013  3.09013  0.00000 -0.18026
       9     H     0.44005  0.44005  0.00000  0.11989
      10     H     0.45273  0.45273  0.00000  0.09454
      11     C     3.08671  3.08671  0.00000 -0.17342
      12     H     0.45182  0.45182  0.00000  0.09637
      13     H     0.45433  0.45433  0.00000  0.09135
      14     C     3.08468  3.08468  0.00000 -0.16937
      15     H     0.45278  0.45278  0.00000  0.09445
      16     H     0.45509  0.45509  0.00000  0.08982
      17     C     3.15033  3.15033  0.00000 -0.30066
      18     H     0.45391  0.45391  0.00000  0.09217
      19     H     0.45487  0.45487  0.00000  0.09027
      20     H     0.45439  0.45439  0.00000  0.09122
      21     H     0.44808  0.44808  0.00000  0.10385
      22     H     0.45521  0.45521  0.00000  0.08958
      23     H     0.44837  0.44837  0.00000  0.10326
      24     H     0.43612  0.43612  0.00000  0.12777
      25     H     0.45078  0.45078  0.00000  0.09845

   Total alpha = 36.00000, Total beta = 36.00000, Total charge = -0.00000

*** Psi4 exiting successfully. Buy a developer a beer!
