  ==> Input File <==

--------------------------------------------------------------------------
set {
	reference rhf
	basis 6-31G*
}

set_num_threads( 4 )
memory 2 gb

molecule MOL {
0 1

H	 -3.057506	 -1.262243	 1.346269
C	 -3.194841	 -0.864029	 0.333261
C	 -2.736710	 0.559190	 0.140450
O	 -3.674742	 -1.543128	 -0.515427
C	 -1.294215	 0.782652	 0.615347
H	 -2.856854	 0.818587	 -0.905011
H	 -3.406881	 1.192306	 0.720701
C	 -0.252658	 0.041456	 -0.226725
H	 -1.085478	 1.848084	 0.591518
H	 -1.206143	 0.480369	 1.657761
C	 1.180775	 0.282413	 0.250794
H	 -0.346944	 0.353352	 -1.264838
H	 -0.459997	 -1.026898	 -0.213733
C	 2.148627	 -0.814315	 -0.201312
H	 1.516199	 1.249228	 -0.115937
H	 1.192670	 0.346017	 1.338083
C	 3.580890	 -0.659131	 0.322722
H	 2.166869	 -0.852443	 -1.289387
H	 1.762857	 -1.776509	 0.128956
C	 4.324889	 0.564933	 -0.213704
H	 4.142010	 -1.551473	 0.056605
H	 3.564836	 -0.624694	 1.410140
H	 4.342616	 0.565491	 -1.300421
H	 3.866655	 1.493402	 0.110242
H	 5.353900	 0.572371	 0.132816

	symmetry c1
}
set optking {
	frozen_dihedral = ("
		12 8 11 14
	")
}

ee = optimize('scf')
oeprop('DIPOLE', 'QUADRUPOLE', 'MULLIKEN_CHARGES')
f=open( 'psi4out.xyz', 'w' )
f.write( "25  " )
f.write( str(ee) + "\n" )
f.write( MOL.save_string_xyz() )
f.close()
--------------------------------------------------------------------------

    Molecular point group: c1
  Charge       = 0
  Multiplicity = 1
  Basis Set: 6-31G*
  Basis Set:
  @DF-RHF Final Energy:  -387.12036189563452
    Total Energy =                       -387.1203618956340051
    Molecular point group: c1
  Basis Set: 6-31G*
  Basis Set:
  Basis Set: 6-31G*
  Basis Set:
  @DF-RHF Final Energy:  -387.12021898995943
    Total Energy =                       -387.1202189899594259
  Basis Set: 6-31G*
  Basis Set:
  Basis Set: 6-31G*
  Basis Set:
  @DF-RHF Final Energy:  -387.11888077584723
    Total Energy =                       -387.1188807758471739
  Basis Set: 6-31G*
  Basis Set:
  Basis Set: 6-31G*
  Basis Set:
  @DF-RHF Final Energy:  -387.12046928007538
    Total Energy =                       -387.1204692800757812
  Basis Set: 6-31G*
  Basis Set:
  @DF-RHF Final Energy:  -387.12055897726481
    Total Energy =                       -387.1205589772648636
  @DF-RHF Final Energy:  -387.12058492856164
    Total Energy =                       -387.1205849285616978
  @DF-RHF Final Energy:  -387.12056529166068
    Total Energy =                       -387.1205652916603412
  Basis Set: 6-31G*
  Basis Set:
  @DF-RHF Final Energy:  -387.12058409677076
    Total Energy =                       -387.1205840967713812
  Basis Set: 6-31G*
  Basis Set:
  Basis Set: 6-31G*
  Basis Set:
  @DF-RHF Final Energy:  -387.12058232604801
    Total Energy =                       -387.1205823260477246
  Basis Set: 6-31G*
  Basis Set:
  Basis Set: 6-31G*
  Basis Set:
  @DF-RHF Final Energy:  -387.12058740100906
    Total Energy =                       -387.1205874010095158
  Basis Set: 6-31G*
  Basis Set:
  Charge       = 0
  Multiplicity = 1
  Basis Set: 6-31G*
  Basis Set:

    Orbital Energies (a.u.)
    -----------------------

    Doubly Occupied:

       1A    -20.561974     2A    -11.326121     3A    -11.235259
       4A    -11.234531     5A    -11.223955     6A    -11.219859
       7A    -11.218088     8A    -11.217158     9A    -11.210651
      10A     -1.401898    11A     -1.103592    12A     -1.069619
      13A     -1.012949    14A     -0.942583    15A     -0.874979
      16A     -0.820623    17A     -0.787756    18A     -0.782016
      19A     -0.664125    20A     -0.662047    21A     -0.632034
      22A     -0.626004    23A     -0.601016    24A     -0.592586
      25A     -0.579128    26A     -0.548280    27A     -0.537313
      28A     -0.524777    29A     -0.506807    30A     -0.495531
      31A     -0.492327    32A     -0.479398    33A     -0.462552
      34A     -0.459855    35A     -0.440958    36A     -0.409442

  @DF-RHF Final Energy:  -387.12058836828339

   => Energetics <=

    Nuclear Repulsion Energy =            439.1623601358468250
    One-Electron Energy =               -1394.6503188044480339
    Two-Electron Energy =                 568.3673703003180435
    DFT Exchange-Correlation Energy =       0.0000000000000000
    Empirical Dispersion Energy =           0.0000000000000000
    PCM Polarization Energy =               0.0000000000000000
    EFP Energy =                            0.0000000000000000
    Total Energy =                       -387.1205883682831654
    Molecular point group: c1
  Basis Set: 6-31G*
  Basis Set:

  -Total Gradient:
     Atom            X                  Y                   Z
    ------   -----------------  -----------------  -----------------
       1       -0.000006851476    -0.000007876779    -0.000003305351
       2        0.000012318911     0.000001729437    -0.000010248838
       3        0.000016430150     0.000012587166    -0.000008598698
       4       -0.000007805268    -0.000009097827     0.000009358645
       5       -0.000002798984     0.000007383914     0.000004737318
       6       -0.000003897266    -0.000000642520    -0.000000897376
       7        0.000003142667     0.000007846444    -0.000000129284
       8        0.000984158401    -0.004624001114    -0.000493625559
       9        0.000001492477    -0.000000445542     0.000007771086
      10       -0.000003215272    -0.000005751166    -0.000000290016
      11        0.000461777497     0.002733065025    -0.002801165526
      12       -0.000942144483     0.003280461369     0.001118444763
      13        0.000001171135    -0.000015766970     0.000003491978
      14       -0.000505090145    -0.001386340277     0.002164754939
      15        0.000005336717     0.000015535231     0.000012349614
      16       -0.000004414180    -0.000007978919    -0.000016115592
      17        0.000000242728     0.000001904621     0.000013877760
      18       -0.000002312471    -0.000000495827     0.000000581273
      19       -0.000011697450    -0.000002633482    -0.000003790209
      20       -0.000004268095    -0.000001971137    -0.000002006853
      21        0.000000269239     0.000007265042    -0.000002806341
      22        0.000008085481    -0.000004427711     0.000005605073
      23        0.000000682858    -0.000000780745     0.000002620888
      24       -0.000000283278     0.000000598950    -0.000002693038
      25       -0.000000329886    -0.000000167184     0.000002079341

  **** Optimization is complete! (in 11 steps) ****
    Final optimized geometry and variables:
    Molecular point group: c1

    Geometry (in Angstrom), charge = 0, multiplicity = 1:

    H           -3.157685950899    -1.069761395025     1.235817516816
    C           -3.247304751192    -0.644218977654     0.228486565403
    C           -2.739422548693     0.768057594825     0.085830233241
    O           -3.723063783396    -1.286670947262    -0.650596930084
    C           -1.304138810668     0.931612381178     0.604912892995
    H           -2.822345856335     1.057467231736    -0.955409939624
    H           -3.404755957320     1.407753233208     0.664313778045
    C           -0.262677510786     0.173105410318    -0.224638498832
    H           -1.058764776281     1.989927229080     0.611354930460
    H           -1.255454623076     0.603883338932     1.641872544035
    C            1.171090746130     0.425779508057     0.257979180516
    H           -0.358177373039     0.495647441750    -1.258901710205
    H           -0.479694108957    -0.892328430683    -0.204186579256
    C            2.156846124871    -0.651829792195    -0.202341225858
    H            1.490085294364     1.408610408202    -0.076525082004
    H            1.183206674406     0.456567808403     1.346818860175
    C            3.597650702809    -0.448700022576     0.279891495916
    H            2.148480397978    -0.713455913284    -1.289738224662
    H            1.803184576669    -1.615261468279     0.157781635686
    C            4.302696306487     0.770020326630    -0.318424126205
    H            4.171184259740    -1.338422107338     0.032319251268
    H            3.606715805511    -0.375300497523     1.365655691354
    H            4.301884488949     0.726635790466    -1.404230350127
    H            3.828428820645     1.700400533565    -0.024090850816
    H            5.336929610456     0.815463951865     0.008545431058

  Mulliken Charges: (a.u.)
   Center  Symbol    Alpha    Beta     Spin     Total
       1     H     0.43267  0.43267  0.00000  0.13467
       2     C     2.83082  2.83082  0.00000  0.33836
       3     C     3.20840  3.20840  0.00000 -0.41680
       4     O     4.23771  4.23771  0.00000 -0.47543
       5     C     3.16732  3.16732  0.00000 -0.33463
       6     H     0.39983  0.39983  0.00000  0.20033
       7     H     0.40670  0.40670  0.00000  0.18661
       8     C     3.15509  3.15509  0.00000 -0.31019
       9     H     0.41293  0.41293  0.00000  0.17414
      10     H     0.41958  0.41958  0.00000  0.16085
      11     C     3.15490  3.15490  0.00000 -0.30981
      12     H     0.41713  0.41713  0.00000  0.16573
      13     H     0.41786  0.41786  0.00000  0.16427
      14     C     3.15357  3.15357  0.00000 -0.30713
      15     H     0.41880  0.41880  0.00000  0.16239
      16     H     0.42429  0.42429  0.00000  0.15142
      17     C     3.15310  3.15310  0.00000 -0.30619
      18     H     0.42259  0.42259  0.00000  0.15483
      19     H     0.42103  0.42103  0.00000  0.15795
      20     C     3.24115  3.24115  0.00000 -0.48230
      21     H     0.41991  0.41991  0.00000  0.16019
      22     H     0.42352  0.42352  0.00000  0.15297
      23     H     0.42157  0.42157  0.00000  0.15687
      24     H     0.42086  0.42086  0.00000  0.15828
      25     H     0.41868  0.41868  0.00000  0.16263

   Total alpha = 36.00000, Total beta = 36.00000, Total charge = -0.00000
