                              Psi4 1.0.54 Driver

  ==> Input File <==

--------------------------------------------------------------------------
set {
	reference rhf
	basis cc-pvtz
}

set_num_threads( 4 )
memory 2 gb

molecule MOL {
0 1

H	 3.315141	 0.886714	 -0.717613
C	 2.604761	 0.702993	 0.077928
C	 1.322304	 0.099773	 -0.484271
H	 3.073068	 0.036684	 0.793533
H	 2.411596	 1.647006	 0.574785
C	 0.308557	 -0.162619	 0.622645
H	 1.539311	 -0.832958	 -0.989894
H	 0.882135	 0.770875	 -1.211465
N	 -1.069352	 -0.004081	 0.085342
H	 0.371632	 -1.172932	 0.991288
H	 0.400391	 0.548875	 1.426218
O	 -1.584901	 -0.965470	 -0.377818
O	 -1.548033	 1.079343	 0.130056

	symmetry c1
}
set optking {
	frozen_dihedral = ("
		7 3 6 9
	")
}

ee,wfn = optimize('scf', return_wfn=True)
oeprop( wfn, 'DIPOLE', 'QUADRUPOLE', 'MULLIKEN_CHARGES')
f=open( 'psi4out.xyz', 'w' )
f.write( "13  " )
f.write( str(ee) + "\n" )
f.write( MOL.save_string_xyz() )
f.close()
--------------------------------------------------------------------------

    Molecular point group: c1
  Charge       = 0
  Multiplicity = 1
  Basis Set: CC-PVTZ
  Basis Set:
  @DF-RHF Final Energy:  -321.85837029724246
    Total Energy =                       -321.8583702972424021
    Molecular point group: c1
  Basis Set: CC-PVTZ
  Basis Set:
  Basis Set: CC-PVTZ
  Basis Set:
  @DF-RHF Final Energy:  -321.85730596141883
    Total Energy =                       -321.8573059614190583
  Basis Set: CC-PVTZ
  Basis Set:
  Basis Set: CC-PVTZ
  Basis Set:
  @DF-RHF Final Energy:  -321.85500489645869
    Total Energy =                       -321.8550048964588086
  Basis Set: CC-PVTZ
  Basis Set:
  Basis Set: CC-PVTZ
  Basis Set:
  @DF-RHF Final Energy:  -321.85836160006630
    Total Energy =                       -321.8583616000663596
  Basis Set: CC-PVTZ
  Basis Set:
  @DF-RHF Final Energy:  -321.85840234471732
    Total Energy =                       -321.8584023447173763
  Basis Set: CC-PVTZ
  Basis Set:
  @DF-RHF Final Energy:  -321.85863663027408
    Total Energy =                       -321.8586366302740203
  Basis Set: CC-PVTZ
  Basis Set:
  Basis Set: CC-PVTZ
  Basis Set:
  @DF-RHF Final Energy:  -321.85864489350206
    Total Energy =                       -321.8586448935019462
  Basis Set: CC-PVTZ
  Basis Set:
  Basis Set: CC-PVTZ
  Basis Set:
  @DF-RHF Final Energy:  -321.85864631638776
    Total Energy =                       -321.8586463163878761
  Basis Set: CC-PVTZ
  Basis Set:
  Charge       = 0
  Multiplicity = 1
  Basis Set: CC-PVTZ
  Basis Set:

    Orbital Energies (a.u.)
    -----------------------

    Doubly Occupied:

       1A    -20.590532     2A    -20.590099     3A    -15.836822
       4A    -11.297342     5A    -11.255068     6A    -11.236116
       7A     -1.635903     8A     -1.420193     9A     -1.132921
      10A     -1.027737    11A     -0.883612    12A     -0.834570
      13A     -0.761994    14A     -0.738279    15A     -0.727697
      16A     -0.669050    17A     -0.607704    18A     -0.591586
      19A     -0.545231    20A     -0.520321    21A     -0.515352
      22A     -0.485778    23A     -0.474820    24A     -0.453479

  @DF-RHF Final Energy:  -321.85864655753437

   => Energetics <=

    Nuclear Repulsion Energy =            248.1857558465436284
    One-Electron Energy =                -930.4243907819018204
    Two-Electron Energy =                 360.3799883778239632
    DFT Exchange-Correlation Energy =       0.0000000000000000
    Empirical Dispersion Energy =           0.0000000000000000
    PCM Polarization Energy =               0.0000000000000000
    EFP Energy =                            0.0000000000000000
    Total Energy =                       -321.8586465575342004
    Molecular point group: c1
  Basis Set: CC-PVTZ
  Basis Set:

  -Total Gradient:
     Atom            X                  Y                   Z
    ------   -----------------  -----------------  -----------------
       1        0.000002507859    -0.000001014765    -0.000005717757
       2       -0.000008452253    -0.000010102140    -0.000003818339
       3       -0.003950050178     0.002106873360    -0.003186633756
       4        0.000003915781     0.000000985172     0.000005584104
       5       -0.000001593922     0.000002811700     0.000003145950
       6        0.000606362701    -0.004347265542    -0.000476088608
       7        0.003244519930    -0.000876816241     0.002814893195
       8       -0.000004209005     0.000006200434     0.000001358725
       9        0.000101636897     0.003127381488     0.000856845151
      10        0.000009818493     0.000002504279     0.000004755438
      11       -0.000006210992     0.000013183582     0.000004280917
      12       -0.000008336375    -0.000028893157    -0.000013766405
      13        0.000010091063     0.000004151826    -0.000004838617

  **** Optimization is complete! (in 9 steps) ****
    Final optimized geometry and variables:
    Molecular point group: c1

    Geometry (in Angstrom), charge = 0, multiplicity = 1:

    H            3.393945828438     0.625752120756    -0.695320925530
    C            2.656310890845     0.497123623652     0.086456401919
    C            1.350358970465    -0.037839569712    -0.495333307630
    H            3.069622051647    -0.186090756731     0.820725022033
    H            2.506783522157     1.456407391041     0.567758627118
    C            0.321123649054    -0.299932279324     0.609111340129
    H            1.554511828258    -0.963831569620    -1.016354598274
    H            0.947881223863     0.671715870758    -1.205895909498
    N           -1.053091045685    -0.108858546793     0.074480298067
    H            0.368690021974    -1.307136036774     0.985905058953
    H            0.413879806751     0.413789036789     1.410292635735
    O           -1.581110244352    -1.048877068937    -0.418089263414
    O           -1.516013058055     0.979853031844     0.148024588805

  Mulliken Charges: (a.u.)
   Center  Symbol    Alpha    Beta     Spin     Total
       1     H     0.44300  0.44300  0.00000  0.11399
       2     C     3.15071  3.15071  0.00000 -0.30143
       3     C     3.09200  3.09200  0.00000 -0.18401
       4     H     0.45240  0.45240  0.00000  0.09519
       5     H     0.44957  0.44957  0.00000  0.10085
       6     C     3.03752  3.03752  0.00000 -0.07504
       7     H     0.44162  0.44162  0.00000  0.11676
       8     H     0.43788  0.43788  0.00000  0.12425
       9     N     3.27937  3.27937  0.00000  0.44126
      10     H     0.43293  0.43293  0.00000  0.13414
      11     H     0.43717  0.43717  0.00000  0.12567
      12     O     4.17287  4.17287  0.00000 -0.34575
      13     O     4.17294  4.17294  0.00000 -0.34588

   Total alpha = 24.00000, Total beta = 24.00000, Total charge =  0.00000

*** Psi4 exiting successfully. Buy a developer a beer!
