  ==> Input File <==

--------------------------------------------------------------------------
set {
	reference rhf
	basis cc-pvtz
}

set_num_threads( 4 )
memory 2 gb

molecule MOL {
0 1

H	 -1.635248	 2.542628	 -0.055756
C	 -0.613335	 2.186734	 -0.057786
C	 -0.600949	 0.658697	 -0.000002
H	 -0.101076	 2.609827	 0.795835
H	 -0.127705	 2.543359	 -0.956155
C	 0.763408	 0.112229	 -0.000006
H	 -1.097472	 0.303728	 0.893528
H	 -1.123951	 0.237633	 -0.848594
N	 1.806008	 -0.317179	 0.000007

	symmetry c1
}
set optking {
	frozen_dihedral = ("
		7 3 6 9
	")
}

ee = optimize('scf')
oeprop('DIPOLE', 'QUADRUPOLE', 'MULLIKEN_CHARGES')
f=open( 'psi4out.xyz', 'w' )
f.write( "9  " )
f.write( str(ee) + "\n" )
f.write( MOL.save_string_xyz() )
f.close()
--------------------------------------------------------------------------

    Molecular point group: c1
  Charge       = 0
  Multiplicity = 1
  Basis Set: CC-PVTZ
  Basis Set:
  @DF-RHF Final Energy:  -171.02344232857271
    Total Energy =                       -171.0234423285726848
    Molecular point group: c1
  Basis Set: CC-PVTZ
  Basis Set:
  Basis Set: CC-PVTZ
  Basis Set:
  @DF-RHF Final Energy:  -171.02292531722446
    Total Energy =                       -171.0229253172244626
  Basis Set: CC-PVTZ
  Basis Set:
  Basis Set: CC-PVTZ
  Basis Set:
  @DF-RHF Final Energy:  -171.02340143109694
    Total Energy =                       -171.0234014310968860
  Basis Set: CC-PVTZ
  Basis Set:
  Basis Set: CC-PVTZ
  Basis Set:
  @DF-RHF Final Energy:  -170.99008242289099
    Total Energy =                       -170.9900824228910494
  Basis Set: CC-PVTZ
  Basis Set:
  @DF-RHF Final Energy:  -171.01915575393917
    Total Energy =                       -171.0191557539391454
  @DF-RHF Final Energy:  -171.02179569755674
    Total Energy =                       -171.0217956975567972
  @DF-RHF Final Energy:  -171.01933341433772
    Total Energy =                       -171.0193334143376944
  @DF-RHF Final Energy:  -171.02198000753197
    Total Energy =                       -171.0219800075319370
  @DF-RHF Final Energy:  -171.02337105595794
    Total Energy =                       -171.0233710559577958
  @DF-RHF Final Energy:  -171.02009481883405
    Total Energy =                       -171.0200948188340817
  @DF-RHF Final Energy:  -171.02275288269766
    Total Energy =                       -171.0227528826976879
  @DF-RHF Final Energy:  -171.02330236799878
    Total Energy =                       -171.0233023679987525
  @DF-RHF Final Energy:  -171.02344442330366
    Total Energy =                       -171.0234444233037152
  @DF-RHF Final Energy:  -171.02345783200980
    Total Energy =                       -171.0234578320097967
  @DF-RHF Final Energy:  -171.02345369394641
    Total Energy =                       -171.0234536939464078
  @DF-RHF Final Energy:  -171.02345906220407
    Total Energy =                       -171.0234590622040400
  @DF-RHF Final Energy:  -171.02345344697858
    Total Energy =                       -171.0234534469785785
  @DF-RHF Final Energy:  -171.02342035991560
    Total Energy =                       -171.0234203599156615
  @DF-RHF Final Energy:  -171.02342098729099
    Total Energy =                       -171.0234209872910469
  @DF-RHF Final Energy:  -171.02339442272580
    Total Energy =                       -171.0233944227258007
  @DF-RHF Final Energy:  -171.02345125522021
    Total Energy =                       -171.0234512552202091
  @DF-RHF Final Energy:  -171.02345366701891
    Total Energy =                       -171.0234536670188277
  @DF-RHF Final Energy:  -171.02345382489975
    Total Energy =                       -171.0234538248996898
  @DF-RHF Final Energy:  -171.02345390057232
    Total Energy =                       -171.0234539005722354
  @DF-RHF Final Energy:  -171.02345393752913
    Total Energy =                       -171.0234539375290410
  @DF-RHF Final Energy:  -171.02345373306025
    Total Energy =                       -171.0234537330603075
  @DF-RHF Final Energy:  -171.02345355992190
    Total Energy =                       -171.0234535599218759
  @DF-RHF Final Energy:  -171.02345337683792
    Total Energy =                       -171.0234533768380345
  @DF-RHF Final Energy:  -171.02345701939959
    Total Energy =                       -171.0234570193996433
  @DF-RHF Final Energy:  -171.02345730244383
    Total Energy =                       -171.0234573024439442
  @DF-RHF Final Energy:  -171.02345768018341
    Total Energy =                       -171.0234576801832986
  @DF-RHF Final Energy:  -171.02345768523458
    Total Energy =                       -171.0234576852345754
  @DF-RHF Final Energy:  -171.02344547770775
    Total Energy =                       -171.0234454777077531
  @DF-RHF Final Energy:  -171.02344628787057
    Total Energy =                       -171.0234462878705131
  @DF-RHF Final Energy:  -171.02344714103091
    Total Energy =                       -171.0234471410309141
  @DF-RHF Final Energy:  -171.02344559039216
    Total Energy =                       -171.0234455903922424
  Basis Set: CC-PVTZ
  Basis Set:
  @DF-RHF Final Energy:  -171.02333732781312
    Total Energy =                       -171.0233373278131239
  Basis Set: CC-PVTZ
  Basis Set:
  Basis Set: CC-PVTZ
  Basis Set:
  @DF-RHF Final Energy:  -171.02334909184299
    Total Energy =                       -171.0233490918429595
  Basis Set: CC-PVTZ
  Basis Set:
  Basis Set: CC-PVTZ
  Basis Set:
  @DF-RHF Final Energy:  -171.02338500225164
    Total Energy =                       -171.0233850022515583
  Basis Set: CC-PVTZ
  Basis Set:
  Charge       = 0
  Multiplicity = 1
  Basis Set: CC-PVTZ
  Basis Set:

    Orbital Energies (a.u.)
    -----------------------

    Doubly Occupied:

       1A    -15.556647     2A    -11.282446     3A    -11.261230
       4A    -11.244531     5A     -1.229165     6A     -1.084453
       7A     -0.913333     8A     -0.701042     9A     -0.660923
      10A     -0.589814    11A     -0.563047    12A     -0.545250
      13A     -0.540303    14A     -0.463995    15A     -0.463784

  @DF-RHF Final Energy:  -171.02344340940110

   => Energetics <=

    Nuclear Repulsion Energy =            103.7269543910333880
    One-Electron Energy =                -435.3008702917473443
    Two-Electron Energy =                 160.5504724913128030
    DFT Exchange-Correlation Energy =       0.0000000000000000
    Empirical Dispersion Energy =           0.0000000000000000
    PCM Polarization Energy =               0.0000000000000000
    EFP Energy =                            0.0000000000000000
    Total Energy =                       -171.0234434094011249
    Molecular point group: c1
  Basis Set: CC-PVTZ
  Basis Set:

  -Total Gradient:
     Atom            X                  Y                   Z
    ------   -----------------  -----------------  -----------------
       1       -0.000109798212    -0.000013215842    -0.000031428972
       2        0.000014989120    -0.000023833549     0.000505911922
       3        0.001112473492    -0.000668150994     0.000248324353
       4        0.000016665714     0.000023728807     0.000023348668
       5        0.000000908122    -0.000161093591    -0.000060523472
       6        0.000269675417     0.001330242875    -0.000823609914
       7       -0.000993693248     0.000490444521    -0.000293921427
       8       -0.000198316189    -0.000368308379     0.000263910021
       9       -0.000112904220    -0.000609813849     0.000167988821

    Molecular point group: c1

    Geometry (in Angstrom), charge = 0, multiplicity = 1:

    H           -1.927375378158     1.819266775055    -0.013544771905
    C           -0.904373812844     1.467517070118    -0.041828081866
    C           -0.888430315947    -0.061704256346     0.013307591464
    H           -0.372840595713     1.891269319776     0.799841964810
    H           -0.443556467806     1.827545120321    -0.952246258610
    C            0.475130622816    -0.609393675185     0.014702006873
    H           -1.385369321957    -0.419842697950     0.904946237493
    H           -1.410345731478    -0.481033004515    -0.837253497789
    N            1.527872824697    -1.016242680195     0.018913489078

  Mulliken Charges: (a.u.)
   Center  Symbol    Alpha    Beta     Spin     Total
       1     H     0.44617  0.44617  0.00000  0.10766
       2     C     3.13554  3.13554  0.00000 -0.27107
       3     C     3.07963  3.07963  0.00000 -0.15925
       4     H     0.44488  0.44488  0.00000  0.11025
       5     H     0.44495  0.44495  0.00000  0.11010
       6     C     3.04221  3.04221  0.00000 -0.08442
       7     H     0.43200  0.43200  0.00000  0.13599
       8     H     0.43212  0.43212  0.00000  0.13576
       9     N     3.54251  3.54251  0.00000 -0.08501

   Total alpha = 15.00000, Total beta = 15.00000, Total charge = -0.00000
