  ==> Input File <==

--------------------------------------------------------------------------
set {
	reference rhf
	basis 6-31G*
}

set_num_threads( 4 )
memory 2 gb

molecule MOL {
0 1

H	 2.176868	 -0.646004	 -0.217325
O	 1.337496	 -0.537251	 0.205931
C	 0.702312	 0.627605	 -0.264544
C	 -0.714990	 0.596302	 0.266387
H	 0.682322	 0.642550	 -1.350929
H	 1.215941	 1.520383	 0.085680
O	 -1.405996	 -0.526611	 -0.195820
H	 -1.257453	 1.468809	 -0.075599
H	 -0.688972	 0.618407	 1.353696
H	 -1.828889	 -0.289931	 -1.011392

	symmetry c1
}
set optking {
	frozen_dihedral = ("
		10 7 4 3
	")
}

ee = optimize('scf')
oeprop('DIPOLE', 'QUADRUPOLE', 'MULLIKEN_CHARGES')
f=open( 'psi4out.xyz', 'w' )
f.write( "10  " )
f.write( str(ee) + "\n" )
f.write( MOL.save_string_xyz() )
f.close()
--------------------------------------------------------------------------

    Molecular point group: c1
  Charge       = 0
  Multiplicity = 1
  Basis Set: 6-31G*
  Basis Set:
  @DF-RHF Final Energy:  -228.91573569564855
    Total Energy =                       -228.9157356956486353
    Molecular point group: c1
  Basis Set: 6-31G*
  Basis Set:
  Basis Set: 6-31G*
  Basis Set:
  @DF-RHF Final Energy:  -228.91775419898573
    Total Energy =                       -228.9177541989856763
  Basis Set: 6-31G*
  Basis Set:
  Basis Set: 6-31G*
  Basis Set:
  @DF-RHF Final Energy:  -228.91797297607337
    Total Energy =                       -228.9179729760734006
  Basis Set: 6-31G*
  Basis Set:
  Basis Set: 6-31G*
  Basis Set:
  @DF-RHF Final Energy:  -228.91799060485965
    Total Energy =                       -228.9179906048596536
  Basis Set: 6-31G*
  Basis Set:
  Charge       = 0
  Multiplicity = 1
  Basis Set: 6-31G*
  Basis Set:

    Orbital Energies (a.u.)
    -----------------------

    Doubly Occupied:

       1A    -20.554655     2A    -20.552956     3A    -11.272058
       4A    -11.270338     5A     -1.372079     6A     -1.351977
       7A     -1.001167     8A     -0.840051     9A     -0.721119
      10A     -0.679704    11A     -0.650157    12A     -0.595125
      13A     -0.571021    14A     -0.525678    15A     -0.488012
      16A     -0.442929    17A     -0.432102

  @DF-RHF Final Energy:  -228.91799128859486

   => Energetics <=

    Nuclear Repulsion Energy =            133.1787779024664360
    One-Electron Energy =                -577.5512811479359243
    Two-Electron Energy =                 215.4545119568746543
    DFT Exchange-Correlation Energy =       0.0000000000000000
    Empirical Dispersion Energy =           0.0000000000000000
    PCM Polarization Energy =               0.0000000000000000
    EFP Energy =                            0.0000000000000000
    Total Energy =                       -228.9179912885948340
    Molecular point group: c1
  Basis Set: 6-31G*
  Basis Set:

  -Total Gradient:
     Atom            X                  Y                   Z
    ------   -----------------  -----------------  -----------------
       1       -0.000003658456     0.000020412818    -0.000009275681
       2       -0.000023571757     0.000017421763     0.000050005390
       3        0.000283152633    -0.000568150726     0.000742770106
       4       -0.000746109741     0.000936872937    -0.000975755002
       5        0.000008747772     0.000000410792    -0.000012587039
       6        0.000017134364    -0.000041422010     0.000029412761
       7        0.001795126738    -0.000893490076    -0.000730279286
       8        0.000013806525    -0.000015041966    -0.000006166224
       9       -0.000008737674    -0.000003301483     0.000029276356
      10       -0.001335890398     0.000546287952     0.000882598619

  **** Optimization is complete! (in 5 steps) ****
    Final optimized geometry and variables:
    Molecular point group: c1

    Geometry (in Angstrom), charge = 0, multiplicity = 1:

    H            2.258757742553    -0.599220417402    -0.131645202515
    O            1.406328797552    -0.525509458149     0.272623632425
    C            0.720583267035     0.569463129795    -0.263489466701
    C           -0.698296190478     0.561417235312     0.268884250599
    H            0.700365280524     0.526229338729    -1.351864409543
    H            1.199030239717     1.506034923930     0.023296175806
    O           -1.450377861112    -0.520433401148    -0.207566108101
    H           -1.176117256292     1.509108855120     0.028201360167
    H           -0.662069506920     0.471856786468     1.346812132066
    H           -1.886244297696    -0.279336056864    -1.011544945722

  Mulliken Charges: (a.u.)
   Center  Symbol    Alpha    Beta     Spin     Total
       1     H     0.27988  0.27988  0.00000  0.44025
       2     O     4.36336  4.36336  0.00000 -0.72672
       3     C     2.99900  2.99900  0.00000  0.00199
       4     C     3.00433  3.00433  0.00000 -0.00866
       5     H     0.43471  0.43471  0.00000  0.13058
       6     H     0.43344  0.43344  0.00000  0.13311
       7     O     4.36374  4.36374  0.00000 -0.72748
       8     H     0.43155  0.43155  0.00000  0.13690
       9     H     0.40785  0.40785  0.00000  0.18429
      10     H     0.28213  0.28213  0.00000  0.43574

   Total alpha = 17.00000, Total beta = 17.00000, Total charge = -0.00000
