                              Psi4 1.0.54 Driver

  ==> Input File <==

--------------------------------------------------------------------------
set {
	reference rhf
	basis cc-pvtz
}

set_num_threads( 4 )
memory 2 gb

molecule MOL {
0 1

H	 -3.258660	 -0.290394	 1.471450
C	 -3.307964	 -0.275695	 0.374072
C	 -2.653809	 0.914422	 -0.273689
O	 -3.855140	 -1.148880	 -0.205112
C	 -1.216901	 1.136108	 0.207794
H	 -2.700131	 0.790676	 -1.347875
H	 -3.256452	 1.781007	 -0.010713
C	 -0.247837	 0.040196	 -0.230469
H	 -0.872882	 2.093195	 -0.169002
H	 -1.209325	 1.218376	 1.291938
C	 1.181757	 0.280428	 0.247371
H	 -0.259600	 -0.030819	 -1.314870
H	 -0.591284	 -0.923375	 0.136958
C	 2.151032	 -0.811012	 -0.202643
H	 1.515939	 1.247397	 -0.115449
H	 1.191514	 0.341223	 1.333422
C	 3.580021	 -0.656538	 0.320835
H	 2.170545	 -0.847575	 -1.289412
H	 1.766632	 -1.772905	 0.124928
C	 3.684019	 -0.351830	 1.813290
H	 4.061688	 0.144327	 -0.231436
H	 4.143250	 -1.558756	 0.097045
H	 3.124327	 0.542538	 2.067939
H	 3.304033	 -1.163987	 2.421316
H	 4.716149	 -0.186944	 2.100493

	symmetry c1
}
set optking {
	frozen_dihedral = ("
		20 17 14 18
	")
}

ee,wfn = optimize('scf', return_wfn=True)
oeprop( wfn, 'DIPOLE', 'QUADRUPOLE', 'MULLIKEN_CHARGES')
f=open( 'psi4out.xyz', 'w' )
f.write( "25  " )
f.write( str(ee) + "\n" )
f.write( MOL.save_string_xyz() )
f.close()
--------------------------------------------------------------------------

    Molecular point group: c1
  Charge       = 0
  Multiplicity = 1
  Basis Set: CC-PVTZ
  Basis Set:
  @DF-RHF Final Energy:  -387.25786214266617
    Total Energy =                       -387.2578621426662266
    Molecular point group: c1
  Basis Set: CC-PVTZ
  Basis Set:
  Basis Set: CC-PVTZ
  Basis Set:
  @DF-RHF Final Energy:  -387.25879326446227
    Total Energy =                       -387.2587932644614739
  Basis Set: CC-PVTZ
  Basis Set:
  Basis Set: CC-PVTZ
  Basis Set:
  @DF-RHF Final Energy:  -387.25926555743877
    Total Energy =                       -387.2592655574389937
  Basis Set: CC-PVTZ
  Basis Set:
  Basis Set: CC-PVTZ
  Basis Set:
  @DF-RHF Final Energy:  -387.25930518128337
    Total Energy =                       -387.2593051812830254
  Basis Set: CC-PVTZ
  Basis Set:
  Basis Set: CC-PVTZ
  Basis Set:
  @DF-RHF Final Energy:  -387.25873818154548
    Total Energy =                       -387.2587381815459366
  Basis Set: CC-PVTZ
  Basis Set:
  Basis Set: CC-PVTZ
  Basis Set:
  @DF-RHF Final Energy:  -387.25931571000342
    Total Energy =                       -387.2593157100029657
  Basis Set: CC-PVTZ
  Basis Set:
  Basis Set: CC-PVTZ
  Basis Set:
  @DF-RHF Final Energy:  -387.25931862869896
    Total Energy =                       -387.2593186286984519
  Basis Set: CC-PVTZ
  Basis Set:
  Charge       = 0
  Multiplicity = 1
  Basis Set: CC-PVTZ
  Basis Set:

    Orbital Energies (a.u.)
    -----------------------

    Doubly Occupied:

       1A    -20.551351     2A    -11.320990     3A    -11.233764
       4A    -11.232781     5A    -11.221639     6A    -11.217575
       7A    -11.216406     8A    -11.215209     9A    -11.208892
      10A     -1.406335    11A     -1.105337    12A     -1.070730
      13A     -1.014032    14A     -0.943262    15A     -0.877594
      16A     -0.822183    17A     -0.788438    18A     -0.778419
      19A     -0.667689    20A     -0.664765    21A     -0.636494
      22A     -0.624293    23A     -0.610876    24A     -0.590429
      25A     -0.568516    26A     -0.563783    27A     -0.528119
      28A     -0.526323    29A     -0.516540    30A     -0.498239
      31A     -0.490019    32A     -0.479980    33A     -0.462054
      34A     -0.459466    35A     -0.443273    36A     -0.411823

  @DF-RHF Final Energy:  -387.25931762968213

   => Energetics <=

    Nuclear Repulsion Energy =            440.8101349178713804
    One-Electron Energy =               -1398.2036777592559247
    Two-Electron Energy =                 570.1342252117024145
    DFT Exchange-Correlation Energy =       0.0000000000000000
    Empirical Dispersion Energy =           0.0000000000000000
    PCM Polarization Energy =               0.0000000000000000
    EFP Energy =                            0.0000000000000000
    Total Energy =                       -387.2593176296820729
    Molecular point group: c1
  Basis Set: CC-PVTZ
  Basis Set:

  -Total Gradient:
     Atom            X                  Y                   Z
    ------   -----------------  -----------------  -----------------
       1        0.000059951714     0.000077789165     0.000096097330
       2       -0.000048284816    -0.000079812314     0.000140137220
       3       -0.000005661276    -0.000077725913     0.000030715309
       4        0.000009656934    -0.000026500755    -0.000196352462
       5        0.000043955830     0.000025835819    -0.000078030444
       6        0.000013472699     0.000039886758    -0.000079371637
       7       -0.000072755718     0.000031522692     0.000051552998
       8       -0.000028855571    -0.000022640141     0.000019570500
       9        0.000037938103    -0.000016601297    -0.000017690056
      10        0.000002072252     0.000040006573     0.000011523846
      11        0.000020466323     0.000016436648    -0.000056648967
      12        0.000026419175     0.000011521321     0.000012053266
      13       -0.000052665678     0.000001505913     0.000002619814
      14        0.000390874555    -0.003324480285     0.000163059161
      15        0.000002390996     0.000047734492     0.000015339024
      16        0.000000512492    -0.000035461878     0.000011123884
      17        0.000097611191    -0.002959033543     0.000928761741
      18       -0.000374619538     0.003634603859    -0.000320453146
      19       -0.000001222033    -0.000037234157    -0.000002082323
      20       -0.000135539683     0.002641515156    -0.000727038448
      21        0.000008378997     0.000016779661     0.000000861777
      22        0.000014758643    -0.000013800836    -0.000002723264
      23       -0.000002528428     0.000037581668    -0.000002357103
      24       -0.000021055665    -0.000009289259     0.000004777269
      25        0.000014728506    -0.000020139348    -0.000005445290

  **** Optimization is complete! (in 8 steps) ****
    Final optimized geometry and variables:
    Molecular point group: c1

    Geometry (in Angstrom), charge = 0, multiplicity = 1:

    H           -3.309656978536    -0.086146982408     1.002709828003
    C           -3.269364526108    -0.049329903969    -0.094654546657
    C           -2.511439097928     1.120321620409    -0.661828142236
    O           -3.806783588144    -0.884724680017    -0.735507774300
    C           -1.110643344029     1.266759545920    -0.060276387976
    H           -2.474658521816     1.017576016694    -1.738709163468
    H           -3.094596902956     2.009176792128    -0.430654842396
    C           -0.163478942228     0.126929278447    -0.428909568138
    H           -0.689508675796     2.208088577861    -0.396425771155
    H           -1.189762451318     1.340916400269     1.021565413600
    C            1.232132948334     0.293545220451     0.166408796317
    H           -0.091178475640     0.061665788869    -1.511169488351
    H           -0.582107635064    -0.820501254635    -0.098671275265
    C            2.171922980101    -0.855159926475    -0.200143518493
    H            1.658519457433     1.233046643578    -0.179301707467
    H            1.146890617439     0.375550932438     1.245175134661
    C            3.626828183908    -0.667727195081     0.241692919336
    H            2.159075708293    -0.954856363011    -1.281756478488
    H            1.779690010440    -1.781814683929     0.210240602761
    C            3.821510179390    -0.273303404637     1.703768573684
    H            4.086819313572     0.093160106599    -0.383683704839
    H            4.168200653481    -1.587006781880     0.042834962827
    H            3.418644227175     0.709847238196     1.912676923717
    H            3.338400786953    -0.978849463110     2.372979276572
    H            4.875841475420    -0.253418998511     1.954592414553

  Mulliken Charges: (a.u.)
   Center  Symbol    Alpha    Beta     Spin     Total
       1     H     0.46411  0.46411  0.00000  0.07179
       2     C     2.90466  2.90466  0.00000  0.19067
       3     C     3.08927  3.08927  0.00000 -0.17853
       4     O     4.16637  4.16637  0.00000 -0.33273
       5     C     3.11580  3.11580  0.00000 -0.23160
       6     H     0.44290  0.44290  0.00000  0.11420
       7     H     0.44055  0.44055  0.00000  0.11889
       8     C     3.09094  3.09094  0.00000 -0.18188
       9     H     0.44320  0.44320  0.00000  0.11360
      10     H     0.44992  0.44992  0.00000  0.10016
      11     C     3.09381  3.09381  0.00000 -0.18762
      12     H     0.44935  0.44935  0.00000  0.10130
      13     H     0.44843  0.44843  0.00000  0.10314
      14     C     3.09582  3.09582  0.00000 -0.19164
      15     H     0.45295  0.45295  0.00000  0.09410
      16     H     0.45108  0.45108  0.00000  0.09783
      17     C     3.08993  3.08993  0.00000 -0.17985
      18     H     0.44996  0.44996  0.00000  0.10008
      19     H     0.45077  0.45077  0.00000  0.09845
      20     C     3.15624  3.15624  0.00000 -0.31247
      21     H     0.45435  0.45435  0.00000  0.09131
      22     H     0.44785  0.44785  0.00000  0.10430
      23     H     0.45273  0.45273  0.00000  0.09454
      24     H     0.45406  0.45406  0.00000  0.09188
      25     H     0.44496  0.44496  0.00000  0.11008

   Total alpha = 36.00000, Total beta = 36.00000, Total charge = -0.00000

*** Psi4 exiting successfully. Buy a developer a beer!
