  ==> Input File <==

--------------------------------------------------------------------------
set {
	reference rhf
	basis 6-31G*
}

set_num_threads( 4 )
memory 2 gb

molecule MOL {
0 1

O	 2.144810	 2.481036	 1.771083
C	 1.736660	 1.898060	 2.728325
C	 0.451843	 1.089847	 2.697098
C	 2.481472	 1.927891	 4.047233
C	 -0.254733	 1.097357	 1.344719
H	 0.691321	 0.071573	 3.000672
H	 -0.203935	 1.476216	 3.476249
C	 -1.543404	 0.273320	 1.351938
H	 0.422896	 0.716411	 0.587204
H	 -0.473602	 2.122582	 1.063369
C	 -2.259874	 0.272531	 0.000494
H	 -1.317146	 -0.752779	 1.638248
H	 -2.217715	 0.659665	 2.114900
C	 -3.549786	 -0.549746	 -0.000374
H	 -1.586964	 -0.114153	 -0.762845
H	 -2.487325	 1.297714	 -0.286319
C	 -4.809590	 0.315458	 -0.000369
H	 -3.560515	 -1.202009	 -0.871156
H	 -3.561123	 -1.202955	 0.869711
H	 -4.844746	 0.956611	 -0.876632
H	 -5.706986	 -0.295590	 -0.001609
H	 -4.845960	 0.954827	 0.877144
H	 2.753029	 0.921413	 4.351990
H	 3.374958	 2.528471	 3.948129
H	 1.851171	 2.342106	 4.828758

	symmetry c1
}
set optking {
	frozen_dihedral = ("
		15 11 14 18
	")
}

ee = optimize('scf')
oeprop('DIPOLE', 'QUADRUPOLE', 'MULLIKEN_CHARGES')
f=open( 'psi4out.xyz', 'w' )
f.write( "25  " )
f.write( str(ee) + "\n" )
f.write( MOL.save_string_xyz() )
f.close()
--------------------------------------------------------------------------

    Molecular point group: c1
  Charge       = 0
  Multiplicity = 1
  Basis Set: 6-31G*
  Basis Set:
  @DF-RHF Final Energy:  -387.13128906535798
    Total Energy =                       -387.1312890653580325
    Molecular point group: c1
  Basis Set: 6-31G*
  Basis Set:
  Basis Set: 6-31G*
  Basis Set:
  @DF-RHF Final Energy:  -387.13156849324457
    Total Energy =                       -387.1315684932450267
  Basis Set: 6-31G*
  Basis Set:
  Basis Set: 6-31G*
  Basis Set:
  @DF-RHF Final Energy:  -387.13165758378875
    Total Energy =                       -387.1316575837889786
  Basis Set: 6-31G*
  Basis Set:
  Basis Set: 6-31G*
  Basis Set:
  @DF-RHF Final Energy:  -387.13161639926602
    Total Energy =                       -387.1316163992664769
  Basis Set: 6-31G*
  Basis Set:
  Basis Set: 6-31G*
  Basis Set:
  @DF-RHF Final Energy:  -387.13165604009680
    Total Energy =                       -387.1316560400962317
  Basis Set: 6-31G*
  Basis Set:
  Basis Set: 6-31G*
  Basis Set:
  @DF-RHF Final Energy:  -387.13166086145509
    Total Energy =                       -387.1316608614549750
  Basis Set: 6-31G*
  Basis Set:
  Charge       = 0
  Multiplicity = 1
  Basis Set: 6-31G*
  Basis Set:

    Orbital Energies (a.u.)
    -----------------------

    Doubly Occupied:

       1A    -20.550519     2A    -11.326358     3A    -11.231992
       4A    -11.228388     5A    -11.217477     6A    -11.216565
       7A    -11.215080     8A    -11.213225     9A    -11.209187
      10A     -1.395826    11A     -1.092923    12A     -1.054917
      13A     -1.014021    14A     -0.968565    15A     -0.891763
      16A     -0.818307    17A     -0.788143    18A     -0.729853
      19A     -0.657946    20A     -0.652994    21A     -0.624765
      22A     -0.620815    23A     -0.605662    24A     -0.587868
      25A     -0.569127    26A     -0.557283    27A     -0.533821
      28A     -0.528001    29A     -0.515923    30A     -0.491146
      31A     -0.484856    32A     -0.478576    33A     -0.463476
      34A     -0.454652    35A     -0.449861    36A     -0.399464

  @DF-RHF Final Energy:  -387.13166088532427

   => Energetics <=

    Nuclear Repulsion Energy =            440.3615368321515575
    One-Electron Energy =               -1397.3077050520785178
    Two-Electron Energy =                 569.8145073346026948
    DFT Exchange-Correlation Energy =       0.0000000000000000
    Empirical Dispersion Energy =           0.0000000000000000
    PCM Polarization Energy =               0.0000000000000000
    EFP Energy =                            0.0000000000000000
    Total Energy =                       -387.1316608853242087
    Molecular point group: c1
  Basis Set: 6-31G*
  Basis Set:

  -Total Gradient:
     Atom            X                  Y                   Z
    ------   -----------------  -----------------  -----------------
       1        0.000000531368     0.000000816395    -0.000002831566
       2       -0.000005122804     0.000003184292    -0.000005122242
       3       -0.000003962400    -0.000005169931     0.000002099970
       4       -0.000002833690    -0.000004988005    -0.000000153989
       5        0.000009275512    -0.000014144234    -0.000001544379
       6        0.000000785671    -0.000002320065     0.000000690132
       7       -0.000000585458    -0.000000845781     0.000000261892
       8        0.000003759880     0.000027515128     0.000021422889
       9        0.000002418300     0.000000454823    -0.000002186280
      10       -0.000006323681    -0.000000198883     0.000000658968
      11        0.001636726624    -0.002697846691     0.002628706540
      12        0.000005480425     0.000006605140    -0.000000773024
      13       -0.000002385812     0.000001004065     0.000012803340
      14       -0.001763192959     0.002916714313    -0.002276147019
      15       -0.001053646483     0.001796452219    -0.001859146503
      16        0.000009881159    -0.000007340555     0.000001565641
      17       -0.000020285093     0.000004443064     0.000001867338
      18        0.001198657944    -0.002037973921     0.001485448993
      19       -0.000001755681     0.000000442152    -0.000009416078
      20        0.000001221578     0.000007330673     0.000002017335
      21        0.000001714798     0.000004503654    -0.000006116370
      22       -0.000007831812     0.000000843299     0.000006812407
      23       -0.000000072524     0.000000007437     0.000001265099
      24       -0.000002083784    -0.000000258077    -0.000002531997
      25       -0.000000371084     0.000000769487     0.000000348906

  **** Optimization is complete! (in 7 steps) ****
    Final optimized geometry and variables:
    Molecular point group: c1

    Geometry (in Angstrom), charge = 0, multiplicity = 1:

    O            2.757293332186     1.519477992408     0.231890700011
    C            2.355780981774     0.924224361017     1.184353742717
    C            1.082601921840     0.098121674932     1.145232839260
    C            3.097736644902     0.955507271964     2.504828344559
    C            0.378704728680     0.104711043146    -0.208556936715
    H            1.335951063076    -0.918627146180     1.442562943744
    H            0.419920818152     0.470054257481     1.925575952966
    C           -0.898626959755    -0.735858795320    -0.209390440065
    H            1.062681045940    -0.262907747278    -0.967100009543
    H            0.147207221050     1.128675858169    -0.484304567895
    C           -1.607278974141    -0.746626131830    -1.565210210113
    H           -0.661936813757    -1.759338444547     0.077232785423
    H           -1.583323845699    -0.359166019422     0.549661269189
    C           -2.934250626079    -1.535011757891    -1.565017753442
    H           -0.937436044535    -1.141562247719    -2.324586808693
    H           -1.801992016517     0.280999400354    -1.866316817361
    C           -4.175307585697    -0.643779401390    -1.525828361840
    H           -2.978756532830    -2.188966939433    -2.431171713275
    H           -2.953776245776    -2.201917772414    -0.705596177861
    H           -4.230409928748    -0.011433723350    -2.407172260147
    H           -5.084880081545    -1.235277669839    -1.484066612772
    H           -4.163522561169     0.006143182053    -0.654925664967
    H            3.383314383640    -0.049070514647     2.802966975258
    H            3.982613588977     1.569604728906     2.411602565624
    H            2.460156099774     1.355022574359     3.288106958250

  Mulliken Charges: (a.u.)
   Center  Symbol    Alpha    Beta     Spin     Total
       1     O     4.26112  4.26112  0.00000 -0.52225
       2     C     2.73570  2.73570  0.00000  0.52860
       3     C     3.21082  3.21082  0.00000 -0.42163
       4     C     3.28665  3.28665  0.00000 -0.57329
       5     C     3.14867  3.14867  0.00000 -0.29733
       6     H     0.40995  0.40995  0.00000  0.18009
       7     H     0.41003  0.41003  0.00000  0.17993
       8     C     3.15508  3.15508  0.00000 -0.31016
       9     H     0.41209  0.41209  0.00000  0.17581
      10     H     0.41199  0.41199  0.00000  0.17602
      11     C     3.15548  3.15548  0.00000 -0.31095
      12     H     0.42423  0.42423  0.00000  0.15153
      13     H     0.42469  0.42469  0.00000  0.15062
      14     C     3.15558  3.15558  0.00000 -0.31117
      15     H     0.41936  0.41936  0.00000  0.16127
      16     H     0.42041  0.42041  0.00000  0.15919
      17     C     3.23939  3.23939  0.00000 -0.47877
      18     H     0.41954  0.41954  0.00000  0.16091
      19     H     0.42196  0.42196  0.00000  0.15609
      20     H     0.42062  0.42062  0.00000  0.15876
      21     H     0.42027  0.42027  0.00000  0.15947
      22     H     0.42249  0.42249  0.00000  0.15502
      23     H     0.40873  0.40873  0.00000  0.18255
      24     H     0.39645  0.39645  0.00000  0.20711
      25     H     0.40870  0.40870  0.00000  0.18261

   Total alpha = 36.00000, Total beta = 36.00000, Total charge =  0.00000
