  ==> Input File <==

--------------------------------------------------------------------------
set {
	reference rhf
	basis 6-31G*
}

set_num_threads( 1 )
memory 2 gb

molecule MOL {
0 1

H	 3.276176	 0.174363	 -0.109463
N	 2.434251	 -0.367735	 -0.081097
C	 1.267428	 0.496480	 0.024474
H	 2.501951	 -0.965776	 0.720575
C	 -0.016086	 -0.325158	 -0.029487
H	 1.288818	 1.183521	 -0.816092
H	 1.267576	 1.109062	 0.929528
C	 -1.282277	 0.529072	 0.046735
H	 -0.012495	 -0.908639	 -0.945788
H	 -0.015903	 -1.041248	 0.791956
C	 -2.539622	 -0.295015	 0.321806
H	 -1.406653	 1.073145	 -0.887343
H	 -1.167933	 1.281098	 0.824770
H	 -2.701610	 -1.033678	 -0.457846
H	 -3.421631	 0.336172	 0.368536
H	 -2.461623	 -0.825103	 1.266869

	symmetry c1
}
set optking {
	frozen_dihedral = ("
		6 3 5 9,
		1 2 3 6
	")
}

ee = energy('scf')
oeprop('DIPOLE', 'QUADRUPOLE', 'MULLIKEN_CHARGES')
f=open( 'psi4out.xyz', 'w' )
f.write( "16  " )
f.write( str(ee) + "\n" )
f.write( MOL.save_string_xyz() )
f.close()
--------------------------------------------------------------------------

    Molecular point group: c1

    Geometry (in Angstrom), charge = 0, multiplicity = 1:

       Center              X                  Y                   Z               Mass
    ------------   -----------------  -----------------  -----------------  -----------------
           H          3.271186770721     0.172980566088    -0.176854964785     1.007825032070
           N          2.429261770721    -0.369117433912    -0.148488964785    14.003074004780
           C          1.262438770721     0.495097566088    -0.042917964785    12.000000000000
           H          2.496961770721    -0.967158433912     0.653183035215     1.007825032070
           C         -0.021075229279    -0.326540433912    -0.096878964785    12.000000000000
           H          1.283828770721     1.182138566088    -0.883483964785     1.007825032070
           H          1.262586770721     1.107679566088     0.862136035215     1.007825032070
           C         -1.287266229279     0.527689566088    -0.020656964785    12.000000000000
           H         -0.017484229279    -0.910021433912    -1.013179964785     1.007825032070
           H         -0.020892229279    -1.042630433912     0.724564035215     1.007825032070
           C         -2.544611229279    -0.296397433912     0.254414035215    12.000000000000
           H         -1.411642229279     1.071762566088    -0.954734964785     1.007825032070
           H         -1.172922229279     1.279715566088     0.757378035215     1.007825032070
           H         -2.706599229279    -1.035060433912    -0.525237964785     1.007825032070
           H         -3.426620229279     0.334789566088     0.301144035215     1.007825032070
           H         -2.466612229279    -0.826485433912     1.199477035215     1.007825032070

  Charge       = 0
  Multiplicity = 1
  Basis Set: 6-31G*
  Basis Set:

    Orbital Energies (a.u.)
    -----------------------

    Doubly Occupied:

       1A    -15.532606     2A    -11.239982     3A    -11.214870
       4A    -11.209475     5A    -11.208098     6A     -1.176734
       7A     -1.059562     8A     -0.958647     9A     -0.843808
      10A     -0.792052    11A     -0.664108    12A     -0.638077
      13A     -0.602094    14A     -0.579309    15A     -0.563880
      16A     -0.523050    17A     -0.503510    18A     -0.469531
      19A     -0.464398    20A     -0.460715    21A     -0.381346

  @DF-RHF Final Energy:  -212.31636798766931

   => Energetics <=

    Nuclear Repulsion Energy =            186.3151828872297529
    One-Electron Energy =                -655.0914129322293320
    Two-Electron Energy =                 256.4598620573303833
    DFT Exchange-Correlation Energy =       0.0000000000000000
    Empirical Dispersion Energy =           0.0000000000000000
    PCM Polarization Energy =               0.0000000000000000
    EFP Energy =                            0.0000000000000000
    Total Energy =                       -212.3163679876691958

  Mulliken Charges: (a.u.)
   Center  Symbol    Alpha    Beta     Spin     Total
       1     H     0.33249  0.33249  0.00000  0.33502
       2     N     3.92182  3.92182  0.00000 -0.84364
       3     C     3.06074  3.06074  0.00000 -0.12148
       4     H     0.33531  0.33531  0.00000  0.32938
       5     C     3.15069  3.15069  0.00000 -0.30138
       6     H     0.42088  0.42088  0.00000  0.15823
       7     H     0.43462  0.43462  0.00000  0.13075
       8     C     3.15587  3.15587  0.00000 -0.31175
       9     H     0.41268  0.41268  0.00000  0.17463
      10     H     0.42808  0.42808  0.00000  0.14383
      11     C     3.23891  3.23891  0.00000 -0.47782
      12     H     0.42141  0.42141  0.00000  0.15717
      13     H     0.42405  0.42405  0.00000  0.15191
      14     H     0.42062  0.42062  0.00000  0.15877
      15     H     0.41974  0.41974  0.00000  0.16052
      16     H     0.42208  0.42208  0.00000  0.15584

   Total alpha = 21.00000, Total beta = 21.00000, Total charge =  0.00000
