                              Psi4 1.0.54 Driver

  ==> Input File <==

--------------------------------------------------------------------------
set {
	reference rhf
	basis cc-pvtz
}

set_num_threads( 4 )
memory 2 gb

molecule MOL {
0 1

H	 1.419615	 2.085952	 -3.308646
O	 2.322297	 1.828406	 -3.282870
C	 2.865167	 2.087342	 -2.014991
C	 2.372812	 1.132303	 -0.937878
H	 3.936344	 1.986236	 -2.126066
H	 2.667578	 3.116274	 -1.720532
C	 0.881391	 1.248014	 -0.631083
H	 2.605587	 0.116800	 -1.244025
H	 2.942460	 1.327573	 -0.032467
C	 0.430466	 0.297821	 0.477356
H	 0.313072	 1.046614	 -1.533001
H	 0.652194	 2.271361	 -0.338651
C	 -1.040745	 0.423345	 0.877404
H	 0.633688	 -0.726358	 0.174068
H	 1.041941	 0.478993	 1.356983
C	 -2.041121	 -0.006551	 -0.194127
H	 -1.205198	 -0.180600	 1.765511
H	 -1.246336	 1.450668	 1.169799
C	 -3.489218	 0.042606	 0.286507
H	 -1.806192	 -1.018269	 -0.517706
H	 -1.942298	 0.624387	 -1.072280
C	 -4.219984	 1.311773	 -0.139038
H	 -4.022855	 -0.824300	 -0.093339
H	 -3.510372	 -0.038577	 1.370031
H	 -4.244251	 1.405725	 -1.219696
H	 -5.244345	 1.313233	 0.215630
H	 -3.732090	 2.196311	 0.257073

	symmetry c1
}
set optking {
	frozen_dihedral = ("
		20 16 19 22
	")
}

ee,wfn = optimize('scf', return_wfn=True)
oeprop( wfn, 'DIPOLE', 'QUADRUPOLE', 'MULLIKEN_CHARGES')
f=open( 'psi4out.xyz', 'w' )
f.write( "27  " )
f.write( str(ee) + "\n" )
f.write( MOL.save_string_xyz() )
f.close()
--------------------------------------------------------------------------

    Molecular point group: c1
  Charge       = 0
  Multiplicity = 1
  Basis Set: CC-PVTZ
  Basis Set:
  @DF-RHF Final Energy:  -388.42326017915826
    Total Energy =                       -388.4232601791584329
    Molecular point group: c1
  Basis Set: CC-PVTZ
  Basis Set:
  Basis Set: CC-PVTZ
  Basis Set:
  @DF-RHF Final Energy:  -388.42307311955909
    Total Energy =                       -388.4230731195591488
  Basis Set: CC-PVTZ
  Basis Set:
  Basis Set: CC-PVTZ
  Basis Set:
  @DF-RHF Final Energy:  -388.42360700528769
    Total Energy =                       -388.4236070052876357
  Basis Set: CC-PVTZ
  Basis Set:
  Basis Set: CC-PVTZ
  Basis Set:
  @DF-RHF Final Energy:  -388.42362157405972
    Total Energy =                       -388.4236215740602347
  Basis Set: CC-PVTZ
  Basis Set:
  Basis Set: CC-PVTZ
  Basis Set:
  @DF-RHF Final Energy:  -388.42362037186484
    Total Energy =                       -388.4236203718655815
  Basis Set: CC-PVTZ
  Basis Set:
  Basis Set: CC-PVTZ
  Basis Set:
  @DF-RHF Final Energy:  -388.42362853638321
    Total Energy =                       -388.4236285363836032
  Basis Set: CC-PVTZ
  Basis Set:
  Charge       = 0
  Multiplicity = 1
  Basis Set: CC-PVTZ
  Basis Set:

    Orbital Energies (a.u.)
    -----------------------

    Doubly Occupied:

       1A    -20.545376     2A    -11.264997     3A    -11.216778
       4A    -11.214694     5A    -11.213807     6A    -11.213669
       7A    -11.213255     8A    -11.211619     9A    -11.208010
      10A     -1.363274    11A     -1.095651    12A     -1.061459
      13A     -1.011621    14A     -0.948676    15A     -0.890200
      16A     -0.824645    17A     -0.801212    18A     -0.776036
      19A     -0.696375    20A     -0.649862    21A     -0.624322
      22A     -0.618639    23A     -0.614902    24A     -0.589665
      25A     -0.580411    26A     -0.553871    27A     -0.534293
      28A     -0.531371    29A     -0.511722    30A     -0.491865
      31A     -0.488694    32A     -0.476191    33A     -0.470718
      34A     -0.453662    35A     -0.452326    36A     -0.442334
      37A     -0.425497

  @DF-RHF Final Energy:  -388.42362868815491

   => Energetics <=

    Nuclear Repulsion Energy =            463.0546660814367783
    One-Electron Energy =               -1444.3931949805471504
    Two-Electron Energy =                 592.9149002109552384
    DFT Exchange-Correlation Energy =       0.0000000000000000
    Empirical Dispersion Energy =           0.0000000000000000
    PCM Polarization Energy =               0.0000000000000000
    EFP Energy =                            0.0000000000000000
    Total Energy =                       -388.4236286881550768
    Molecular point group: c1
  Basis Set: CC-PVTZ
  Basis Set:

  -Total Gradient:
     Atom            X                  Y                   Z
    ------   -----------------  -----------------  -----------------
       1       -0.000005539302     0.000000407111     0.000012167617
       2        0.000006695551    -0.000004400350     0.000008384687
       3        0.000003869651    -0.000016060018     0.000008768346
       4       -0.000003462470    -0.000000316156    -0.000021835103
       5       -0.000001342866    -0.000002646350    -0.000007602496
       6       -0.000007472631    -0.000007884788    -0.000002675149
       7       -0.000005743656     0.000012406313     0.000019334370
       8        0.000011008071     0.000000066049    -0.000000077426
       9       -0.000005201236     0.000011299099    -0.000008327066
      10        0.000007480334    -0.000009615481    -0.000000084394
      11        0.000005420006     0.000004014795     0.000001603046
      12       -0.000004482217     0.000003440188     0.000008064632
      13        0.000004961015     0.000004160699    -0.000017522403
      14        0.000006496642     0.000001475416     0.000006791356
      15       -0.000002855428     0.000007631399    -0.000011476997
      16        0.000696095529    -0.001587447766     0.003043548880
      17       -0.000001448262     0.000000901584    -0.000022936257
      18       -0.000004515328    -0.000011043106    -0.000002731227
      19        0.000791785525     0.001602795666     0.002235239676
      20       -0.000769704950     0.000966664039    -0.003126358588
      21        0.000016085238    -0.000001305163     0.000019050709
      22       -0.000715914255    -0.000985351480    -0.002142390674
      23       -0.000009642742     0.000014683220    -0.000002374228
      24       -0.000011741444     0.000009187499    -0.000001622290
      25       -0.000003071139    -0.000005574606     0.000006423511
      26       -0.000002130921     0.000011651292     0.000002397989
      27        0.000004371284    -0.000019139102    -0.000003760527

  **** Optimization is complete! (in 7 steps) ****
    Final optimized geometry and variables:
    Molecular point group: c1

    Geometry (in Angstrom), charge = 0, multiplicity = 1:

    H            1.692026820181     1.346785134449    -2.459291075784
    O            2.586003319579     1.060232922142    -2.442639066247
    C            3.107612973425     1.171515875233    -1.144694391723
    C            2.566639310276     0.125096487419    -0.182038101498
    H            4.177935041556     1.051989485964    -1.245098040911
    H            2.930643221533     2.169786467840    -0.749142160719
    C            1.071064880150     0.246917309358     0.101072014650
    H            2.783573160177    -0.859614146976    -0.584909427928
    H            3.117909065396     0.212968570650     0.751087667664
    C            0.572379217961    -0.793894099566     1.102570222840
    H            0.521105163623     0.147955976822    -0.828697986323
    H            0.857702500344     1.242466511617     0.486321210620
    C           -0.905369509568    -0.674107267428     1.479400363346
    H            0.762218884630    -1.789284741492     0.708313335821
    H            1.165459656062    -0.710365526552     2.009005348533
    C           -1.887914175892    -1.011525700096     0.358960907633
    H           -1.099988868306    -1.338996924906     2.315936065938
    H           -1.102106604776     0.332082462185     1.842992770350
    C           -3.363377048959    -0.871906626412     0.771282240366
    H           -1.698691733387    -2.018269064996    -0.001386968798
    H           -1.706807800664    -0.366573449173    -0.495118063097
    C           -3.983870646903     0.464962010207     0.373610062324
    H           -3.942586181178    -1.665074343111     0.310081434409
    H           -3.459830193175    -1.015919797330     1.842982364706
    H           -3.981400009182     0.585065982648    -0.704289770405
    H           -5.010943052124     0.538262440778     0.712965099773
    H           -3.436955627283     1.300249555593     0.799228122933

  Mulliken Charges: (a.u.)
   Center  Symbol    Alpha    Beta     Spin     Total
       1     H     0.39224  0.39224  0.00000  0.21553
       2     O     4.20550  4.20550  0.00000 -0.41099
       3     C     2.98008  2.98008  0.00000  0.03983
       4     C     3.08896  3.08896  0.00000 -0.17791
       5     H     0.44857  0.44857  0.00000  0.10286
       6     H     0.46961  0.46961  0.00000  0.06079
       7     C     3.10261  3.10261  0.00000 -0.20521
       8     H     0.45073  0.45073  0.00000  0.09855
       9     H     0.45524  0.45524  0.00000  0.08952
      10     C     3.09876  3.09876  0.00000 -0.19751
      11     H     0.45596  0.45596  0.00000  0.08809
      12     H     0.45373  0.45373  0.00000  0.09255
      13     C     3.09809  3.09809  0.00000 -0.19618
      14     H     0.45172  0.45172  0.00000  0.09656
      15     H     0.44796  0.44796  0.00000  0.10408
      16     C     3.09699  3.09699  0.00000 -0.19399
      17     H     0.44700  0.44700  0.00000  0.10601
      18     H     0.45341  0.45341  0.00000  0.09318
      19     C     3.08799  3.08799  0.00000 -0.17598
      20     H     0.44703  0.44703  0.00000  0.10593
      21     H     0.45624  0.45624  0.00000  0.08752
      22     C     3.14907  3.14907  0.00000 -0.29814
      23     H     0.44858  0.44858  0.00000  0.10284
      24     H     0.45510  0.45510  0.00000  0.08981
      25     H     0.45519  0.45519  0.00000  0.08963
      26     H     0.44797  0.44797  0.00000  0.10405
      27     H     0.45569  0.45569  0.00000  0.08862

   Total alpha = 37.00000, Total beta = 37.00000, Total charge =  0.00000

*** Psi4 exiting successfully. Buy a developer a beer!
