  ==> Input File <==

--------------------------------------------------------------------------
set {
	reference rhf
	basis cc-pvtz
}

set_num_threads( 4 )
memory 2 gb

molecule MOL {
0 1

H	 3.037503	 -1.079504	 1.128671
O	 2.130519	 -1.319420	 1.185646
C	 1.342725	 -0.401333	 0.592381
C	 1.856546	 0.736244	 -0.011430
C	 -0.019227	 -0.622843	 0.598764
H	 2.917762	 0.907225	 -0.015481
C	 1.008747	 1.648375	 -0.606583
H	 -0.419145	 -1.500456	 1.064280
C	 -0.861704	 0.296439	 0.000000
H	 1.417624	 2.524880	 -1.070677
C	 -0.354905	 1.434205	 -0.604538
C	 -2.330689	 0.069587	 0.000000
H	 -1.016637	 2.141705	 -1.066536
O	 -2.848621	 -0.993976	 0.000000
H	 -2.934306	 0.982410	 0.000000

	symmetry c1
}
set optking {
	frozen_dihedral = ("
		11 9 12 14
	")
}

ee = optimize('scf')
oeprop('DIPOLE', 'QUADRUPOLE', 'MULLIKEN_CHARGES')
f=open( 'psi4out.xyz', 'w' )
f.write( "15  " )
f.write( str(ee) + "\n" )
f.write( MOL.save_string_xyz() )
f.close()
--------------------------------------------------------------------------

    Molecular point group: c1
  Charge       = 0
  Multiplicity = 1
  Basis Set: CC-PVTZ
  Basis Set:
  @DF-RHF Final Energy:  -418.43608872860784
    Total Energy =                       -418.4360887286077286
    Molecular point group: c1
  Basis Set: CC-PVTZ
  Basis Set:
  Basis Set: CC-PVTZ
  Basis Set:
  @DF-RHF Final Energy:  -418.43448635582070
    Total Energy =                       -418.4344863558206953
  Basis Set: CC-PVTZ
  Basis Set:
  Basis Set: CC-PVTZ
  Basis Set:
  @DF-RHF Final Energy:  -418.43637877973174
    Total Energy =                       -418.4363787797319674
  Basis Set: CC-PVTZ
  Basis Set:
  Basis Set: CC-PVTZ
  Basis Set:
  @DF-RHF Final Energy:  -418.43647211408950
    Total Energy =                       -418.4364721140890424
  Basis Set: CC-PVTZ
  Basis Set:
  Charge       = 0
  Multiplicity = 1
  Basis Set: CC-PVTZ
  Basis Set:

    Orbital Energies (a.u.)
    -----------------------

    Doubly Occupied:

       1A    -20.595732     2A    -20.556358     3A    -11.328551
       4A    -11.311703     5A    -11.251713     6A    -11.250712
       7A    -11.245857     8A    -11.242002     9A    -11.237297
      10A     -1.427523    11A     -1.411807    12A     -1.173843
      13A     -1.051728    14A     -1.030309    15A     -0.902478
      16A     -0.849452    17A     -0.817629    18A     -0.740630
      19A     -0.705814    20A     -0.688990    21A     -0.647117
      22A     -0.642094    23A     -0.615683    24A     -0.608078
      25A     -0.581832    26A     -0.552802    27A     -0.544174
      28A     -0.516699    29A     -0.493454    30A     -0.427162
      31A     -0.358009    32A     -0.330189

  @DF-RHF Final Energy:  -418.43647292215559

   => Energetics <=

    Nuclear Repulsion Energy =            404.0494963915355697
    One-Electron Energy =               -1370.6970968938808255
    Two-Electron Energy =                 548.2111275801896682
    DFT Exchange-Correlation Energy =       0.0000000000000000
    Empirical Dispersion Energy =           0.0000000000000000
    PCM Polarization Energy =               0.0000000000000000
    EFP Energy =                            0.0000000000000000
    Total Energy =                       -418.4364729221556445
    Molecular point group: c1
  Basis Set: CC-PVTZ
  Basis Set:

  -Total Gradient:
     Atom            X                  Y                   Z
    ------   -----------------  -----------------  -----------------
       1       -0.000003758232     0.000015973206     0.000026933281
       2        0.000003130660    -0.000014007796    -0.000027013899
       3       -0.000008856593    -0.000015800314    -0.000025448217
       4       -0.000007132909     0.000065877023     0.000106513340
       5        0.000011508732    -0.000036341459    -0.000038942489
       6       -0.000000319480    -0.000003996285    -0.000014302324
       7        0.000012587564    -0.000072100112    -0.000112880798
       8       -0.000007317834     0.000022216038     0.000020311708
       9       -0.000592478547     0.002864799257     0.002624797959
      10        0.000000062789     0.000012550657     0.000019810700
      11        0.000433870487    -0.002010286956    -0.003289122543
      12       -0.000022886842    -0.000688557622     0.005529765176
      13        0.000002043367     0.000002880784     0.000010887829
      14        0.000174900226    -0.000144876310    -0.004845742648
      15        0.000004646611     0.000001669889     0.000014432928

  **** Optimization is complete! (in 5 steps) ****
    Final optimized geometry and variables:
    Molecular point group: c1

    Geometry (in Angstrom), charge = 0, multiplicity = 1:

    H            3.042927986482    -1.132136999935     0.950420956235
    O            2.134544977473    -1.362606874758     1.024271083713
    C            1.347457320132    -0.441327608644     0.436073593607
    C            1.861815297070     0.688980971699    -0.179389777125
    C           -0.016276554449    -0.656828493981     0.453635325167
    H            2.924165653672     0.851630015970    -0.199200902093
    C            1.011829927083     1.603642039321    -0.768131600708
    H           -0.412304522334    -1.542502615429     0.907725612241
    C           -0.860437728992     0.275782745284    -0.119531524762
    H            1.420850302457     2.471176396267    -1.248821976533
    C           -0.353996035243     1.407504876806    -0.735827573424
    C           -2.327170703818     0.025520278115    -0.162085650999
    H           -1.016501441867     2.122904859651    -1.184695332889
    O           -2.821967521084    -1.048338608969    -0.152681850438
    H           -2.946108400257     0.923586982556    -0.255278616291

  Mulliken Charges: (a.u.)
   Center  Symbol    Alpha    Beta     Spin     Total
       1     H     0.38714  0.38714  0.00000  0.22572
       2     O     4.16996  4.16996  0.00000 -0.33991
       3     C     2.84051  2.84051  0.00000  0.31898
       4     C     3.12919  3.12919  0.00000 -0.25839
       5     C     3.12133  3.12133  0.00000 -0.24266
       6     H     0.43157  0.43157  0.00000  0.13685
       7     C     3.06202  3.06202  0.00000 -0.12404
       8     H     0.40769  0.40769  0.00000  0.18462
       9     C     2.95737  2.95737  0.00000  0.08526
      10     H     0.41940  0.41940  0.00000  0.16119
      11     C     3.11156  3.11156  0.00000 -0.22312
      12     C     2.91674  2.91674  0.00000  0.16653
      13     H     0.42375  0.42375  0.00000  0.15250
      14     O     4.16500  4.16500  0.00000 -0.33000
      15     H     0.45677  0.45677  0.00000  0.08647

   Total alpha = 32.00000, Total beta = 32.00000, Total charge = -0.00000
