                              Psi4 1.0.54 Driver

  ==> Input File <==

--------------------------------------------------------------------------
set {
	reference rhf
	basis cc-pvtz
}

set_num_threads( 4 )
memory 2 gb

molecule MOL {
0 1

H	 -2.467058	 -0.129991	 0.657984
N	 -1.851927	 0.161443	 -0.071573
C	 -0.561396	 -0.500007	 0.035200
H	 -1.752163	 1.152141	 0.005248
C	 0.575129	 0.507849	 -0.048832
H	 -0.478089	 -1.200753	 -0.788956
H	 -0.456191	 -1.081816	 0.952176
C	 1.951750	 -0.141983	 0.035101
H	 0.478254	 1.061643	 -0.975981
H	 0.467676	 1.231891	 0.755499
H	 2.101550	 -0.848142	 -0.774949
H	 2.738260	 0.600794	 -0.026526
H	 2.078939	 -0.679792	 0.968824

	symmetry c1
}
set optking {
	frozen_dihedral = ("
		1 2 3 6
	")
}

ee,wfn = optimize('scf', return_wfn=True)
oeprop( wfn, 'DIPOLE', 'QUADRUPOLE', 'MULLIKEN_CHARGES')
f=open( 'psi4out.xyz', 'w' )
f.write( "13  " )
f.write( str(ee) + "\n" )
f.write( MOL.save_string_xyz() )
f.close()
--------------------------------------------------------------------------

    Molecular point group: c1
  Charge       = 0
  Multiplicity = 1
  Basis Set: CC-PVTZ
  Basis Set:
  @DF-RHF Final Energy:  -173.34849664729791
    Total Energy =                       -173.3484966472976794
    Molecular point group: c1
  Basis Set: CC-PVTZ
  Basis Set:
  Basis Set: CC-PVTZ
  Basis Set:
  @DF-RHF Final Energy:  -173.34887994958308
    Total Energy =                       -173.3488799495830222
  Basis Set: CC-PVTZ
  Basis Set:
  Basis Set: CC-PVTZ
  Basis Set:
  @DF-RHF Final Energy:  -173.34895468714177
    Total Energy =                       -173.3489546871417701
  Basis Set: CC-PVTZ
  Basis Set:
  Basis Set: CC-PVTZ
  Basis Set:
  @DF-RHF Final Energy:  -173.34895703657835
    Total Energy =                       -173.3489570365783266
  Basis Set: CC-PVTZ
  Basis Set:
  Charge       = 0
  Multiplicity = 1
  Basis Set: CC-PVTZ
  Basis Set:

    Orbital Energies (a.u.)
    -----------------------

    Doubly Occupied:

       1A    -15.524046     2A    -11.238160     3A    -11.216579
       4A    -11.210159     5A     -1.175954     6A     -1.039047
       7A     -0.900618     8A     -0.807114     9A     -0.659354
      10A     -0.631518    11A     -0.605610    12A     -0.554465
      13A     -0.547188    14A     -0.498074    15A     -0.481703
      16A     -0.470797    17A     -0.380058

  @DF-RHF Final Energy:  -173.34895758932655

   => Energetics <=

    Nuclear Repulsion Energy =            131.9819577264769634
    One-Electron Energy =                -494.7809395866948989
    Two-Electron Energy =                 189.4500242708913902
    DFT Exchange-Correlation Energy =       0.0000000000000000
    Empirical Dispersion Energy =           0.0000000000000000
    PCM Polarization Energy =               0.0000000000000000
    EFP Energy =                            0.0000000000000000
    Total Energy =                       -173.3489575893265737
    Molecular point group: c1
  Basis Set: CC-PVTZ
  Basis Set:

  -Total Gradient:
     Atom            X                  Y                   Z
    ------   -----------------  -----------------  -----------------
       1        0.000435771999     0.001078262912     0.000821578815
       2       -0.000471145007    -0.001123465986    -0.001260476966
       3       -0.000494625068    -0.000890392606     0.001177150441
       4       -0.000001093429     0.000022913564     0.000005287828
       5       -0.000020216645    -0.000008252081     0.000013024430
       6        0.000504044488     0.000937017832    -0.000736675587
       7        0.000035345833    -0.000001978444    -0.000011092995
       8        0.000009524126    -0.000008556188    -0.000013245370
       9       -0.000008080168    -0.000004225127     0.000005401260
      10       -0.000009361684    -0.000000689448    -0.000005970830
      11        0.000002802673    -0.000002328241     0.000008816554
      12        0.000013675451    -0.000001276173    -0.000000956401
      13        0.000003357431     0.000002969987    -0.000002841179

  **** Optimization is complete! (in 5 steps) ****
    Final optimized geometry and variables:
    Molecular point group: c1

    Geometry (in Angstrom), charge = 0, multiplicity = 1:

    H           -2.498108606886    -0.142378181927     0.635675960553
    N           -1.873147552226     0.135196707382    -0.088615187877
    C           -0.565649049825    -0.501724681118     0.049621743188
    H           -1.797709387488     1.128371888147    -0.041939571536
    C            0.577790330620     0.501259418788    -0.027113460052
    H           -0.438864506413    -1.227333772951    -0.748288159026
    H           -0.495014493953    -1.048447678723     0.986108091554
    C            1.951370886402    -0.158157311914     0.016842764025
    H            0.478680058759     1.073310542098    -0.945774540027
    H            0.485820785370     1.209405648230     0.792437233870
    H            2.081805597708    -0.846405044111    -0.811100414850
    H            2.741454090573     0.581139337979    -0.040669473722
    H            2.088901664066    -0.717441329346     0.936255155577

  Mulliken Charges: (a.u.)
   Center  Symbol    Alpha    Beta     Spin     Total
       1     H     0.42875  0.42875  0.00000  0.14251
       2     N     3.69303  3.69303  0.00000 -0.38606
       3     C     3.01320  3.01320  0.00000 -0.02640
       4     H     0.43014  0.43014  0.00000  0.13971
       5     C     3.08609  3.08609  0.00000 -0.17218
       6     H     0.46427  0.46427  0.00000  0.07147
       7     H     0.46538  0.46538  0.00000  0.06924
       8     C     3.15219  3.15219  0.00000 -0.30437
       9     H     0.45189  0.45189  0.00000  0.09622
      10     H     0.45778  0.45778  0.00000  0.08444
      11     H     0.45367  0.45367  0.00000  0.09265
      12     H     0.44789  0.44789  0.00000  0.10422
      13     H     0.45573  0.45573  0.00000  0.08854

   Total alpha = 17.00000, Total beta = 17.00000, Total charge = -0.00000

*** Psi4 exiting successfully. Buy a developer a beer!
