  ==> Input File <==

--------------------------------------------------------------------------
set {
	reference rhf
	basis 6-31G*
}

set_num_threads( 4 )
memory 2 gb

molecule MOL {
0 1

O	 0.888184	 4.454318	 -0.126443
C	 -0.199540	 4.938481	 -0.198563
C	 -1.462455	 4.095876	 -0.197609
C	 -0.390744	 6.438144	 -0.296583
C	 -1.208222	 2.594625	 -0.098376
H	 -2.088947	 4.435507	 0.626131
H	 -2.021770	 4.332700	 -1.101757
C	 -2.502525	 1.779433	 -0.099988
H	 -0.643143	 2.388483	 0.805129
H	 -0.576091	 2.285457	 -0.924798
C	 -2.259874	 0.272531	 0.000494
H	 -3.133166	 2.096985	 0.729168
H	 -3.065034	 1.992157	 -1.007953
C	 -3.549786	 -0.549746	 -0.000374
H	 -1.698239	 0.058641	 0.908148
H	 -1.630268	 -0.046186	 -0.828368
C	 -4.809590	 0.315458	 -0.000369
H	 -3.560515	 -1.202009	 -0.871156
H	 -3.561123	 -1.202955	 0.869711
H	 -4.844746	 0.956611	 -0.876632
H	 -5.706986	 -0.295590	 -0.001609
H	 -4.845960	 0.954827	 0.877144
H	 -0.991012	 6.798749	 0.533635
H	 0.571922	 6.930085	 -0.286440
H	 -0.918706	 6.693607	 -1.210710

	symmetry c1
}
set optking {
	frozen_dihedral = ("
		15 11 14 18
	")
}

ee = optimize('scf')
oeprop('DIPOLE', 'QUADRUPOLE', 'MULLIKEN_CHARGES')
f=open( 'psi4out.xyz', 'w' )
f.write( "25  " )
f.write( str(ee) + "\n" )
f.write( MOL.save_string_xyz() )
f.close()
--------------------------------------------------------------------------

    Molecular point group: c1
  Charge       = 0
  Multiplicity = 1
  Basis Set: 6-31G*
  Basis Set:
  @DF-RHF Final Energy:  -387.12211777897767
    Total Energy =                       -387.1221177789778949
    Molecular point group: c1
  Basis Set: 6-31G*
  Basis Set:
  Basis Set: 6-31G*
  Basis Set:
  @DF-RHF Final Energy:  -387.12223037962355
    Total Energy =                       -387.1222303796225788
  Basis Set: 6-31G*
  Basis Set:
  Basis Set: 6-31G*
  Basis Set:
  @DF-RHF Final Energy:  -387.12606857951107
    Total Energy =                       -387.1260685795108429
  Basis Set: 6-31G*
  Basis Set:
  Basis Set: 6-31G*
  Basis Set:
  @DF-RHF Final Energy:  -387.12668011842550
    Total Energy =                       -387.1266801184257247
  Basis Set: 6-31G*
  Basis Set:
  @DF-RHF Final Energy:  -387.12675568631039
    Total Energy =                       -387.1267556863102755
  Basis Set: 6-31G*
  Basis Set:
  @DF-RHF Final Energy:  -387.12675711613895
    Total Energy =                       -387.1267571161391743
  Basis Set: 6-31G*
  Basis Set:
  Basis Set: 6-31G*
  Basis Set:
  @DF-RHF Final Energy:  -387.12677247175293
    Total Energy =                       -387.1267724717537249
  Basis Set: 6-31G*
  Basis Set:
  Basis Set: 6-31G*
  Basis Set:
  @DF-RHF Final Energy:  -387.12677370329573
    Total Energy =                       -387.1267737032950436
  Basis Set: 6-31G*
  Basis Set:
  Charge       = 0
  Multiplicity = 1
  Basis Set: 6-31G*
  Basis Set:

    Orbital Energies (a.u.)
    -----------------------

    Doubly Occupied:

       1A    -20.550402     2A    -11.326244     3A    -11.231781
       4A    -11.228300     5A    -11.216840     6A    -11.216245
       7A    -11.215902     8A    -11.213928     9A    -11.209327
      10A     -1.395704    11A     -1.091916    12A     -1.052783
      13A     -1.013046    14A     -0.967002    15A     -0.897347
      16A     -0.827268    17A     -0.772076    18A     -0.729080
      19A     -0.660247    20A     -0.651628    21A     -0.628679
      22A     -0.624053    23A     -0.597158    24A     -0.594316
      25A     -0.559297    26A     -0.556345    27A     -0.549545
      28A     -0.521588    29A     -0.512131    30A     -0.494300
      31A     -0.490757    32A     -0.477969    33A     -0.458896
      34A     -0.452366    35A     -0.445454    36A     -0.399498

  @DF-RHF Final Energy:  -387.12677340723639

   => Energetics <=

    Nuclear Repulsion Energy =            443.1247537956365363
    One-Electron Energy =               -1402.8442122987414677
    Two-Electron Energy =                 572.5926850958692285
    DFT Exchange-Correlation Energy =       0.0000000000000000
    Empirical Dispersion Energy =           0.0000000000000000
    PCM Polarization Energy =               0.0000000000000000
    EFP Energy =                            0.0000000000000000
    Total Energy =                       -387.1267734072357598
    Molecular point group: c1
  Basis Set: 6-31G*
  Basis Set:

  -Total Gradient:
     Atom            X                  Y                   Z
    ------   -----------------  -----------------  -----------------
       1        0.000000696422    -0.000005446958    -0.000018734362
       2       -0.000004069442     0.000010363699     0.000038561126
       3        0.000007137718     0.000015314695    -0.000021044781
       4        0.000000433898    -0.000002170608    -0.000028005821
       5        0.000004558546    -0.000011184622     0.000016136054
       6       -0.000015074965    -0.000002288187     0.000010642689
       7        0.000015064235     0.000004961305     0.000010794096
       8        0.000027341993    -0.000049650609    -0.000046946016
       9        0.000000047438    -0.000011885017    -0.000004888844
      10       -0.000013353062     0.000004791492     0.000000721165
      11       -0.001242495055     0.001719729805     0.001706161589
      12       -0.000035058472    -0.000002113906     0.000011310356
      13        0.000050494626     0.000004583219     0.000014057044
      14       -0.001213389791     0.001684791569    -0.001771921525
      15        0.001277119821    -0.001630592164    -0.001171794665
      16        0.000013031867     0.000009599377     0.000011606824
      17        0.000007962042    -0.000034522650    -0.000014151991
      18        0.001138019361    -0.001659402492     0.001251361617
      19       -0.000023654816    -0.000017320163    -0.000019846022
      20       -0.000011226031    -0.000026628296     0.000004086409
      21       -0.000004767007    -0.000008328475     0.000010622558
      22        0.000023148502     0.000006527926    -0.000007162657
      23       -0.000004848351     0.000016334619     0.000008881263
      24       -0.000000130932    -0.000001308122    -0.000000827651
      25        0.000003011453    -0.000014155436     0.000010381547

  **** Optimization is complete! (in 9 steps) ****
    Final optimized geometry and variables:
    Molecular point group: c1

    Geometry (in Angstrom), charge = 0, multiplicity = 1:

    O            2.655208944058     1.726792000320     0.021395749958
    C            1.582667173529     2.239027632333    -0.078718294789
    C            0.297945182867     1.430310981818    -0.100333662669
    C            1.433837374711     3.742404792520    -0.192287976774
    C            0.509892604725    -0.076451111573     0.014733761745
    H           -0.337364493622     1.792647288547     0.706837055511
    H           -0.234424010010     1.675456203175    -1.018381590281
    C           -0.806321174118    -0.856512654980    -0.010273699101
    H            1.049096737931    -0.290630516747     0.932095585148
    H            1.152166186711    -0.407974765904    -0.795014508953
    C           -0.578758283049    -2.366692267826     0.106588152386
    H           -1.442751498405    -0.509982932296     0.800276474195
    H           -1.336940239554    -0.633184301821    -0.933271970619
    C           -1.836529549593    -3.280082459399     0.087363187323
    H           -0.009141445910    -2.564436825016     1.010743218985
    H            0.076856775784    -2.667188666721    -0.706826112964
    C           -3.203436144230    -2.593643092484     0.147857843546
    H           -1.802305246720    -3.912412591446    -0.795049390335
    H           -1.773522350590    -3.967852190601     0.926082157879
    H           -3.369125988410    -1.934946827686    -0.698026454740
    H           -3.991765126436    -3.340197423642     0.138289709515
    H           -3.322057962657    -2.007845168296     1.053770020742
    H            0.826143689988     4.125796451508     0.622201358154
    H            2.408914431709     4.208585623445    -0.165429984441
    H            0.932250637609     4.004248503374    -1.119349255178

  Mulliken Charges: (a.u.)
   Center  Symbol    Alpha    Beta     Spin     Total
       1     O     4.26118  4.26118  0.00000 -0.52235
       2     C     2.73569  2.73569  0.00000  0.52861
       3     C     3.21064  3.21064  0.00000 -0.42127
       4     C     3.28665  3.28665  0.00000 -0.57331
       5     C     3.14812  3.14812  0.00000 -0.29623
       6     H     0.41005  0.41005  0.00000  0.17989
       7     H     0.41012  0.41012  0.00000  0.17976
       8     C     3.15579  3.15579  0.00000 -0.31157
       9     H     0.41221  0.41221  0.00000  0.17559
      10     H     0.41227  0.41227  0.00000  0.17546
      11     C     3.15697  3.15697  0.00000 -0.31395
      12     H     0.42320  0.42320  0.00000  0.15360
      13     H     0.42394  0.42394  0.00000  0.15212
      14     C     3.15564  3.15564  0.00000 -0.31128
      15     H     0.41990  0.41990  0.00000  0.16021
      16     H     0.42001  0.42001  0.00000  0.15999
      17     C     3.24167  3.24167  0.00000 -0.48333
      18     H     0.42028  0.42028  0.00000  0.15944
      19     H     0.42021  0.42021  0.00000  0.15957
      20     H     0.42112  0.42112  0.00000  0.15776
      21     H     0.41899  0.41899  0.00000  0.16203
      22     H     0.42145  0.42145  0.00000  0.15710
      23     H     0.40873  0.40873  0.00000  0.18254
      24     H     0.39647  0.39647  0.00000  0.20707
      25     H     0.40872  0.40872  0.00000  0.18256

   Total alpha = 36.00000, Total beta = 36.00000, Total charge =  0.00000
