                              Psi4 1.0.54 Driver

  ==> Input File <==

--------------------------------------------------------------------------
set {
	reference rhf
	basis cc-pvtz
}

set_num_threads( 4 )
memory 2 gb

molecule MOL {
0 1

H	 0.468784	 -2.188784	 0.842373
C	 -0.315986	 -1.457965	 1.046059
N	 -0.537714	 -0.645117	 0.000000
O	 -0.883726	 -1.422752	 2.091597
C	 -1.522613	 0.412524	 0.000000
H	 0.010742	 -0.788147	 -0.811617
H	 -2.150256	 0.356137	 -0.880771
H	 -1.005621	 1.357208	 0.000000
H	 -2.150256	 0.356137	 0.880771

	symmetry c1
}
set optking {
	frozen_dihedral = ("
		6 3 5 7
	")
}

ee,wfn = optimize('scf', return_wfn=True)
oeprop( wfn, 'DIPOLE', 'QUADRUPOLE', 'MULLIKEN_CHARGES')
f=open( 'psi4out.xyz', 'w' )
f.write( "9  " )
f.write( str(ee) + "\n" )
f.write( MOL.save_string_xyz() )
f.close()
--------------------------------------------------------------------------

    Molecular point group: c1
  Charge       = 0
  Multiplicity = 1
  Basis Set: CC-PVTZ
  Basis Set:
  @DF-RHF Final Energy:  -208.04299167822307
    Total Energy =                       -208.0429916782231032
    Molecular point group: c1
  Basis Set: CC-PVTZ
  Basis Set:
  Basis Set: CC-PVTZ
  Basis Set:
  @DF-RHF Final Energy:  -208.04348585127855
    Total Energy =                       -208.0434858512784331
  Basis Set: CC-PVTZ
  Basis Set:
  Basis Set: CC-PVTZ
  Basis Set:
  @DF-RHF Final Energy:  -208.04355281746075
    Total Energy =                       -208.0435528174606361
  Basis Set: CC-PVTZ
  Basis Set:
  Basis Set: CC-PVTZ
  Basis Set:
  @DF-RHF Final Energy:  -208.04350164720040
    Total Energy =                       -208.0435016472004008
  Basis Set: CC-PVTZ
  Basis Set:
  Basis Set: CC-PVTZ
  Basis Set:
  @DF-RHF Final Energy:  -208.04357355727080
    Total Energy =                       -208.0435735572708609
  Basis Set: CC-PVTZ
  Basis Set:
  Basis Set: CC-PVTZ
  Basis Set:
  @DF-RHF Final Energy:  -208.04357977232297
    Total Energy =                       -208.0435797723229996
  Basis Set: CC-PVTZ
  Basis Set:
  Basis Set: CC-PVTZ
  Basis Set:
  @DF-RHF Final Energy:  -208.04359251369573
    Total Energy =                       -208.0435925136957280
  Basis Set: CC-PVTZ
  Basis Set:
  Charge       = 0
  Multiplicity = 1
  Basis Set: CC-PVTZ
  Basis Set:

    Orbital Energies (a.u.)
    -----------------------

    Doubly Occupied:

       1A    -20.516195     2A    -15.585004     3A    -11.337483
       4A    -11.259259     5A     -1.393750     6A     -1.239837
       7A     -0.970347     8A     -0.808250     9A     -0.748792
      10A     -0.646383    11A     -0.629408    12A     -0.596830
      13A     -0.555354    14A     -0.542005    15A     -0.428315
      16A     -0.396020

  @DF-RHF Final Energy:  -208.04359406850250

   => Energetics <=

    Nuclear Repulsion Energy =            122.7239281929494723
    One-Electron Energy =                -526.2285792094523913
    Two-Electron Energy =                 195.4610569480003051
    DFT Exchange-Correlation Energy =       0.0000000000000000
    Empirical Dispersion Energy =           0.0000000000000000
    PCM Polarization Energy =               0.0000000000000000
    EFP Energy =                            0.0000000000000000
    Total Energy =                       -208.0435940685026139
    Molecular point group: c1
  Basis Set: CC-PVTZ
  Basis Set:

  -Total Gradient:
     Atom            X                  Y                   Z
    ------   -----------------  -----------------  -----------------
       1        0.000003518020     0.000000565520    -0.000014161630
       2        0.000049386907    -0.000076423790     0.000091222372
       3       -0.000224249431    -0.000103823374    -0.000097722715
       4       -0.000003103339     0.000053887642    -0.000125100695
       5        0.000133016173     0.000118720354    -0.000000647148
       6        0.000125346677     0.000061422727     0.000102217344
       7       -0.000073156661    -0.000070942457     0.000075748181
       8       -0.000019367240     0.000004537167    -0.000013769793
       9        0.000008608893     0.000012056209    -0.000017785916

  **** Optimization is complete! (in 8 steps) ****
    Final optimized geometry and variables:
    Molecular point group: c1

    Geometry (in Angstrom), charge = 0, multiplicity = 1:

    H            1.270556326963    -1.442930085266     0.072480922287
    C            0.501639491966    -0.693965740050     0.271563135779
    N            0.255573962779     0.081664300440    -0.797524884620
    O           -0.039565706801    -0.614301112167     1.328441116644
    C           -0.687090390920     1.177179135147    -0.787019028523
    H            0.820734922236    -0.055720529314    -1.598699472171
    H           -1.283353482157     1.163100381504    -1.689778278487
    H           -0.185615056922     2.135156288010    -0.712831512561
    H           -1.337288306296     1.061586874665     0.064038897357

  Mulliken Charges: (a.u.)
   Center  Symbol    Alpha    Beta     Spin     Total
       1     H     0.46296  0.46296  0.00000  0.07408
       2     C     2.88098  2.88098  0.00000  0.23805
       3     N     3.60780  3.60780  0.00000 -0.21561
       4     O     4.21479  4.21479  0.00000 -0.42957
       5     C     3.08061  3.08061  0.00000 -0.16121
       6     H     0.40980  0.40980  0.00000  0.18041
       7     H     0.45399  0.45399  0.00000  0.09201
       8     H     0.45536  0.45536  0.00000  0.08929
       9     H     0.43372  0.43372  0.00000  0.13256

   Total alpha = 16.00000, Total beta = 16.00000, Total charge =  0.00000

*** Psi4 exiting successfully. Buy a developer a beer!
