  ==> Input File <==

--------------------------------------------------------------------------
set {
	reference rhf
	basis 6-31G*
}

set_num_threads( 4 )
memory 2 gb

molecule MOL {
0 1

H	 -2.273092	 1.173159	 0.000295
O	 -1.438904	 1.618192	 0.000114
C	 -0.409536	 0.736003	 0.000030
C	 0.760776	 1.146111	 0.619207
C	 -0.506831	 -0.523115	 -0.588271
H	 0.793031	 2.125078	 1.060314
C	 1.852745	 0.300202	 0.658597
C	 0.606586	 -1.352761	 -0.533686
C	 -1.784563	 -0.968650	 -1.263480
H	 2.757816	 0.624371	 1.140525
C	 1.781404	 -0.957202	 0.080824
H	 0.547519	 -2.328706	 -0.983560
H	 -2.052808	 -0.319992	 -2.094882
H	 -1.677744	 -1.969582	 -1.661851
H	 -2.624822	 -0.986923	 -0.572374
H	 2.626802	 -1.620360	 0.107694

	symmetry c1
}
set optking {
	frozen_dihedral = ("
		4 3 2 1
	")
}

ee = optimize('scf')
oeprop('DIPOLE', 'QUADRUPOLE', 'MULLIKEN_CHARGES')
f=open( 'psi4out.xyz', 'w' )
f.write( "16  " )
f.write( str(ee) + "\n" )
f.write( MOL.save_string_xyz() )
f.close()
--------------------------------------------------------------------------

    Molecular point group: c1
  Charge       = 0
  Multiplicity = 1
  Basis Set: 6-31G*
  Basis Set:
  @DF-RHF Final Energy:  -344.59290401369628
    Total Energy =                       -344.5929040136961703
    Molecular point group: c1
  Basis Set: 6-31G*
  Basis Set:
  Basis Set: 6-31G*
  Basis Set:
  @DF-RHF Final Energy:  -344.59304871651091
    Total Energy =                       -344.5930487165110776
  Basis Set: 6-31G*
  Basis Set:
  Basis Set: 6-31G*
  Basis Set:
  @DF-RHF Final Energy:  -344.59307581792564
    Total Energy =                       -344.5930758179255804
  Basis Set: 6-31G*
  Basis Set:
  Basis Set: 6-31G*
  Basis Set:
  @DF-RHF Final Energy:  -344.59307935002795
    Total Energy =                       -344.5930793500280060
  Basis Set: 6-31G*
  Basis Set:
  Charge       = 0
  Multiplicity = 1
  Basis Set: 6-31G*
  Basis Set:

    Orbital Energies (a.u.)
    -----------------------

    Doubly Occupied:

       1A    -20.584631     2A    -11.290002     3A    -11.235145
       4A    -11.231524     5A    -11.230705     6A    -11.229555
       7A    -11.220964     8A    -11.220321     9A     -1.402032
      10A     -1.148765    11A     -1.047868    12A     -1.003923
      13A     -0.939925    14A     -0.824568    15A     -0.817181
      16A     -0.728671    17A     -0.674817    18A     -0.644471
      19A     -0.614299    20A     -0.596571    21A     -0.574020
      22A     -0.569631    23A     -0.552822    24A     -0.541193
      25A     -0.502154    26A     -0.483059    27A     -0.470742
      28A     -0.329032    29A     -0.307770

  @DF-RHF Final Energy:  -344.59307968545210

   => Energetics <=

    Nuclear Repulsion Energy =            350.0748930632615270
    One-Electron Energy =               -1161.3032270444446112
    Two-Electron Energy =                 466.6352542957309879
    DFT Exchange-Correlation Energy =       0.0000000000000000
    Empirical Dispersion Energy =           0.0000000000000000
    PCM Polarization Energy =               0.0000000000000000
    EFP Energy =                            0.0000000000000000
    Total Energy =                       -344.5930796854521532
    Molecular point group: c1
  Basis Set: 6-31G*
  Basis Set:

  -Total Gradient:
     Atom            X                  Y                   Z
    ------   -----------------  -----------------  -----------------
       1       -0.000013975982     0.000041159666     0.001415548715
       2       -0.000192687232    -0.000180430584    -0.001348238396
       3        0.000550142074     0.000458782308    -0.000983642186
       4       -0.000336071075    -0.000365659451     0.000919514687
       5       -0.000028243848     0.000033718894     0.000008398678
       6        0.000003033910    -0.000000494608    -0.000012688248
       7       -0.000003788793     0.000019282504     0.000004941703
       8        0.000030405994    -0.000013648343     0.000046676817
       9        0.000010201130     0.000011423659    -0.000025478202
      10        0.000005110681    -0.000010726484    -0.000002380097
      11       -0.000012605195    -0.000003709150    -0.000042914681
      12       -0.000001500421     0.000009214216    -0.000003275164
      13       -0.000005464081    -0.000004076948    -0.000007615059
      14       -0.000000882637     0.000009147738     0.000005629061
      15       -0.000011655207    -0.000007337807     0.000013221977
      16        0.000007980680     0.000003354384     0.000012300392

  **** Optimization is complete! (in 5 steps) ****
    Final optimized geometry and variables:
    Molecular point group: c1

    Geometry (in Angstrom), charge = 0, multiplicity = 1:

    H           -2.296843372942     1.141354324220     0.116293533688
    O           -1.464397095797     1.591411929718     0.112264786738
    C           -0.431697634708     0.706335153892     0.143110098932
    C            0.737566668362     1.119310158611     0.758790756185
    C           -0.532184105752    -0.556459976729    -0.436875471387
    H            0.770435691387     2.100067161348     1.195838765985
    C            1.832333433801     0.274415514991     0.797445435201
    C            0.577081187538    -1.389678916390    -0.373862999757
    C           -1.809702350680    -0.992480955743    -1.116214752366
    H            2.739555505985     0.600851030265     1.273679171941
    C            1.755007213188    -0.987753986119     0.233384108616
    H            0.516734510033    -2.368946381937    -0.816197234286
    H           -2.112899249125    -0.285835188886    -1.883221269706
    H           -1.683297551130    -1.958692623159    -1.588280007465
    H           -2.635135432947    -1.088478253834    -0.412136383512
    H            2.599947795511    -1.651586148878     0.263511951224

  Mulliken Charges: (a.u.)
   Center  Symbol    Alpha    Beta     Spin     Total
       1     H     0.26889  0.26889  0.00000  0.46223
       2     O     4.38316  4.38316  0.00000 -0.76632
       3     C     2.82180  2.82180  0.00000  0.35639
       4     C     3.11733  3.11733  0.00000 -0.23466
       5     C     3.00472  3.00472  0.00000 -0.00943
       6     H     0.39222  0.39222  0.00000  0.21556
       7     C     3.09707  3.09707  0.00000 -0.19414
       8     C     3.10823  3.10823  0.00000 -0.21647
       9     C     3.26840  3.26840  0.00000 -0.53680
      10     H     0.39893  0.39893  0.00000  0.20213
      11     C     3.10665  3.10665  0.00000 -0.21331
      12     H     0.40151  0.40151  0.00000  0.19698
      13     H     0.40579  0.40579  0.00000  0.18841
      14     H     0.40642  0.40642  0.00000  0.18716
      15     H     0.41802  0.41802  0.00000  0.16396
      16     H     0.40085  0.40085  0.00000  0.19830

   Total alpha = 29.00000, Total beta = 29.00000, Total charge = -0.00000
