  ==> Input File <==

--------------------------------------------------------------------------
set {
	reference rhf
	basis cc-pvtz
}

set_num_threads( 4 )
memory 2 gb

molecule MOL {
0 1

H	 3.459101	 0.139266	 -0.762951
C	 2.749156	 -0.051729	 0.031265
C	 1.322304	 0.099773	 -0.484271
H	 2.929445	 -1.053887	 0.403481
H	 2.954281	 0.646699	 0.834672
C	 0.308557	 -0.162619	 0.622645
H	 1.143368	 -0.594400	 -1.295960
H	 1.169532	 1.100095	 -0.870217
N	 -1.069352	 -0.004081	 0.085342
H	 0.371632	 -1.172932	 0.991288
H	 0.400391	 0.548875	 1.426218
O	 -1.968331	 -0.178895	 0.837574
O	 -1.176277	 0.257843	 -1.065703

	symmetry c1
}
set optking {
	frozen_dihedral = ("
		12 9 6 3
	")
}

ee = optimize('scf')
oeprop('DIPOLE', 'QUADRUPOLE', 'MULLIKEN_CHARGES')
f=open( 'psi4out.xyz', 'w' )
f.write( "13  " )
f.write( str(ee) + "\n" )
f.write( MOL.save_string_xyz() )
f.close()
--------------------------------------------------------------------------

    Molecular point group: c1
  Charge       = 0
  Multiplicity = 1
  Basis Set: CC-PVTZ
  Basis Set:
  @DF-RHF Final Energy:  -321.85840448570849
    Total Energy =                       -321.8584044857086042
    Molecular point group: c1
  Basis Set: CC-PVTZ
  Basis Set:
  Basis Set: CC-PVTZ
  Basis Set:
  @DF-RHF Final Energy:  -321.85895620337692
    Total Energy =                       -321.8589562033767493
  Basis Set: CC-PVTZ
  Basis Set:
  Basis Set: CC-PVTZ
  Basis Set:
  @DF-RHF Final Energy:  -321.86029156156599
    Total Energy =                       -321.8602915615660436
  Basis Set: CC-PVTZ
  Basis Set:
  Basis Set: CC-PVTZ
  Basis Set:
  @DF-RHF Final Energy:  -321.86036636593798
    Total Energy =                       -321.8603663659383756
  Basis Set: CC-PVTZ
  Basis Set:
  Basis Set: CC-PVTZ
  Basis Set:
  @DF-RHF Final Energy:  -321.86005133717191
    Total Energy =                       -321.8600513371719103
  Basis Set: CC-PVTZ
  Basis Set:
  Basis Set: CC-PVTZ
  Basis Set:
  @DF-RHF Final Energy:  -321.86050387494015
    Total Energy =                       -321.8605038749398659
  Basis Set: CC-PVTZ
  Basis Set:
  Basis Set: CC-PVTZ
  Basis Set:
  @DF-RHF Final Energy:  -321.86050542870760
    Total Energy =                       -321.8605054287075973
  Basis Set: CC-PVTZ
  Basis Set:
  Charge       = 0
  Multiplicity = 1
  Basis Set: CC-PVTZ
  Basis Set:

    Orbital Energies (a.u.)
    -----------------------

    Doubly Occupied:

       1A    -20.593951     2A    -20.587222     3A    -15.838575
       4A    -11.299167     5A    -11.246811     6A    -11.234872
       7A     -1.637275     8A     -1.421416     9A     -1.131539
      10A     -1.026585    11A     -0.884931    12A     -0.826234
      13A     -0.762610    14A     -0.754012    15A     -0.730965
      16A     -0.656573    17A     -0.607687    18A     -0.574926
      19A     -0.554931    20A     -0.522224    21A     -0.509569
      22A     -0.488793    23A     -0.474486    24A     -0.453328

  @DF-RHF Final Energy:  -321.86050552536472

   => Energetics <=

    Nuclear Repulsion Energy =            247.6281904670038614
    One-Electron Energy =                -929.3400277976069219
    Two-Electron Energy =                 359.8513318052384875
    DFT Exchange-Correlation Energy =       0.0000000000000000
    Empirical Dispersion Energy =           0.0000000000000000
    PCM Polarization Energy =               0.0000000000000000
    EFP Energy =                            0.0000000000000000
    Total Energy =                       -321.8605055253646015
    Molecular point group: c1
  Basis Set: CC-PVTZ
  Basis Set:

  -Total Gradient:
     Atom            X                  Y                   Z
    ------   -----------------  -----------------  -----------------
       1       -0.000005739824    -0.000003805160    -0.000001550741
       2       -0.000001173412    -0.000022049516    -0.000001879621
       3        0.000004341248     0.000035549191    -0.000001128980
       4        0.000004445514    -0.000002683180     0.000006461284
       5       -0.000002949174     0.000003201963    -0.000004867231
       6       -0.000005931083     0.000014274983     0.000011996790
       7       -0.000000223267     0.000001081682     0.000002704623
       8       -0.000002615497     0.000000012021    -0.000000541664
       9       -0.000014085316    -0.000009203922     0.000001749506
      10       -0.000004145064    -0.000007506005     0.000002192554
      11       -0.000000844608    -0.000004514071    -0.000008075453
      12        0.000015770617    -0.000005762151     0.000013868875
      13        0.000013149865     0.000001404164    -0.000020929943

  **** Optimization is complete! (in 8 steps) ****
    Final optimized geometry and variables:
    Molecular point group: c1

    Geometry (in Angstrom), charge = 0, multiplicity = 1:

    H            3.511874532551     0.131587823095    -0.734271480797
    C            2.774271653311    -0.049200413433     0.036646089425
    C            1.365521735190     0.113022866024    -0.528487122893
    H            2.935695538437    -1.050718607929     0.420090079838
    H            2.961572136290     0.650474231267     0.843791984492
    C            0.330765166096    -0.140519178193     0.547611285786
    H            1.211069704793    -0.574963570576    -1.348679817165
    H            1.236099449665     1.109841777086    -0.927891407063
    N           -1.082655603312    -0.004786596485     0.080852088736
    H            0.386056150024    -1.140826511066     0.950615818284
    H            0.409533733731     0.552171245312     1.372234258512
    O           -1.917522145468    -0.197254853473     0.900528631590
    O           -1.285814672356     0.279302458567    -1.049439498318

  Mulliken Charges: (a.u.)
   Center  Symbol    Alpha    Beta     Spin     Total
       1     H     0.44124  0.44124  0.00000  0.11752
       2     C     3.15275  3.15275  0.00000 -0.30550
       3     C     3.09045  3.09045  0.00000 -0.18090
       4     H     0.45316  0.45316  0.00000  0.09368
       5     H     0.45315  0.45315  0.00000  0.09370
       6     C     3.04727  3.04727  0.00000 -0.09453
       7     H     0.43951  0.43951  0.00000  0.12098
       8     H     0.43953  0.43953  0.00000  0.12093
       9     N     3.27280  3.27280  0.00000  0.45439
      10     H     0.43330  0.43330  0.00000  0.13340
      11     H     0.43328  0.43328  0.00000  0.13345
      12     O     4.17467  4.17467  0.00000 -0.34933
      13     O     4.16890  4.16890  0.00000 -0.33779

   Total alpha = 24.00000, Total beta = 24.00000, Total charge =  0.00000
