  ==> Input File <==

--------------------------------------------------------------------------
set {
	reference rhf
	basis 6-31G*
}

set_num_threads( 1 )
memory 2 gb

molecule MOL {
0 1

H	 -0.423113	 2.984858	 -2.595632
O	 -0.905169	 2.184904	 -2.440441
C	 -0.516328	 1.630245	 -1.212376
C	 0.854888	 0.985108	 -1.308460
H	 -0.516319	 2.372455	 -0.418977
H	 -1.251615	 0.879123	 -0.960149
O	 1.171513	 0.459272	 -0.058250
H	 1.597055	 1.726077	 -1.611995
H	 0.840295	 0.207678	 -2.070021
C	 2.397842	 -0.198080	 -0.002151
H	 2.508049	 -0.905315	 -0.822092
H	 3.173794	 0.550865	 -0.078850
H	 2.517602	 -0.735921	 0.936026

	symmetry c1
}
set optking {
	frozen_dihedral = ("
		8 4 3 5,
		1 2 3 5,
		10 7 4 8
	")
}

ee = energy('scf')
oeprop('DIPOLE', 'QUADRUPOLE', 'MULLIKEN_CHARGES')
f=open( 'psi4out.xyz', 'w' )
f.write( "13  " )
f.write( str(ee) + "\n" )
f.write( MOL.save_string_xyz() )
f.close()
--------------------------------------------------------------------------

    Molecular point group: c1

    Geometry (in Angstrom), charge = 0, multiplicity = 1:

       Center              X                  Y                   Z               Mass
    ------------   -----------------  -----------------  -----------------  -----------------
           H         -1.022815206633     1.953518624023    -1.571029318783     1.007825032070
           O         -1.504871206633     1.153564624023    -1.415838318783    15.994914619560
           C         -1.116030206633     0.598905624023    -0.187773318783    12.000000000000
           C          0.255185793367    -0.046231375977    -0.283857318783    12.000000000000
           H         -1.116021206633     1.341115624023     0.605625681217     1.007825032070
           H         -1.851317206633    -0.152216375977     0.064453681217     1.007825032070
           O          0.571810793367    -0.572067375977     0.966352681217    15.994914619560
           H          0.997352793367     0.694737624023    -0.587392318783     1.007825032070
           H          0.240592793367    -0.823661375977    -1.045418318783     1.007825032070
           C          1.798139793367    -1.229419375977     1.022451681217    12.000000000000
           H          1.908346793367    -1.936654375977     0.202510681217     1.007825032070
           H          2.574091793367    -0.480474375977     0.945752681217     1.007825032070
           H          1.917899793367    -1.767260375977     1.960628681217     1.007825032070

  Charge       = 0
  Multiplicity = 1
  Basis Set: 6-31G*
  Basis Set:

    Orbital Energies (a.u.)
    -----------------------

    Doubly Occupied:

       1A    -20.561188     2A    -20.560300     3A    -11.271444
       4A    -11.270526     5A    -11.269135     6A     -1.388550
       7A     -1.365306     8A     -1.018268     9A     -0.913312
      10A     -0.842259    11A     -0.709777    12A     -0.675473
      13A     -0.658311    14A     -0.637777    15A     -0.597113
      16A     -0.570922    17A     -0.544736    18A     -0.489292
      19A     -0.481254    20A     -0.438636    21A     -0.420922

  @DF-RHF Final Energy:  -267.94925149498158

   => Energetics <=

    Nuclear Repulsion Energy =            190.2892842032981378
    One-Electron Energy =                -743.1080896424425646
    Two-Electron Energy =                 284.8695539441637834
    DFT Exchange-Correlation Energy =       0.0000000000000000
    Empirical Dispersion Energy =           0.0000000000000000
    PCM Polarization Energy =               0.0000000000000000
    EFP Energy =                            0.0000000000000000
    Total Energy =                       -267.9492514949806150

  Mulliken Charges: (a.u.)
   Center  Symbol    Alpha    Beta     Spin     Total
       1     H     0.28123  0.28123  0.00000  0.43753
       2     O     4.37085  4.37085  0.00000 -0.74170
       3     C     3.00463  3.00463  0.00000 -0.00927
       4     C     2.99646  2.99646  0.00000  0.00708
       5     H     0.42220  0.42220  0.00000  0.15559
       6     H     0.40830  0.40830  0.00000  0.18340
       7     O     4.30844  4.30844  0.00000 -0.61689
       8     H     0.43802  0.43802  0.00000  0.12396
       9     H     0.42279  0.42279  0.00000  0.15443
      10     C     3.07975  3.07975  0.00000 -0.15951
      11     H     0.42867  0.42867  0.00000  0.14267
      12     H     0.42768  0.42768  0.00000  0.14464
      13     H     0.41097  0.41097  0.00000  0.17805

   Total alpha = 21.00000, Total beta = 21.00000, Total charge =  0.00000
