  ==> Input File <==

--------------------------------------------------------------------------
set {
	reference rhf
	basis 6-31G*
}

set_num_threads( 4 )
memory 2 gb

molecule MOL {
0 1

O	 3.225979	 0.970355	 -0.599647
C	 2.701189	 0.057885	 -0.047330
C	 1.245376	 -0.013843	 0.345420
O	 3.347903	 -1.046386	 0.304773
C	 0.455112	 1.231400	 -0.050772
H	 0.838542	 -0.913825	 -0.103701
H	 1.208210	 -0.175333	 1.419774
C	 -0.998893	 1.219485	 0.433193
H	 0.482531	 1.345121	 -1.130325
H	 0.957290	 2.103070	 0.354729
C	 -1.883438	 0.145884	 -0.207175
H	 -1.431207	 2.195402	 0.224832
H	 -1.019646	 1.105716	 1.516076
C	 -3.347647	 0.245583	 0.225435
H	 -1.822183	 0.231698	 -1.291012
H	 -1.510341	 -0.844814	 0.042401
C	 -4.239992	 -0.825570	 -0.404234
H	 -3.732888	 1.230466	 -0.033079
H	 -3.408585	 0.170602	 1.310038
C	 -4.889944	 -0.369667	 -1.710150
H	 -3.651241	 -1.721771	 -0.588187
H	 -5.015339	 -1.110409	 0.303921
H	 -5.515890	 -1.150020	 -2.131870
H	 -4.139669	 -0.110642	 -2.451898
H	 -5.513753	 0.505784	 -1.552924
C	 4.728119	 -1.109107	 -0.004993
H	 4.882018	 -1.033965	 -1.071845
H	 5.068212	 -2.067527	 0.355250
H	 5.265056	 -0.311663	 0.488280

	symmetry c1
}
set optking {
	frozen_dihedral = ("
		21 17 14 11
	")
}

ee = optimize('scf')
oeprop('DIPOLE', 'QUADRUPOLE', 'MULLIKEN_CHARGES')
f=open( 'psi4out.xyz', 'w' )
f.write( "29  " )
f.write( str(ee) + "\n" )
f.write( MOL.save_string_xyz() )
f.close()
--------------------------------------------------------------------------

    Molecular point group: c1
  Charge       = 0
  Multiplicity = 1
  Basis Set: 6-31G*
  Basis Set:
  @DF-RHF Final Energy:  -501.04042027653713
    Total Energy =                       -501.0404202765364516
    Molecular point group: c1
  Basis Set: 6-31G*
  Basis Set:
  Basis Set: 6-31G*
  Basis Set:
  @DF-RHF Final Energy:  -501.04063351780349
    Total Energy =                       -501.0406335178022346
  Basis Set: 6-31G*
  Basis Set:
  Basis Set: 6-31G*
  Basis Set:
  @DF-RHF Final Energy:  -501.04071020200797
    Total Energy =                       -501.0407102020084267
  Basis Set: 6-31G*
  Basis Set:
  Basis Set: 6-31G*
  Basis Set:
  @DF-RHF Final Energy:  -501.04070537121004
    Total Energy =                       -501.0407053712094694
  Basis Set: 6-31G*
  Basis Set:
  @DF-RHF Final Energy:  -501.04071025159385
    Total Energy =                       -501.0407102515939641
  Basis Set: 6-31G*
  Basis Set:
  @DF-RHF Final Energy:  -501.04071206767219
    Total Energy =                       -501.0407120676718478
  Basis Set: 6-31G*
  Basis Set:
  Basis Set: 6-31G*
  Basis Set:
  @DF-RHF Final Energy:  -501.04070225516853
    Total Energy =                       -501.0407022551684122
  Basis Set: 6-31G*
  Basis Set:
  Basis Set: 6-31G*
  Basis Set:
  @DF-RHF Final Energy:  -501.04071253876896
    Total Energy =                       -501.0407125387691849
  Basis Set: 6-31G*
  Basis Set:
  Charge       = 0
  Multiplicity = 1
  Basis Set: 6-31G*
  Basis Set:

    Orbital Energies (a.u.)
    -----------------------

    Doubly Occupied:

       1A    -20.603425     2A    -20.545252     3A    -11.372067
       4A    -11.280705     5A    -11.234828     6A    -11.219181
       7A    -11.217624     8A    -11.216227     9A    -11.215825
      10A    -11.214381    11A    -11.208759    12A     -1.469124
      13A     -1.362568    14A     -1.097873    15A     -1.065866
      16A     -1.018396    17A     -0.976296    18A     -0.928062
      19A     -0.865462    20A     -0.801393    21A     -0.785878
      22A     -0.764092    23A     -0.700636    24A     -0.682412
      25A     -0.672155    26A     -0.642245    27A     -0.629598
      28A     -0.607993    29A     -0.600892    30A     -0.581977
      31A     -0.562204    32A     -0.554268    33A     -0.534092
      34A     -0.524232    35A     -0.515247    36A     -0.511255
      37A     -0.500254    38A     -0.475768    39A     -0.473844
      40A     -0.459948    41A     -0.456481    42A     -0.453521
      43A     -0.441237    44A     -0.435493

  @DF-RHF Final Energy:  -501.04071252714027

   => Energetics <=

    Nuclear Repulsion Energy =            613.8063932116598380
    One-Electron Energy =               -1898.7361403647530551
    Two-Electron Energy =                 783.8890346259530588
    DFT Exchange-Correlation Energy =       0.0000000000000000
    Empirical Dispersion Energy =           0.0000000000000000
    PCM Polarization Energy =               0.0000000000000000
    EFP Energy =                            0.0000000000000000
    Total Energy =                       -501.0407125271400446
    Molecular point group: c1
  Basis Set: 6-31G*
  Basis Set:

  -Total Gradient:
     Atom            X                  Y                   Z
    ------   -----------------  -----------------  -----------------
       1       -0.000002166996    -0.000005466173    -0.000009991263
       2        0.000006597880     0.000013899764     0.000026967962
       3       -0.000001028687    -0.000002758109    -0.000007870143
       4       -0.000001575307    -0.000003856136    -0.000007481465
       5        0.000001962180     0.000001449386     0.000001091279
       6       -0.000000165178     0.000000203134     0.000000465118
       7        0.000001776275     0.000000029589    -0.000001120365
       8        0.000004790569    -0.000002087739    -0.000001849461
       9        0.000000225359    -0.000000733795    -0.000000075000
      10        0.000002274991     0.000000166019    -0.000001117395
      11        0.000477115408    -0.001553446024     0.001851758193
      12       -0.000000315760    -0.000000129524     0.000001100944
      13       -0.000000107617    -0.000001529308    -0.000001091793
      14       -0.000487157717     0.002470416944    -0.003282423175
      15       -0.000002469405     0.000005583215     0.000004330906
      16       -0.000006129109    -0.000003990247    -0.000005497574
      17       -0.000740578715    -0.002142499032     0.004480191756
      18       -0.000000387562    -0.000003329976    -0.000001781182
      19        0.000009370279     0.000009488402    -0.000000550503
      20        0.000002034514    -0.000013444782    -0.000002652790
      21        0.000740242870     0.001241094576    -0.003039901148
      22       -0.000005656775    -0.000005833929    -0.000003415342
      23       -0.000002547941     0.000000168719    -0.000004702416
      24        0.000000903977     0.000000806607     0.000000353596
      25        0.000003267641    -0.000004113753     0.000005670115
      26       -0.000000231188     0.000000017000    -0.000000103395
      27        0.000000290901    -0.000000065021    -0.000000125293
      28       -0.000000019845    -0.000000073487    -0.000000172266
      29       -0.000000315049     0.000000033679    -0.000000007903

  **** Optimization is complete! (in 9 steps) ****
    Final optimized geometry and variables:
    Molecular point group: c1

    Geometry (in Angstrom), charge = 0, multiplicity = 1:

    O            3.148547841507     0.927905088409    -0.455483331167
    C            2.627128830182     0.025531948187     0.116270327430
    C            1.172045291668    -0.042190140967     0.512435491653
    O            3.277412801883    -1.069468350067     0.490046663256
    C            0.377621743876     1.192189240195     0.091276017968
    H            0.767371059978    -0.952682612787     0.083004500514
    H            1.136807051715    -0.181080818787     1.590005235855
    C           -1.075846161902     1.186322519078     0.577181193483
    H            0.403585662198     1.283605792726    -0.990429393521
    H            0.877790472422     2.073482271707     0.477988892479
    C           -1.959392431650     0.100124368517    -0.042399353103
    H           -1.510195070303     2.157546859685     0.352032404806
    H           -1.095098915484     1.091967024052     1.662071664766
    C           -3.418940812415     0.189878532620     0.412939246832
    H           -1.906132187436     0.174788600315    -1.127580951164
    H           -1.579359121098    -0.885487364576     0.214867817390
    C           -4.334050205709    -0.860995720833    -0.240183151706
    H           -3.806734905147     1.186595745827     0.213672162200
    H           -3.443477388621     0.069190033624     1.493827297861
    C           -4.977327102077    -0.373022766280    -1.540950014978
    H           -3.755259832253    -1.754463905059    -0.462343868425
    H           -5.116979666951    -1.155090643353     0.452394747143
    H           -5.579611100124    -1.152401146263    -1.997964393140
    H           -4.226727456779    -0.070801498505    -2.265762045354
    H           -5.623211398279     0.481444428729    -1.360249302343
    C            4.657403734405    -1.134683846635     0.179745299171
    H            4.809690509349    -1.081063481558    -0.888639734012
    H            5.000648386752    -2.084537024910     0.559156769667
    H            5.192716982123    -0.325768331636     0.655801013138

  Mulliken Charges: (a.u.)
   Center  Symbol    Alpha    Beta     Spin     Total
       1     O     4.28595  4.28595  0.00000 -0.57189
       2     C     2.60484  2.60484  0.00000  0.79032
       3     C     3.20967  3.20967  0.00000 -0.41935
       4     O     4.30746  4.30746  0.00000 -0.61493
       5     C     3.15371  3.15371  0.00000 -0.30743
       6     H     0.39893  0.39893  0.00000  0.20215
       7     H     0.40121  0.40121  0.00000  0.19759
       8     C     3.15679  3.15679  0.00000 -0.31358
       9     H     0.41312  0.41312  0.00000  0.17376
      10     H     0.40874  0.40874  0.00000  0.18252
      11     C     3.15640  3.15640  0.00000 -0.31280
      12     H     0.41806  0.41806  0.00000  0.16388
      13     H     0.42394  0.42394  0.00000  0.15212
      14     C     3.15364  3.15364  0.00000 -0.30729
      15     H     0.42236  0.42236  0.00000  0.15529
      16     H     0.42296  0.42296  0.00000  0.15408
      17     C     3.15432  3.15432  0.00000 -0.30864
      18     H     0.42184  0.42184  0.00000  0.15631
      19     H     0.42185  0.42185  0.00000  0.15631
      20     C     3.24004  3.24004  0.00000 -0.48008
      21     H     0.42236  0.42236  0.00000  0.15527
      22     H     0.41972  0.41972  0.00000  0.16056
      23     H     0.41989  0.41989  0.00000  0.16022
      24     H     0.42157  0.42157  0.00000  0.15687
      25     H     0.42152  0.42152  0.00000  0.15696
      26     C     3.09241  3.09241  0.00000 -0.18482
      27     H     0.40908  0.40908  0.00000  0.18184
      28     H     0.40851  0.40851  0.00000  0.18299
      29     H     0.40912  0.40912  0.00000  0.18177

   Total alpha = 44.00000, Total beta = 44.00000, Total charge = -0.00000
