  ==> Input File <==

--------------------------------------------------------------------------
set {
	reference rhf
	basis 6-31G*
}

set_num_threads( 4 )
memory 2 gb

molecule MOL {
0 1

H	 3.296126	 -0.451502	 -0.007183
C	 2.237029	 -0.265136	 -0.005639
C	 1.754431	 0.970573	 0.407863
C	 1.362785	 -1.257891	 -0.415657
H	 2.439377	 1.736076	 0.724691
C	 0.394887	 1.213253	 0.411081
H	 1.739781	 -2.212483	 -0.734831
C	 -0.000913	 -1.013186	 -0.411968
H	 0.001734	 2.161319	 0.726918
C	 -0.488460	 0.219100	 0.000000
H	 -0.685521	 -1.780903	 -0.729570
C	 -1.949954	 0.470334	 0.000000
O	 -2.781584	 -0.381627	 0.000000
H	 -2.238022	 1.526388	 0.000000

	symmetry c1
}
set optking {
	frozen_dihedral = ("
		8 10 12 14
	")
}

ee = optimize('scf')
oeprop('DIPOLE', 'QUADRUPOLE', 'MULLIKEN_CHARGES')
f=open( 'psi4out.xyz', 'w' )
f.write( "14  " )
f.write( str(ee) + "\n" )
f.write( MOL.save_string_xyz() )
f.close()
--------------------------------------------------------------------------

    Molecular point group: c1
  Charge       = 0
  Multiplicity = 1
  Basis Set: 6-31G*
  Basis Set:
  @DF-RHF Final Energy:  -343.43126650854759
    Total Energy =                       -343.4312665085473668
    Molecular point group: c1
  Basis Set: 6-31G*
  Basis Set:
  Basis Set: 6-31G*
  Basis Set:
  @DF-RHF Final Energy:  -343.42939986387842
    Total Energy =                       -343.4293998638784160
  Basis Set: 6-31G*
  Basis Set:
  Basis Set: 6-31G*
  Basis Set:
  @DF-RHF Final Energy:  -343.43158503996312
    Total Energy =                       -343.4315850399632382
  Basis Set: 6-31G*
  Basis Set:
  Basis Set: 6-31G*
  Basis Set:
  @DF-RHF Final Energy:  -343.43166294366631
    Total Energy =                       -343.4316629436666517
  Basis Set: 6-31G*
  Basis Set:
  Basis Set: 6-31G*
  Basis Set:
  @DF-RHF Final Energy:  -343.43166601904773
    Total Energy =                       -343.4316660190477251
  Basis Set: 6-31G*
  Basis Set:
  Charge       = 0
  Multiplicity = 1
  Basis Set: 6-31G*
  Basis Set:

    Orbital Energies (a.u.)
    -----------------------

    Doubly Occupied:

       1A    -20.562672     2A    -11.331476     3A    -11.253781
       4A    -11.250856     5A    -11.247703     6A    -11.246123
       7A    -11.245084     8A    -11.243219     9A     -1.403233
      10A     -1.171061    11A     -1.047103    12A     -1.031407
      13A     -0.889147    14A     -0.843745    15A     -0.790969
      16A     -0.720836    17A     -0.677663    18A     -0.651605
      19A     -0.619390    20A     -0.616649    21A     -0.602443
      22A     -0.552705    23A     -0.526302    24A     -0.506447
      25A     -0.501595    26A     -0.421720    27A     -0.349718
      28A     -0.346767

  @DF-RHF Final Energy:  -343.43166683485310

   => Energetics <=

    Nuclear Repulsion Energy =            323.1581104091624184
    One-Electron Energy =               -1105.8767147718672277
    Two-Electron Energy =                 439.2869375278517055
    DFT Exchange-Correlation Energy =       0.0000000000000000
    Empirical Dispersion Energy =           0.0000000000000000
    PCM Polarization Energy =               0.0000000000000000
    EFP Energy =                            0.0000000000000000
    Total Energy =                       -343.4316668348531039
    Molecular point group: c1
  Basis Set: 6-31G*
  Basis Set:

  -Total Gradient:
     Atom            X                  Y                   Z
    ------   -----------------  -----------------  -----------------
       1        0.000002067809     0.000012037021    -0.000005890589
       2       -0.000025417454    -0.000084425218    -0.000017218842
       3       -0.000076113763     0.000050338977     0.000039871927
       4        0.000096608982     0.000045809574     0.000009271705
       5        0.000009266527    -0.000005311637    -0.000007608974
       6        0.000108258680     0.000029456707     0.000014716739
       7       -0.000008676469    -0.000003755066     0.000004562652
       8        0.000181533403     0.001189847092    -0.002932754699
       9        0.000004227187    -0.000007200771    -0.000012710134
      10       -0.000365093149    -0.001714057171     0.003094634359
      11       -0.000006455228     0.000000226611    -0.000012047356
      12        0.000012829864     0.000405673088     0.003670423939
      13       -0.000002383611     0.000022368037     0.000011926495
      14        0.000069347230     0.000058992757    -0.003857177220

  **** Optimization is complete! (in 6 steps) ****
    Final optimized geometry and variables:
    Molecular point group: c1

    Geometry (in Angstrom), charge = 0, multiplicity = 1:

    H            3.301569258503    -0.429749127730    -0.015070788175
    C            2.241762272800    -0.247907281818    -0.001748177406
    C            1.759307530785     0.982333049745     0.413445929772
    C            1.364860269813    -1.245517147333    -0.408420580005
    H            2.440638645274     1.753831722794     0.723073871349
    C            0.393932208915     1.216311937392     0.418045891527
    H            1.746496296007    -2.194596333800    -0.738737063141
    C            0.002619429523    -1.016002771465    -0.389872648815
    H            0.014346344302     2.175602987042     0.726025083779
    C           -0.487732066181     0.215202675971     0.034280267666
    H           -0.691020090023    -1.776179027915    -0.696889217820
    C           -1.947330791199     0.483526822975     0.013746989495
    O           -2.785360079410    -0.358530088281    -0.061226042912
    H           -2.225350966733     1.542000593146     0.026972818178

  Mulliken Charges: (a.u.)
   Center  Symbol    Alpha    Beta     Spin     Total
       1     H     0.39424  0.39424  0.00000  0.21152
       2     C     3.09161  3.09161  0.00000 -0.18322
       3     C     3.10417  3.10417  0.00000 -0.20834
       4     C     3.10398  3.10398  0.00000 -0.20796
       5     H     0.39472  0.39472  0.00000  0.21056
       6     C     3.10200  3.10200  0.00000 -0.20400
       7     H     0.39402  0.39402  0.00000  0.21195
       8     C     3.08908  3.08908  0.00000 -0.17817
       9     H     0.39276  0.39276  0.00000  0.21448
      10     C     3.05110  3.05110  0.00000 -0.10220
      11     H     0.37819  0.37819  0.00000  0.24363
      12     C     2.83441  2.83441  0.00000  0.33117
      13     O     4.24661  4.24661  0.00000 -0.49322
      14     H     0.42310  0.42310  0.00000  0.15380

   Total alpha = 28.00000, Total beta = 28.00000, Total charge = -0.00000
