                              Psi4 1.0.54 Driver

  ==> Input File <==

--------------------------------------------------------------------------
set {
	reference rhf
	basis cc-pvtz
}

set_num_threads( 4 )
memory 2 gb

molecule MOL {
0 1

O	 -0.694481	 1.313155	 -0.204815
C	 -0.862519	 0.151932	 -0.046791
C	 -2.171428	 -0.477048	 0.339095
O	 0.085519	 -0.757083	 -0.192238
H	 -2.467997	 -1.191667	 -0.417688
H	 -2.923379	 0.287970	 0.444097
H	 -2.053854	 -1.015120	 1.270901
C	 1.132678	 -0.511255	 -1.123638
C	 2.245063	 0.313822	 -0.510657
H	 0.725023	 -0.026615	 -1.996998
H	 1.488967	 -1.492316	 -1.399917
H	 3.052312	 0.423584	 -1.226026
H	 1.892074	 1.300248	 -0.242802
H	 2.638218	 -0.171471	 0.374505

	symmetry c1
}
set optking {
	frozen_dihedral = ("
		8 4 2 1
	")
}

ee,wfn = optimize('scf', return_wfn=True)
oeprop( wfn, 'DIPOLE', 'QUADRUPOLE', 'MULLIKEN_CHARGES')
f=open( 'psi4out.xyz', 'w' )
f.write( "14  " )
f.write( str(ee) + "\n" )
f.write( MOL.save_string_xyz() )
f.close()
--------------------------------------------------------------------------

    Molecular point group: c1
  Charge       = 0
  Multiplicity = 1
  Basis Set: CC-PVTZ
  Basis Set:
  @DF-RHF Final Energy:  -305.98583912253616
    Total Energy =                       -305.9858391225363903
    Molecular point group: c1
  Basis Set: CC-PVTZ
  Basis Set:
  Basis Set: CC-PVTZ
  Basis Set:
  @DF-RHF Final Energy:  -305.96695997213203
    Total Energy =                       -305.9669599721320310
  Basis Set: CC-PVTZ
  Basis Set:
  Basis Set: CC-PVTZ
  Basis Set:
  @DF-RHF Final Energy:  -305.98441792404344
    Total Energy =                       -305.9844179240433277
  Basis Set: CC-PVTZ
  Basis Set:
  Basis Set: CC-PVTZ
  Basis Set:
  @DF-RHF Final Energy:  -305.98658217513065
    Total Energy =                       -305.9865821751308204
  Basis Set: CC-PVTZ
  Basis Set:
  @DF-RHF Final Energy:  -305.98677704579808
    Total Energy =                       -305.9867770457982488
  @DF-RHF Final Energy:  -305.98681731267038
    Total Energy =                       -305.9868173126703823
  Basis Set: CC-PVTZ
  Basis Set:
  @DF-RHF Final Energy:  -305.98683990867346
    Total Energy =                       -305.9868399086736304
  Basis Set: CC-PVTZ
  Basis Set:
  Basis Set: CC-PVTZ
  Basis Set:
  @DF-RHF Final Energy:  -305.98684355051410
    Total Energy =                       -305.9868435505143225
  Basis Set: CC-PVTZ
  Basis Set:
  Basis Set: CC-PVTZ
  Basis Set:
  @DF-RHF Final Energy:  -305.98684499384615
    Total Energy =                       -305.9868449938463755
  Basis Set: CC-PVTZ
  Basis Set:
  Charge       = 0
  Multiplicity = 1
  Basis Set: CC-PVTZ
  Basis Set:

    Orbital Energies (a.u.)
    -----------------------

    Doubly Occupied:

       1A    -20.590162     2A    -20.535266     3A    -11.368613
       4A    -11.285774     5A    -11.232135     6A    -11.215075
       7A     -1.468270     8A     -1.366107     9A     -1.054920
      10A     -0.999637    11A     -0.880822    12A     -0.771774
      13A     -0.700456    14A     -0.684821    15A     -0.656393
      16A     -0.613810    17A     -0.585037    18A     -0.571865
      19A     -0.563641    20A     -0.531026    21A     -0.512165
      22A     -0.497818    23A     -0.451948    24A     -0.442685

  @DF-RHF Final Energy:  -305.98684529412571

   => Energetics <=

    Nuclear Repulsion Energy =            248.0384545402556569
    One-Electron Energy =                -908.8901573763664601
    Two-Electron Energy =                 354.8648575419849180
    DFT Exchange-Correlation Energy =       0.0000000000000000
    Empirical Dispersion Energy =           0.0000000000000000
    PCM Polarization Energy =               0.0000000000000000
    EFP Energy =                            0.0000000000000000
    Total Energy =                       -305.9868452941258852
    Molecular point group: c1
  Basis Set: CC-PVTZ
  Basis Set:

  -Total Gradient:
     Atom            X                  Y                   Z
    ------   -----------------  -----------------  -----------------
       1        0.003585955066     0.002669744896     0.007081468627
       2       -0.007320556540    -0.006466724824    -0.012114940874
       3        0.000146109264    -0.000121073398     0.000053116052
       4        0.007722381449     0.008111344853     0.007935016450
       5       -0.000091709751    -0.000002508413    -0.000059031895
       6       -0.000031760223     0.000048394239    -0.000019643533
       7        0.000012239611     0.000039934541     0.000063023612
       8       -0.004011792561    -0.004201121630    -0.002928045791
       9       -0.000020095867    -0.000055268557    -0.000019914495
      10       -0.000010472328    -0.000021330040    -0.000004615453
      11       -0.000005191665    -0.000033150041    -0.000018723593
      12       -0.000003682671     0.000001747610     0.000012777979
      13        0.000020314762     0.000022397316     0.000009621535
      14        0.000008261454     0.000007613452     0.000009891377

  **** Optimization is complete! (in 10 steps) ****
    Final optimized geometry and variables:
    Molecular point group: c1

    Geometry (in Angstrom), charge = 0, multiplicity = 1:

    O           -0.824593609209     1.264991328301    -0.071229390446
    C           -0.806001293215     0.167081228468     0.368117260300
    C           -1.872875091128    -0.417311348227     1.249262963136
    O            0.205641982463    -0.672794664846     0.200093057519
    H           -2.352503270206    -1.239241597799     0.731595653508
    H           -2.601345848299     0.339471342268     1.491454893015
    H           -1.425251561313    -0.813909605687     2.150817843436
    C            0.990834864441    -0.570161299909    -0.983454953582
    C            2.262950965348     0.215323764108    -0.744963552540
    H            0.398100483992    -0.114132081304    -1.762348971821
    H            1.213264278581    -1.589899208402    -1.261944651323
    H            2.866474123284     0.217629222176    -1.645940164174
    H            2.035879844198     1.238471003191    -0.479291713410
    H            2.843245152783    -0.232542953212     0.052611009533

  Mulliken Charges: (a.u.)
   Center  Symbol    Alpha    Beta     Spin     Total
       1     O     4.19405  4.19405  0.00000 -0.38811
       2     C     2.80498  2.80498  0.00000  0.39004
       3     C     3.13661  3.13661  0.00000 -0.27322
       4     O     4.16011  4.16011  0.00000 -0.32021
       5     H     0.44831  0.44831  0.00000  0.10338
       6     H     0.43865  0.43865  0.00000  0.12270
       7     H     0.44384  0.44384  0.00000  0.11232
       8     C     2.98305  2.98305  0.00000  0.03391
       9     C     3.14221  3.14221  0.00000 -0.28442
      10     H     0.45435  0.45435  0.00000  0.09130
      11     H     0.44532  0.44532  0.00000  0.10937
      12     H     0.45374  0.45374  0.00000  0.09253
      13     H     0.44201  0.44201  0.00000  0.11598
      14     H     0.45277  0.45277  0.00000  0.09446

   Total alpha = 24.00000, Total beta = 24.00000, Total charge =  0.00000

*** Psi4 exiting successfully. Buy a developer a beer!
