  ==> Input File <==

--------------------------------------------------------------------------
set {
	reference rhf
	basis 6-31G*
}

set_num_threads( 4 )
memory 2 gb

molecule MOL {
0 1

H	 1.397971	 3.140649	 4.559299
C	 1.372452	 2.575811	 3.644372
C	 0.609648	 3.023871	 2.576420
C	 2.102213	 1.402434	 3.536824
H	 0.044155	 3.934039	 2.661148
C	 0.577336	 2.297060	 1.400332
H	 2.692946	 1.056669	 4.365731
C	 2.071376	 0.673245	 2.360513
H	 -0.007343	 2.628603	 0.563730
C	 1.307845	 1.119631	 1.288355
H	 2.634540	 -0.235319	 2.272887
C	 1.239129	 0.373821	 0.000060
O	 1.970282	 -0.730723	 0.000018
O	 0.596343	 0.725493	 -0.939095
C	 3.377318	 -0.566646	 -0.000065
H	 3.695437	 -0.028981	 -0.881264
H	 3.789299	 -1.563704	 0.000236
H	 3.695516	 -0.028316	 0.880770

	symmetry c1
}
set optking {
	frozen_dihedral = ("
		10 12 13 15
	")
}

ee = optimize('scf')
oeprop('DIPOLE', 'QUADRUPOLE', 'MULLIKEN_CHARGES')
f=open( 'psi4out.xyz', 'w' )
f.write( "18  " )
f.write( str(ee) + "\n" )
f.write( MOL.save_string_xyz() )
f.close()
--------------------------------------------------------------------------

    Molecular point group: c1
  Charge       = 0
  Multiplicity = 1
  Basis Set: 6-31G*
  Basis Set:
  @DF-RHF Final Energy:  -457.32046698089403
    Total Energy =                       -457.3204669808939116
    Molecular point group: c1
  Basis Set: 6-31G*
  Basis Set:
  Basis Set: 6-31G*
  Basis Set:
  @DF-RHF Final Energy:  -457.32747016296287
    Total Energy =                       -457.3274701629629817
  Basis Set: 6-31G*
  Basis Set:
  Basis Set: 6-31G*
  Basis Set:
  @DF-RHF Final Energy:  -457.32797646093684
    Total Energy =                       -457.3279764609364975
  Basis Set: 6-31G*
  Basis Set:
  Basis Set: 6-31G*
  Basis Set:
  @DF-RHF Final Energy:  -457.32967366945138
    Total Energy =                       -457.3296736694513811
  Basis Set: 6-31G*
  Basis Set:
  Basis Set: 6-31G*
  Basis Set:
  @DF-RHF Final Energy:  -457.32997370490159
    Total Energy =                       -457.3299737049019313
  Basis Set: 6-31G*
  Basis Set:
  Basis Set: 6-31G*
  Basis Set:
  @DF-RHF Final Energy:  -457.33001451192797
    Total Energy =                       -457.3300145119276294
  Basis Set: 6-31G*
  Basis Set:
  Basis Set: 6-31G*
  Basis Set:
  @DF-RHF Final Energy:  -457.33002834314533
    Total Energy =                       -457.3300283431455000
  Basis Set: 6-31G*
  Basis Set:
  Charge       = 0
  Multiplicity = 1
  Basis Set: 6-31G*
  Basis Set:

    Orbital Energies (a.u.)
    -----------------------

    Doubly Occupied:

       1A    -20.591484     2A    -20.553723     3A    -11.379526
       4A    -11.291926     5A    -11.252161     6A    -11.250889
       7A    -11.250509     8A    -11.247596     9A    -11.244356
      10A    -11.242874    11A     -1.460693    12A     -1.368484
      13A     -1.170826    14A     -1.046408    15A     -1.031047
      16A     -0.977274    17A     -0.873613    18A     -0.842144
      19A     -0.781026    20A     -0.737071    21A     -0.686556
      22A     -0.676496    23A     -0.665080    24A     -0.639223
      25A     -0.627528    26A     -0.609603    27A     -0.599515
      28A     -0.563103    29A     -0.532950    30A     -0.518753
      31A     -0.506853    32A     -0.492303    33A     -0.463042
      34A     -0.441549    35A     -0.350123    36A     -0.347218

  @DF-RHF Final Energy:  -457.33002975695479

   => Energetics <=

    Nuclear Repulsion Energy =            497.0218835071847252
    One-Electron Energy =               -1608.0767803821977395
    Two-Electron Energy =                 653.7248671180584552
    DFT Exchange-Correlation Energy =       0.0000000000000000
    Empirical Dispersion Energy =           0.0000000000000000
    PCM Polarization Energy =               0.0000000000000000
    EFP Energy =                            0.0000000000000000
    Total Energy =                       -457.3300297569546728
    Molecular point group: c1
  Basis Set: 6-31G*
  Basis Set:

  -Total Gradient:
     Atom            X                  Y                   Z
    ------   -----------------  -----------------  -----------------
       1        0.000003262240     0.000004911485     0.000001267569
       2        0.000019467558     0.000006978357     0.000007363176
       3       -0.000002099726     0.000005604839    -0.000014761988
       4       -0.000027277749    -0.000023147475    -0.000000738119
       5       -0.000007158168    -0.000007584346     0.000008711588
       6        0.000010419801    -0.000003009352    -0.000024865746
       7        0.000022628960     0.000009833615    -0.000004916940
       8       -0.000078998807     0.000023391280     0.000026918424
       9        0.000000312513    -0.000007431268    -0.000001772595
      10        0.000785927512     0.000703724480    -0.000551635558
      11        0.000038124438    -0.000032426611    -0.000018287436
      12       -0.001072809043    -0.001013847093     0.001396325825
      13        0.000219001009     0.000277086447    -0.002131666853
      14       -0.000047765827     0.000030658803     0.000017515628
      15        0.000098670316    -0.000003566599     0.001293140547
      16        0.000007679814    -0.000001905058    -0.000025529513
      17       -0.000007416302     0.000004296165    -0.000003251504
      18        0.000038031464     0.000026432332     0.000026183494

  **** Optimization is complete! (in 8 steps) ****
    Final optimized geometry and variables:
    Molecular point group: c1

    Geometry (in Angstrom), charge = 0, multiplicity = 1:

    H           -0.151762493155     2.235174037899     3.205750828766
    C           -0.177991469578     1.631284625412     2.316344851005
    C           -0.794677606671     2.113235153747     1.170999186738
    C            0.398811330679     0.371440025423     2.319770179834
    H           -1.246369634294     3.088595487650     1.171581867973
    C           -0.834890530797     1.334289832432     0.029208848744
    H            0.865634053802    -0.006508126110     3.211232481362
    C            0.371133650625    -0.403713531829     1.172755401169
    H           -1.322505023978     1.687074341681    -0.859608152181
    C           -0.241736818173     0.076586147178     0.021554221262
    H            0.807407666336    -1.384988487990     1.175634398355
    C           -0.331476720283    -0.747538702003    -1.222296175574
    O            0.559666641906    -1.752228259832    -1.335136396040
    O           -1.151720964421    -0.565203092501    -2.055871676878
    C            1.917117628286    -1.417959141905    -1.547473719237
    H            2.042398521342    -0.976486755139    -2.528816417652
    H            2.468596136731    -2.343897596223    -1.498336546372
    H            2.285996338243    -0.735572763947    -0.793042881286

  Mulliken Charges: (a.u.)
   Center  Symbol    Alpha    Beta     Spin     Total
       1     H     0.39422  0.39422  0.00000  0.21157
       2     C     3.09128  3.09128  0.00000 -0.18256
       3     C     3.10562  3.10562  0.00000 -0.21123
       4     C     3.10512  3.10512  0.00000 -0.21024
       5     H     0.39399  0.39399  0.00000  0.21203
       6     C     3.08638  3.08638  0.00000 -0.17277
       7     H     0.39497  0.39497  0.00000  0.21007
       8     C     3.09611  3.09611  0.00000 -0.19221
       9     H     0.37738  0.37738  0.00000  0.24524
      10     C     3.07334  3.07334  0.00000 -0.14668
      11     H     0.38433  0.38433  0.00000  0.23134
      12     C     2.60044  2.60044  0.00000  0.79912
      13     O     4.31710  4.31710  0.00000 -0.63420
      14     O     4.25546  4.25546  0.00000 -0.51092
      15     C     3.09544  3.09544  0.00000 -0.19087
      16     H     0.40996  0.40996  0.00000  0.18008
      17     H     0.40315  0.40315  0.00000  0.19369
      18     H     0.41572  0.41572  0.00000  0.16855

   Total alpha = 36.00000, Total beta = 36.00000, Total charge = -0.00000
