  ==> Input File <==

--------------------------------------------------------------------------
set {
	reference rhf
	basis 6-31G*
}

set_num_threads( 4 )
memory 2 gb

molecule MOL {
0 1

H	 -2.421628	 -0.316120	 0.901298
O	 -2.315789	 -0.143634	 -0.024262
C	 -0.945151	 -0.064130	 -0.333158
H	 -0.813375	 -0.223047	 -1.403232
C	 -0.232801	 -1.184051	 0.407206
C	 -0.355424	 1.302939	 0.054523
H	 -0.318824	 -0.992899	 1.473524
H	 -0.742411	 -2.122033	 0.217954
C	 1.248522	 -1.270719	 -0.013048
H	 -0.546144	 2.018388	 -0.742941
H	 -0.890929	 1.656788	 0.930149
C	 1.156425	 1.235120	 0.355905
H	 1.825384	 -1.683246	 0.809111
H	 1.357782	 -1.965923	 -0.840362
C	 1.828244	 0.099899	 -0.419275
H	 1.626109	 2.185622	 0.123525
H	 1.309438	 1.071213	 1.419539
H	 2.901447	 0.112642	 -0.255830
H	 1.681817	 0.263413	 -1.484607

	symmetry c1
}
set optking {
	frozen_dihedral = ("
		1 2 3 4
	")
}

ee = optimize('scf')
oeprop('DIPOLE', 'QUADRUPOLE', 'MULLIKEN_CHARGES')
f=open( 'psi4out.xyz', 'w' )
f.write( "19  " )
f.write( str(ee) + "\n" )
f.write( MOL.save_string_xyz() )
f.close()
--------------------------------------------------------------------------

    Molecular point group: c1
  Charge       = 0
  Multiplicity = 1
  Basis Set: 6-31G*
  Basis Set:
  @DF-RHF Final Energy:  -309.04593161352864
    Total Energy =                       -309.0459316135287509
    Molecular point group: c1
  Basis Set: 6-31G*
  Basis Set:
  Basis Set: 6-31G*
  Basis Set:
  @DF-RHF Final Energy:  -309.04753591008387
    Total Energy =                       -309.0475359100838091
  Basis Set: 6-31G*
  Basis Set:
  Basis Set: 6-31G*
  Basis Set:
  @DF-RHF Final Energy:  -309.04789577935651
    Total Energy =                       -309.0478957793568497
  Basis Set: 6-31G*
  Basis Set:
  Basis Set: 6-31G*
  Basis Set:
  @DF-RHF Final Energy:  -309.04790183153887
    Total Energy =                       -309.0479018315389794
  Basis Set: 6-31G*
  Basis Set:
  Charge       = 0
  Multiplicity = 1
  Basis Set: 6-31G*
  Basis Set:

    Orbital Energies (a.u.)
    -----------------------

    Doubly Occupied:

       1A    -20.549532     2A    -11.268874     3A    -11.220306
       4A    -11.217915     5A    -11.217335     6A    -11.217224
       7A    -11.211601     8A     -1.358868     9A     -1.110347
      10A     -1.004633    11A     -0.988661    12A     -0.849663
      13A     -0.837612    14A     -0.751715    15A     -0.671470
      16A     -0.666273    17A     -0.620025    18A     -0.594161
      19A     -0.581336    20A     -0.559593    21A     -0.532019
      22A     -0.521511    23A     -0.502026    24A     -0.492838
      25A     -0.463986    26A     -0.449982    27A     -0.431636
      28A     -0.407997

  @DF-RHF Final Energy:  -309.04790255644224

   => Energetics <=

    Nuclear Repulsion Energy =            331.1952314377538755
    One-Electron Energy =               -1075.8879916636651615
    Two-Electron Energy =                 435.6448576694691610
    DFT Exchange-Correlation Energy =       0.0000000000000000
    Empirical Dispersion Energy =           0.0000000000000000
    PCM Polarization Energy =               0.0000000000000000
    EFP Energy =                            0.0000000000000000
    Total Energy =                       -309.0479025564421818
    Molecular point group: c1
  Basis Set: 6-31G*
  Basis Set:

  -Total Gradient:
     Atom            X                  Y                   Z
    ------   -----------------  -----------------  -----------------
       1        0.000008149948    -0.001758208479    -0.000342044071
       2        0.000003216106     0.001840738670     0.000466702022
       3       -0.000106609056     0.001385760336    -0.000315438012
       4        0.000098944933    -0.001501483485     0.000241033564
       5       -0.000027068146     0.000009169408    -0.000026467073
       6        0.000048330210    -0.000017169017     0.000013457849
       7        0.000002846804    -0.000006052568    -0.000024447792
       8        0.000003602429    -0.000008450228     0.000008445641
       9       -0.000011343203    -0.000007780599     0.000053322112
      10        0.000021599816     0.000023986654    -0.000016526226
      11        0.000001813721    -0.000006508117    -0.000016837108
      12       -0.000023143210     0.000034573917    -0.000022235081
      13        0.000019321680    -0.000025999055    -0.000004273099
      14       -0.000016571548     0.000005551941    -0.000002432897
      15       -0.000008842850     0.000022687134    -0.000024991326
      16       -0.000003154038     0.000012622691     0.000016877291
      17       -0.000005687681     0.000000178581     0.000001567480
      18       -0.000011826956    -0.000009834548     0.000001318403
      19        0.000006421038     0.000006216765    -0.000007031677

  **** Optimization is complete! (in 5 steps) ****
    Final optimized geometry and variables:
    Molecular point group: c1

    Geometry (in Angstrom), charge = 0, multiplicity = 1:

    H           -2.511240964118    -0.268241270035     0.815679842224
    O           -2.340226184887    -0.096644432055    -0.100485544450
    C           -0.950246029779    -0.064783206138    -0.317278044729
    H           -0.836954313508    -0.229876128357    -1.382599560504
    C           -0.221254789543    -1.189771542855     0.411001507144
    C           -0.358222855153     1.301682177381     0.064500595027
    H           -0.288728094918    -1.010429871414     1.484227876505
    H           -0.724707385417    -2.131854874474     0.219651995719
    C            1.258771451300    -1.267044926247    -0.018562080473
    H           -0.571509071485     2.011548138610    -0.728713769304
    H           -0.882421547829     1.662694194994     0.945512546487
    C            1.157323988532     1.238468050162     0.346519794199
    H            1.846255987587    -1.669275501991     0.801129105450
    H            1.364840857824    -1.966719070845    -0.842100145678
    C            1.821654273660     0.105935483825    -0.438873817013
    H            1.621416454460     2.190234552986     0.108224835797
    H            1.328946974983     1.074456131116     1.407893691394
    H            2.897657821974     0.123459056421    -0.296052282206
    H            1.653528977363     0.265588007147    -1.501363330378

  Mulliken Charges: (a.u.)
   Center  Symbol    Alpha    Beta     Spin     Total
       1     H     0.28435  0.28435  0.00000  0.43130
       2     O     4.37918  4.37918  0.00000 -0.75836
       3     C     2.90463  2.90463  0.00000  0.19074
       4     H     0.41701  0.41701  0.00000  0.16599
       5     C     3.18263  3.18263  0.00000 -0.36527
       6     C     3.16252  3.16252  0.00000 -0.32503
       7     H     0.42717  0.42717  0.00000  0.14566
       8     H     0.40994  0.40994  0.00000  0.18012
       9     C     3.15854  3.15854  0.00000 -0.31708
      10     H     0.41438  0.41438  0.00000  0.17123
      11     H     0.42228  0.42228  0.00000  0.15545
      12     C     3.16495  3.16495  0.00000 -0.32990
      13     H     0.41786  0.41786  0.00000  0.16429
      14     H     0.41661  0.41661  0.00000  0.16678
      15     C     3.16461  3.16461  0.00000 -0.32922
      16     H     0.41571  0.41571  0.00000  0.16857
      17     H     0.42148  0.42148  0.00000  0.15703
      18     H     0.41617  0.41617  0.00000  0.16765
      19     H     0.41997  0.41997  0.00000  0.16006

   Total alpha = 28.00000, Total beta = 28.00000, Total charge =  0.00000
