  ==> Input File <==

--------------------------------------------------------------------------
set {
	reference rhf
	basis 6-31G*
}

set_num_threads( 4 )
memory 2 gb

molecule MOL {
0 1

H	 -0.476276	 -1.602177	 -0.302100
N	 -0.626943	 -0.667432	 -0.000092
C	 -1.979713	 -0.158776	 0.000050
C	 0.444693	 0.063575	 0.391560
H	 -2.520245	 -0.492427	 -0.879443
H	 -1.934741	 0.918111	 -0.004428
H	 -2.517790	 -0.485056	 0.883818
C	 1.769406	 -0.668260	 0.310699
O	 0.362628	 1.198646	 0.772473
H	 1.972623	 -0.980353	 -0.708936
H	 2.554688	 -0.006932	 0.644876
H	 1.756193	 -1.555112	 0.936522

	symmetry c1
}
set optking {
	frozen_dihedral = ("
		4 2 3 5
	")
}

ee = optimize('scf')
oeprop('DIPOLE', 'QUADRUPOLE', 'MULLIKEN_CHARGES')
f=open( 'psi4out.xyz', 'w' )
f.write( "12  " )
f.write( str(ee) + "\n" )
f.write( MOL.save_string_xyz() )
f.close()
--------------------------------------------------------------------------

    Molecular point group: c1
  Charge       = 0
  Multiplicity = 1
  Basis Set: 6-31G*
  Basis Set:
  @DF-RHF Final Energy:  -247.00538574546260
    Total Energy =                       -247.0053857454628883
    Molecular point group: c1
  Basis Set: 6-31G*
  Basis Set:
  Basis Set: 6-31G*
  Basis Set:
  @DF-RHF Final Energy:  -247.00549041111415
    Total Energy =                       -247.0054904111142378
  Basis Set: 6-31G*
  Basis Set:
  Basis Set: 6-31G*
  Basis Set:
  @DF-RHF Final Energy:  -247.00551168693315
    Total Energy =                       -247.0055116869330618
  Basis Set: 6-31G*
  Basis Set:
  Basis Set: 6-31G*
  Basis Set:
  @DF-RHF Final Energy:  -247.00552413548766
    Total Energy =                       -247.0055241354876330
  Basis Set: 6-31G*
  Basis Set:
  @DF-RHF Final Energy:  -247.00554307064411
    Total Energy =                       -247.0055430706440802
  @DF-RHF Final Energy:  -247.00554636980502
    Total Energy =                       -247.0055463698047333
  @DF-RHF Final Energy:  -247.00554760656229
    Total Energy =                       -247.0055476065622884
  @DF-RHF Final Energy:  -247.00554897107719
    Total Energy =                       -247.0055489710771326
  @DF-RHF Final Energy:  -247.00555041300410
    Total Energy =                       -247.0055504130042436
  @DF-RHF Final Energy:  -247.00555166581543
    Total Energy =                       -247.0055516658153465
  @DF-RHF Final Energy:  -247.00555449100415
    Total Energy =                       -247.0055544910042045
  @DF-RHF Final Energy:  -247.00555504225065
    Total Energy =                       -247.0055550422507622
  @DF-RHF Final Energy:  -247.00555540209817
    Total Energy =                       -247.0055554020981958
  @DF-RHF Final Energy:  -247.00555538345415
    Total Energy =                       -247.0055553834540660
  @DF-RHF Final Energy:  -247.00555535821067
    Total Energy =                       -247.0055553582106427
  @DF-RHF Final Energy:  -247.00534440940783
    Total Energy =                       -247.0053444094077690
  @DF-RHF Final Energy:  -247.00523888241520
    Total Energy =                       -247.0052388824149716
  @DF-RHF Final Energy:  -247.00555129148967
    Total Energy =                       -247.0055512914896099
  @DF-RHF Final Energy:  -247.00555488477835
    Total Energy =                       -247.0055548847783484
  @DF-RHF Final Energy:  -247.00555510917590
    Total Energy =                       -247.0055551091758730
  @DF-RHF Final Energy:  -247.00081576933283
    Total Energy =                       -247.0008157693327462
  @DF-RHF Final Energy:  -247.00234268980716
    Total Energy =                       -247.0023426898070511
  @DF-RHF Final Energy:  -247.00331673601440
    Total Energy =                       -247.0033167360142556
  @DF-RHF Final Energy:  -247.00429911578374
    Total Energy =                       -247.0042991157836241
  @DF-RHF Final Energy:  -247.00361265459793
    Total Energy =                       -247.0036126545977595
  @DF-RHF Final Energy:  -247.00412435028269
    Total Energy =                       -247.0041243502824955
  @DF-RHF Final Energy:  -247.00392358860566
    Total Energy =                       -247.0039235886055735
  @DF-RHF Final Energy:  -247.00389393540323
    Total Energy =                       -247.0038939354031982
  @DF-RHF Final Energy:  -247.00477145843774
    Total Energy =                       -247.0047714584376308
  @DF-RHF Final Energy:  -247.00439415503385
    Total Energy =                       -247.0043941550338786
  @DF-RHF Final Energy:  -247.00506795549441
    Total Energy =                       -247.0050679554944963
  @DF-RHF Final Energy:  -247.00527470387411
    Total Energy =                       -247.0052747038740222
  @DF-RHF Final Energy:  -247.00535403419437
    Total Energy =                       -247.0053540341942266
  @DF-RHF Final Energy:  -247.00543795603224
    Total Energy =                       -247.0054379560322104
  @DF-RHF Final Energy:  -247.00552406538901
    Total Energy =                       -247.0055240653891815
  @DF-RHF Final Energy:  -247.00553750108969
    Total Energy =                       -247.0055375010895773
  Basis Set: 6-31G*
  Basis Set:
  @DF-RHF Final Energy:  -247.00554024972524
    Total Energy =                       -247.0055402497253567
  Basis Set: 6-31G*
  Basis Set:
  Basis Set: 6-31G*
  Basis Set:
  @DF-RHF Final Energy:  -247.00554385265997
    Total Energy =                       -247.0055438526600255
  Basis Set: 6-31G*
  Basis Set:
  Basis Set: 6-31G*
  Basis Set:
  @DF-RHF Final Energy:  -247.00554442544910
    Total Energy =                       -247.0055444254492159
  Basis Set: 6-31G*
  Basis Set:
  Charge       = 0
  Multiplicity = 1
  Basis Set: 6-31G*
  Basis Set:

    Orbital Energies (a.u.)
    -----------------------

    Doubly Occupied:

       1A    -20.516298     2A    -15.581099     3A    -11.342985
       4A    -11.253917     5A    -11.229891     6A     -1.384542
       7A     -1.227706     8A     -1.015551     9A     -0.931578
      10A     -0.785824    11A     -0.689072    12A     -0.648000
      13A     -0.632216    14A     -0.585846    15A     -0.579888
      16A     -0.554673    17A     -0.544454    18A     -0.507167
      19A     -0.413195    20A     -0.384374

  @DF-RHF Final Energy:  -247.00554494878082

   => Energetics <=

    Nuclear Repulsion Energy =            181.2694971866156948
    One-Electron Energy =                -694.9335350529670450
    Two-Electron Energy =                 266.6584929175704701
    DFT Exchange-Correlation Energy =       0.0000000000000000
    Empirical Dispersion Energy =           0.0000000000000000
    PCM Polarization Energy =               0.0000000000000000
    EFP Energy =                            0.0000000000000000
    Total Energy =                       -247.0055449487808801
    Molecular point group: c1
  Basis Set: 6-31G*
  Basis Set:

  -Total Gradient:
     Atom            X                  Y                   Z
    ------   -----------------  -----------------  -----------------
       1        0.000459777103    -0.000111875704    -0.000177230883
       2       -0.000843677441    -0.000086114692    -0.000200922455
       3        0.000343637881     0.001047922736     0.001027241397
       4        0.000482331957     0.000345705659     0.001532969169
       5       -0.000454934704    -0.000118205751    -0.000139004169
       6       -0.000168616462    -0.000364399592    -0.000186682725
       7        0.000106284886    -0.000300608238    -0.000616675792
       8        0.000178210185    -0.000956335957    -0.000038882199
       9       -0.000161324432    -0.000048058003    -0.000808453550
      10        0.000373792250     0.000117423084    -0.000301107625
      11       -0.000052676613     0.000171979815    -0.000084360055
      12       -0.000262804610     0.000302566642    -0.000006891112

    Molecular point group: c1

    Geometry (in Angstrom), charge = 0, multiplicity = 1:

    H           -0.457255983429    -1.550157017828    -0.604931116305
    N           -0.602170518649    -0.602253833481    -0.343134802358
    C           -1.959445597464    -0.108224063882    -0.281003173826
    C            0.463535284895     0.111674360753     0.096752736440
    H           -2.495039712170    -0.379871021064    -1.183772263544
    H           -1.930930047786     0.965883180052    -0.199626226205
    H           -2.495530568897    -0.511149282054     0.572361496928
    C            1.787333838653    -0.624793088655     0.033254441816
    O            0.374292823037     1.238510982986     0.498476561824
    H            1.964762799613    -1.031587968539    -0.957271228392
    H            2.579887147322     0.063814537659     0.285429988273
    H            1.790645754042    -1.446852605034     0.742143161964

  Mulliken Charges: (a.u.)
   Center  Symbol    Alpha    Beta     Spin     Total
       1     H     0.31118  0.31118  0.00000  0.37765
       2     N     3.89110  3.89110  0.00000 -0.78221
       3     C     3.14085  3.14085  0.00000 -0.28170
       4     C     2.63121  2.63121  0.00000  0.73758
       5     H     0.41666  0.41666  0.00000  0.16668
       6     H     0.38790  0.38790  0.00000  0.22421
       7     H     0.41650  0.41650  0.00000  0.16700
       8     C     3.29525  3.29525  0.00000 -0.59049
       9     O     4.30184  4.30184  0.00000 -0.60369
      10     H     0.40893  0.40893  0.00000  0.18215
      11     H     0.39199  0.39199  0.00000  0.21603
      12     H     0.40660  0.40660  0.00000  0.18679

   Total alpha = 20.00000, Total beta = 20.00000, Total charge =  0.00000
