  ==> Input File <==

--------------------------------------------------------------------------
set {
	reference rhf
	basis 6-31G*
}

set_num_threads( 4 )
memory 2 gb

molecule MOL {
0 1

H	 -0.883881	 -2.463649	 -0.416797
N	 -0.161775	 -1.779144	 -0.532970
C	 -0.563778	 -0.502042	 0.037919
H	 -0.003842	 -1.689174	 -1.518727
C	 0.575259	 0.508231	 -0.048326
H	 -0.813931	 -0.670430	 1.081118
H	 -1.455735	 -0.081679	 -0.433730
C	 1.954651	 -0.143624	 0.035137
H	 0.475158	 1.060484	 -0.977307
H	 0.469181	 1.234488	 0.755973
H	 2.103292	 -0.853109	 -0.774172
H	 2.742821	 0.599562	 -0.030094
H	 2.083613	 -0.679371	 0.971560

	symmetry c1
}
set optking {
	frozen_dihedral = ("
		6 3 5 9
	")
}

ee = optimize('scf')
oeprop('DIPOLE', 'QUADRUPOLE', 'MULLIKEN_CHARGES')
f=open( 'psi4out.xyz', 'w' )
f.write( "13  " )
f.write( str(ee) + "\n" )
f.write( MOL.save_string_xyz() )
f.close()
--------------------------------------------------------------------------

    Molecular point group: c1
  Charge       = 0
  Multiplicity = 1
  Basis Set: 6-31G*
  Basis Set:
  @DF-RHF Final Energy:  -173.27653307224560
    Total Energy =                       -173.2765330722455417
    Molecular point group: c1
  Basis Set: 6-31G*
  Basis Set:
  Basis Set: 6-31G*
  Basis Set:
  @DF-RHF Final Energy:  -173.27760213204073
    Total Energy =                       -173.2776021320406699
  Basis Set: 6-31G*
  Basis Set:
  Basis Set: 6-31G*
  Basis Set:
  @DF-RHF Final Energy:  -173.27839541815425
    Total Energy =                       -173.2783954181542470
  Basis Set: 6-31G*
  Basis Set:
  Basis Set: 6-31G*
  Basis Set:
  @DF-RHF Final Energy:  -173.27844822851719
    Total Energy =                       -173.2784482285171066
  Basis Set: 6-31G*
  Basis Set:
  Basis Set: 6-31G*
  Basis Set:
  @DF-RHF Final Energy:  -173.27845125745930
    Total Energy =                       -173.2784512574592668
  Basis Set: 6-31G*
  Basis Set:
  Charge       = 0
  Multiplicity = 1
  Basis Set: 6-31G*
  Basis Set:

    Orbital Energies (a.u.)
    -----------------------

    Doubly Occupied:

       1A    -15.533943     2A    -11.240923     3A    -11.212582
       4A    -11.199012     5A     -1.177658     6A     -1.026970
       7A     -0.904342     8A     -0.787860     9A     -0.666254
      10A     -0.624323    11A     -0.601303    12A     -0.558253
      13A     -0.531704    14A     -0.492245    15A     -0.470062
      16A     -0.461332    17A     -0.380325

  @DF-RHF Final Energy:  -173.27845178736251

   => Energetics <=

    Nuclear Repulsion Energy =            133.8443045545965049
    One-Electron Energy =                -498.5073262287322677
    Two-Electron Energy =                 191.3845698867733063
    DFT Exchange-Correlation Energy =       0.0000000000000000
    Empirical Dispersion Energy =           0.0000000000000000
    PCM Polarization Energy =               0.0000000000000000
    EFP Energy =                            0.0000000000000000
    Total Energy =                       -173.2784517873624281
    Molecular point group: c1
  Basis Set: 6-31G*
  Basis Set:

  -Total Gradient:
     Atom            X                  Y                   Z
    ------   -----------------  -----------------  -----------------
       1        0.000006398333     0.000030373765     0.000006987904
       2        0.000042673098    -0.000017867194    -0.000050505867
       3        0.004226057410    -0.004693104758     0.000955299566
       4        0.000001377819    -0.000019370509    -0.000003412184
       5        0.003270745257    -0.004158449746    -0.003675776604
       6       -0.004112513238     0.004650065076    -0.000170543763
       7        0.000020026035     0.000022064812     0.000012769545
       8        0.000002234459    -0.000034404754     0.000026076497
       9       -0.003445230653     0.004251582358     0.002917367698
      10       -0.000025097560    -0.000019751635    -0.000001260178
      11        0.000013104654    -0.000012369948     0.000004547706
      12       -0.000013642017    -0.000001286737    -0.000015004907
      13        0.000013866401     0.000002519270    -0.000006545413

  **** Optimization is complete! (in 6 steps) ****
    Final optimized geometry and variables:
    Molecular point group: c1

    Geometry (in Angstrom), charge = 0, multiplicity = 1:

    H           -1.430160613587    -1.941800322454    -0.269536815096
    N           -0.681209726069    -1.294121156335    -0.420891965357
    C           -0.986232518553    -0.013193889539     0.196388691317
    H           -0.584805177753    -1.191434371416    -1.413631059833
    C            0.159257561301     1.001480952941     0.072384744502
    H           -1.212657162584    -0.173410132081     1.245853407949
    H           -1.886344935138     0.448807114141    -0.217318741637
    C            1.562047405405     0.416276682010     0.213703219031
    H            0.057094092439     1.559918720806    -0.856162007514
    H            0.009059309272     1.748263823597     0.849760806067
    H            1.791477667428    -0.278702920646    -0.584146509456
    H            2.305122095615     1.208184628852     0.198296355836
    H            1.663799554235    -0.122753796958     1.150138082306

  Mulliken Charges: (a.u.)
   Center  Symbol    Alpha    Beta     Spin     Total
       1     H     0.33155  0.33155  0.00000  0.33690
       2     N     3.91984  3.91984  0.00000 -0.83967
       3     C     3.06113  3.06113  0.00000 -0.12226
       4     H     0.33525  0.33525  0.00000  0.32950
       5     C     3.16284  3.16284  0.00000 -0.32567
       6     H     0.42052  0.42052  0.00000  0.15896
       7     H     0.43339  0.43339  0.00000  0.13321
       8     C     3.22881  3.22881  0.00000 -0.45762
       9     H     0.42463  0.42463  0.00000  0.15074
      10     H     0.42172  0.42172  0.00000  0.15657
      11     H     0.41565  0.41565  0.00000  0.16870
      12     H     0.42520  0.42520  0.00000  0.14960
      13     H     0.41948  0.41948  0.00000  0.16103

   Total alpha = 17.00000, Total beta = 17.00000, Total charge =  0.00000
