  ==> Input File <==

--------------------------------------------------------------------------
set {
	reference rhf
	basis cc-pvtz
}

set_num_threads( 4 )
memory 2 gb

molecule MOL {
0 1

H	 -0.994247	 -0.465667	 -0.929470
N	 -0.712187	 0.000026	 -0.093397
C	 0.734067	 -0.000020	 0.038424
H	 -1.139971	 -0.480364	 0.669276
H	 1.140372	 -0.872115	 -0.458226
H	 1.140363	 0.872301	 -0.457869
H	 1.095085	 -0.000244	 1.065614

	symmetry c1
}
set optking {
	frozen_dihedral = ("
		1 2 3 7
	")
}

ee = optimize('scf')
oeprop('DIPOLE', 'QUADRUPOLE', 'MULLIKEN_CHARGES')
f=open( 'psi4out.xyz', 'w' )
f.write( "7  " )
f.write( str(ee) + "\n" )
f.write( MOL.save_string_xyz() )
f.close()
--------------------------------------------------------------------------

    Molecular point group: c1
  Charge       = 0
  Multiplicity = 1
  Basis Set: CC-PVTZ
  Basis Set:
  @DF-RHF Final Energy:   -95.25058602317777
    Total Energy =                        -95.2505860231777888
    Molecular point group: c1
  Basis Set: CC-PVTZ
  Basis Set:
  Basis Set: CC-PVTZ
  Basis Set:
  @DF-RHF Final Energy:   -95.25193072571909
    Total Energy =                        -95.2519307257191201
  Basis Set: CC-PVTZ
  Basis Set:
  Basis Set: CC-PVTZ
  Basis Set:
  @DF-RHF Final Energy:   -95.25210571964334
    Total Energy =                        -95.2521057196433389
  Basis Set: CC-PVTZ
  Basis Set:
  Charge       = 0
  Multiplicity = 1
  Basis Set: CC-PVTZ
  Basis Set:

    Orbital Energies (a.u.)
    -----------------------

    Doubly Occupied:

       1A    -15.528359     2A    -11.235777     3A     -1.171525
       4A     -0.897679     5A     -0.664636     6A     -0.602733
       7A     -0.558928     8A     -0.516914     9A     -0.387252

  @DF-RHF Final Energy:   -95.25210737859263

   => Energetics <=

    Nuclear Repulsion Energy =             42.3405095628761003
    One-Electron Energy =                -212.0576260649381766
    Two-Electron Energy =                  74.4650091234694429
    DFT Exchange-Correlation Energy =       0.0000000000000000
    Empirical Dispersion Energy =           0.0000000000000000
    PCM Polarization Energy =               0.0000000000000000
    EFP Energy =                            0.0000000000000000
    Total Energy =                        -95.2521073785926404
    Molecular point group: c1
  Basis Set: CC-PVTZ
  Basis Set:

  -Total Gradient:
     Atom            X                  Y                   Z
    ------   -----------------  -----------------  -----------------
       1       -0.000054710449    -0.002406941636     0.001451050822
       2        0.000235414823     0.002342312433    -0.001753386104
       3       -0.000149187567     0.002565337671     0.000262219652
       4        0.000041431407     0.000050089469    -0.000002299477
       5       -0.000000092766     0.000001240349    -0.000008965390
       6       -0.000018333471     0.000019283053     0.000013508519
       7       -0.000054521978    -0.002571321340     0.000037871978

  **** Optimization is complete! (in 4 steps) ****
    Final optimized geometry and variables:
    Molecular point group: c1

    Geometry (in Angstrom), charge = 0, multiplicity = 1:

    H           -1.027719031354    -0.425513778287    -0.875318112293
    N           -0.718255069049     0.038268311458    -0.048338319937
    C            0.735042843541     0.022965216511     0.047980669800
    H           -1.124029156952    -0.456240402532     0.716735814032
    H            1.193437976830    -0.850354751409    -0.410595972447
    H            1.154585792714     0.904991374208    -0.419728971087
    H            1.031382716911     0.021961335756     1.089239174943

  Mulliken Charges: (a.u.)
   Center  Symbol    Alpha    Beta     Spin     Total
       1     H     0.42971  0.42971  0.00000  0.14058
       2     N     3.68471  3.68471  0.00000 -0.36942
       3     C     3.07009  3.07009  0.00000 -0.14017
       4     H     0.42864  0.42864  0.00000  0.14272
       5     H     0.47012  0.47012  0.00000  0.05975
       6     H     0.45813  0.45813  0.00000  0.08375
       7     H     0.45860  0.45860  0.00000  0.08279

   Total alpha =  9.00000, Total beta =  9.00000, Total charge = -0.00000
