  ==> Input File <==

--------------------------------------------------------------------------
set {
	reference rhf
	basis 6-31G*
}

set_num_threads( 4 )
memory 2 gb

molecule MOL {
0 1

H	 -3.161837	 0.500524	 -0.000234
C	 -2.367097	 -0.232926	 -0.000000
O	 -1.158440	 0.455814	 -0.000122
H	 -2.468853	 -0.861886	 -0.882833
H	 -2.468942	 -0.861421	 0.883154
C	 -0.065254	 -0.302822	 0.420935
C	 1.180767	 0.564239	 0.372969
H	 0.055874	 -1.175703	 -0.221954
H	 -0.231673	 -0.670821	 1.434241
C	 2.433686	 -0.187916	 0.819441
H	 1.305510	 0.931832	 -0.640922
H	 1.020058	 1.433168	 1.003710
H	 2.626485	 -1.048663	 0.185117
H	 3.306950	 0.454230	 0.775809
H	 2.338750	 -0.544447	 1.841339

	symmetry c1
}
set optking {
	frozen_dihedral = ("
		6 3 2 4
	")
}

ee = optimize('scf')
oeprop('DIPOLE', 'QUADRUPOLE', 'MULLIKEN_CHARGES')
f=open( 'psi4out.xyz', 'w' )
f.write( "15  " )
f.write( str(ee) + "\n" )
f.write( MOL.save_string_xyz() )
f.close()
--------------------------------------------------------------------------

    Molecular point group: c1
  Charge       = 0
  Multiplicity = 1
  Basis Set: 6-31G*
  Basis Set:
  @DF-RHF Final Energy:  -232.13849047672889
    Total Energy =                       -232.1384904767288049
    Molecular point group: c1
  Basis Set: 6-31G*
  Basis Set:
  Basis Set: 6-31G*
  Basis Set:
  @DF-RHF Final Energy:  -232.13853502689670
    Total Energy =                       -232.1385350268967613
  Basis Set: 6-31G*
  Basis Set:
  Basis Set: 6-31G*
  Basis Set:
  @DF-RHF Final Energy:  -232.13854060992890
    Total Energy =                       -232.1385406099288389
  Basis Set: 6-31G*
  Basis Set:
  Charge       = 0
  Multiplicity = 1
  Basis Set: 6-31G*
  Basis Set:

    Orbital Energies (a.u.)
    -----------------------

    Doubly Occupied:

       1A    -20.552573     2A    -11.266367     3A    -11.263766
       4A    -11.214139     5A    -11.212881     6A     -1.377046
       7A     -1.057189     8A     -0.955387     9A     -0.877185
      10A     -0.808976    11A     -0.674014    12A     -0.653274
      13A     -0.629955    14A     -0.607739    15A     -0.564993
      16A     -0.542618    17A     -0.502579    18A     -0.488538
      19A     -0.478318    20A     -0.461184    21A     -0.412532

  @DF-RHF Final Energy:  -232.13854071108378

   => Energetics <=

    Nuclear Repulsion Energy =            189.6339558087987882
    One-Electron Energy =                -690.3424806240116141
    Two-Electron Energy =                 268.5699841041291052
    DFT Exchange-Correlation Energy =       0.0000000000000000
    Empirical Dispersion Energy =           0.0000000000000000
    PCM Polarization Energy =               0.0000000000000000
    EFP Energy =                            0.0000000000000000
    Total Energy =                       -232.1385407110837491
    Molecular point group: c1
  Basis Set: 6-31G*
  Basis Set:

  -Total Gradient:
     Atom            X                  Y                   Z
    ------   -----------------  -----------------  -----------------
       1       -0.000012784847     0.000002725449    -0.000002111362
       2        0.001303241067    -0.002298809688     0.002446066657
       3        0.000140556125    -0.000284838327    -0.003132785231
       4       -0.001105801046     0.001989780991    -0.001255189054
       5        0.000005246274     0.000004558407    -0.000001609331
       6       -0.000339045730     0.000585936423     0.001929137667
       7       -0.000001892342    -0.000002444137     0.000003275912
       8       -0.000000739977    -0.000003813392     0.000004785220
       9       -0.000005779658     0.000006682330    -0.000006461612
      10        0.000011670112     0.000007772651     0.000015133871
      11       -0.000011421388    -0.000009523906     0.000002782928
      12        0.000009113262     0.000005361528    -0.000002438507
      13        0.000000167683     0.000003942164    -0.000003139136
      14        0.000006766446    -0.000002851514     0.000004949825
      15        0.000000704019    -0.000004478981    -0.000002397847

  **** Optimization is complete! (in 4 steps) ****
    Final optimized geometry and variables:
    Molecular point group: c1

    Geometry (in Angstrom), charge = 0, multiplicity = 1:

    H           -3.136716281979     0.458184500057    -0.331925744899
    C           -2.344607817601    -0.279278841851    -0.320380694313
    O           -1.131876451262     0.404963343640    -0.314503463277
    H           -2.445972927913    -0.898956342060    -1.209243933179
    H           -2.462273333938    -0.902465180704     0.563082966372
    C           -0.035293189558    -0.354049068473     0.098927717910
    C            1.208057418956     0.516672395977     0.049108410037
    H            0.087990088336    -1.225114229284    -0.546211538560
    H           -0.198563475199    -0.723965273399     1.111541457373
    C            2.463511580998    -0.230976706720     0.496289434242
    H            1.331449778961     0.883650542757    -0.965154006203
    H            1.044456446191     1.385744426662     0.678951199947
    H            2.659065803644    -1.091621526357    -0.137326657825
    H            3.334829137429     0.413813774286     0.452078464692
    H            2.369765922073    -0.587135529018     1.518449939272

  Mulliken Charges: (a.u.)
   Center  Symbol    Alpha    Beta     Spin     Total
       1     H     0.41353  0.41353  0.00000  0.17294
       2     C     3.07844  3.07844  0.00000 -0.15687
       3     O     4.30692  4.30692  0.00000 -0.61384
       4     H     0.42826  0.42826  0.00000  0.14348
       5     H     0.43098  0.43098  0.00000  0.13804
       6     C     2.98152  2.98152  0.00000  0.03695
       7     C     3.15990  3.15990  0.00000 -0.31980
       8     H     0.43374  0.43374  0.00000  0.13252
       9     H     0.43293  0.43293  0.00000  0.13414
      10     C     3.24791  3.24791  0.00000 -0.49582
      11     H     0.41436  0.41436  0.00000  0.17128
      12     H     0.41433  0.41433  0.00000  0.17134
      13     H     0.42085  0.42085  0.00000  0.15831
      14     H     0.41542  0.41542  0.00000  0.16916
      15     H     0.42092  0.42092  0.00000  0.15817

   Total alpha = 21.00000, Total beta = 21.00000, Total charge =  0.00000
