  ==> Input File <==

--------------------------------------------------------------------------
set {
	reference rhf
	basis 6-31G*
}

set_num_threads( 4 )
memory 2 gb

molecule MOL {
0 1

H	 -2.798360	 -0.862255	 -0.071053
N	 -1.863561	 -0.715187	 0.256814
C	 -1.344686	 0.554728	 -0.219830
H	 -1.300452	 -1.461917	 -0.101532
C	 0.081427	 0.741154	 0.254071
H	 -1.362155	 0.656231	 -1.305829
H	 -1.952773	 1.354456	 0.191809
O	 0.874168	 -0.245412	 -0.342030
H	 0.444037	 1.730782	 -0.023037
H	 0.121165	 0.653424	 1.337565
C	 2.027519	 0.236913	 -0.954169
H	 2.553068	 -0.608827	 -1.376330
H	 1.790897	 0.937734	 -1.752819
H	 2.678344	 0.735665	 -0.238989

	symmetry c1
}
set optking {
	frozen_dihedral = ("
		11 8 5 3
	")
}

ee = optimize('scf')
oeprop('DIPOLE', 'QUADRUPOLE', 'MULLIKEN_CHARGES')
f=open( 'psi4out.xyz', 'w' )
f.write( "14  " )
f.write( str(ee) + "\n" )
f.write( MOL.save_string_xyz() )
f.close()
--------------------------------------------------------------------------

    Molecular point group: c1
  Charge       = 0
  Multiplicity = 1
  Basis Set: 6-31G*
  Basis Set:
  @DF-RHF Final Energy:  -248.12080781598087
    Total Energy =                       -248.1208078159808110
    Molecular point group: c1
  Basis Set: 6-31G*
  Basis Set:
  Basis Set: 6-31G*
  Basis Set:
  @DF-RHF Final Energy:  -248.12108481794181
    Total Energy =                       -248.1210848179420054
  Basis Set: 6-31G*
  Basis Set:
  Basis Set: 6-31G*
  Basis Set:
  @DF-RHF Final Energy:  -248.12116845604962
    Total Energy =                       -248.1211684560496451
  Basis Set: 6-31G*
  Basis Set:
  Basis Set: 6-31G*
  Basis Set:
  @DF-RHF Final Energy:  -248.12116985570367
    Total Energy =                       -248.1211698557035561
  Basis Set: 6-31G*
  Basis Set:
  Charge       = 0
  Multiplicity = 1
  Basis Set: 6-31G*
  Basis Set:

    Orbital Energies (a.u.)
    -----------------------

    Doubly Occupied:

       1A    -20.554644     2A    -15.527854     3A    -11.268187
       4A    -11.265743     5A    -11.240571     6A     -1.377334
       7A     -1.173145     8A     -0.998166     9A     -0.911208
      10A     -0.813400    11A     -0.681094    12A     -0.674634
      13A     -0.642391    14A     -0.614335    15A     -0.602524
      16A     -0.541186    17A     -0.533113    18A     -0.500230
      19A     -0.471759    20A     -0.413334    21A     -0.378187

  @DF-RHF Final Energy:  -248.12117009304404

   => Energetics <=

    Nuclear Repulsion Energy =            194.4914144337901689
    One-Electron Energy =                -722.8590960425847243
    Two-Electron Energy =                 280.2465115157506261
    DFT Exchange-Correlation Energy =       0.0000000000000000
    Empirical Dispersion Energy =           0.0000000000000000
    PCM Polarization Energy =               0.0000000000000000
    EFP Energy =                            0.0000000000000000
    Total Energy =                       -248.1211700930439292
    Molecular point group: c1
  Basis Set: 6-31G*
  Basis Set:

  -Total Gradient:
     Atom            X                  Y                   Z
    ------   -----------------  -----------------  -----------------
       1        0.000004644342     0.000012893144     0.000001158232
       2        0.000001105049     0.000005687519    -0.000000989528
       3        0.000180851990     0.000642139990    -0.000842460821
       4        0.000003208905     0.000021076430     0.000004278454
       5       -0.000501395134    -0.000879217826     0.000680715640
       6       -0.000003243539    -0.000007452500     0.000004961128
       7       -0.000014712762    -0.000006605826     0.000000252537
       8        0.000928347829     0.000080185220     0.001208483400
       9        0.000000226018     0.000006355739    -0.000005919556
      10       -0.000005286841     0.000008319615     0.000004520426
      11       -0.000595064361     0.000106460513    -0.001056861381
      12        0.000005669242     0.000006740383    -0.000004364817
      13       -0.000002432170    -0.000000381888     0.000007989797
      14       -0.000001918568     0.000003799487    -0.000001763510

  **** Optimization is complete! (in 5 steps) ****
    Final optimized geometry and variables:
    Molecular point group: c1

    Geometry (in Angstrom), charge = 0, multiplicity = 1:

    H           -2.753849040657    -0.988564136026     0.124728385300
    N           -1.824657640385    -0.827276609729     0.461442028260
    C           -1.325192583479     0.457587936133     0.006063949588
    H           -1.244325682154    -1.559718975114     0.100524980520
    C            0.106208435775     0.650717603426     0.468118895788
    H           -1.355403287152     0.579898687451    -1.078518163349
    H           -1.940289307606     1.241249670964     0.438910249266
    O            0.920607567143    -0.334796289155    -0.115548121736
    H            0.447744926685     1.643623105443     0.186220610846
    H            0.162311293237     0.564050379359     1.548132470806
    C            2.078987679761     0.121128032679    -0.739668579619
    H            2.586298808787    -0.740509495239    -1.152095029964
    H            1.852708837147     0.814159058486    -1.547445510397
    H            2.746610944429     0.615087831001    -0.036969463452

  Mulliken Charges: (a.u.)
   Center  Symbol    Alpha    Beta     Spin     Total
       1     H     0.33301  0.33301  0.00000  0.33399
       2     N     3.92505  3.92505  0.00000 -0.85010
       3     C     3.06477  3.06477  0.00000 -0.12954
       4     H     0.32316  0.32316  0.00000  0.35369
       5     C     2.99273  2.99273  0.00000  0.01454
       6     H     0.43200  0.43200  0.00000  0.13599
       7     H     0.42222  0.42222  0.00000  0.15556
       8     O     4.31222  4.31222  0.00000 -0.62445
       9     H     0.43003  0.43003  0.00000  0.13994
      10     H     0.41485  0.41485  0.00000  0.17030
      11     C     3.07851  3.07851  0.00000 -0.15702
      12     H     0.41301  0.41301  0.00000  0.17399
      13     H     0.43022  0.43022  0.00000  0.13955
      14     H     0.42822  0.42822  0.00000  0.14356

   Total alpha = 21.00000, Total beta = 21.00000, Total charge =  0.00000
