  ==> Input File <==

--------------------------------------------------------------------------
set {
	reference rhf
	basis 6-31G*
}

set_num_threads( 4 )
memory 2 gb

molecule MOL {
0 1

H	 -2.646374	 -0.642757	 1.268656
C	 -2.083525	 -0.384536	 0.393091
O	 -0.807605	 -0.127164	 0.768327
F	 -2.118945	 -1.383102	 -0.486752
F	 -2.621877	 0.670592	 -0.209486
C	 0.084052	 0.273579	 -0.209957
C	 0.511652	 -0.979898	 -0.962361
Cl	 1.488312	 1.079849	 0.507816
H	 -0.359610	 0.955839	 -0.913845
F	 1.356243	 -0.673020	 -1.923938
F	 -0.553125	 -1.528493	 -1.512572
F	 1.072980	 -1.863241	 -0.173316

	symmetry c1
}
set optking {
	frozen_dihedral = ("
		9 6 3 2
	")
}

ee = optimize('scf')
oeprop('DIPOLE', 'QUADRUPOLE', 'MULLIKEN_CHARGES')
f=open( 'psi4out.xyz', 'w' )
f.write( "12  " )
f.write( str(ee) + "\n" )
f.write( MOL.save_string_xyz() )
f.close()
--------------------------------------------------------------------------

    Molecular point group: c1
  Charge       = 0
  Multiplicity = 1
  Basis Set: 6-31G*
  Basis Set:
  @DF-RHF Final Energy: -1146.26526035493953
    Total Energy =                      -1146.2652603549404375
    Molecular point group: c1
  Basis Set: 6-31G*
  Basis Set:
  Basis Set: 6-31G*
  Basis Set:
  @DF-RHF Final Energy: -1146.29152238478400
    Total Energy =                      -1146.2915223847840025
  Basis Set: 6-31G*
  Basis Set:
  Basis Set: 6-31G*
  Basis Set:
  @DF-RHF Final Energy: -1146.30046306274380
    Total Energy =                      -1146.3004630627442566
  Basis Set: 6-31G*
  Basis Set:
  Basis Set: 6-31G*
  Basis Set:
  @DF-RHF Final Energy: -1146.30541412797947
    Total Energy =                      -1146.3054141279785654
  Basis Set: 6-31G*
  Basis Set:
  @DF-RHF Final Energy: -1146.30757511339652
    Total Energy =                      -1146.3075751133965241
  @DF-RHF Final Energy: -1146.30810750523369
    Total Energy =                      -1146.3081075052341475
  @DF-RHF Final Energy: -1146.30821703125139
    Total Energy =                      -1146.3082170312513881
  @DF-RHF Final Energy: -1146.30825204209168
    Total Energy =                      -1146.3082520420916808
  Basis Set: 6-31G*
  Basis Set:
  @DF-RHF Final Energy: -1146.30826091002882
    Total Energy =                      -1146.3082609100283662
  Basis Set: 6-31G*
  Basis Set:
  Basis Set: 6-31G*
  Basis Set:
  @DF-RHF Final Energy: -1146.30826564600557
    Total Energy =                      -1146.3082656460053386
  Basis Set: 6-31G*
  Basis Set:
  Basis Set: 6-31G*
  Basis Set:
  @DF-RHF Final Energy: -1146.30826788353716
    Total Energy =                      -1146.3082678835371553
  Basis Set: 6-31G*
  Basis Set:
  Charge       = 0
  Multiplicity = 1
  Basis Set: 6-31G*
  Basis Set:

    Orbital Energies (a.u.)
    -----------------------

    Doubly Occupied:

       1A   -104.846330     2A    -26.359114     3A    -26.359031
       4A    -26.357459     5A    -26.350450     6A    -26.339773
       7A    -20.645718     8A    -11.526758     9A    -11.489052
      10A    -11.401634    11A    -10.580927    12A     -8.050317
      13A     -8.046717    14A     -8.046630    15A     -1.761077
      16A     -1.716042    17A     -1.657159    18A     -1.656122
      19A     -1.638116    20A     -1.479344    21A     -1.182380
      22A     -1.044666    23A     -0.991180    24A     -0.918396
      25A     -0.852811    26A     -0.848989    27A     -0.844013
      28A     -0.833994    29A     -0.816427    30A     -0.788378
      31A     -0.726188    32A     -0.724251    33A     -0.707010
      34A     -0.693545    35A     -0.676406    36A     -0.673859
      37A     -0.659367    38A     -0.656551    39A     -0.645670
      40A     -0.639634    41A     -0.591634    42A     -0.563521
      43A     -0.527449    44A     -0.479662    45A     -0.469385

  @DF-RHF Final Energy: -1146.30826818432547

   => Energetics <=

    Nuclear Repulsion Energy =            744.6740709257130675
    One-Electron Energy =               -3072.2384032664867846
    Two-Electron Energy =                1181.2560641564473372
    DFT Exchange-Correlation Energy =       0.0000000000000000
    Empirical Dispersion Energy =           0.0000000000000000
    PCM Polarization Energy =               0.0000000000000000
    EFP Energy =                            0.0000000000000000
    Total Energy =                      -1146.3082681843266073
    Molecular point group: c1
  Basis Set: 6-31G*
  Basis Set:

  -Total Gradient:
     Atom            X                  Y                   Z
    ------   -----------------  -----------------  -----------------
       1        0.000008537367    -0.000011502140    -0.000000886584
       2        0.000505390047    -0.002314791166    -0.000548710047
       3       -0.000485424014     0.004065515374     0.001351146811
       4        0.000000053856     0.000003895990     0.000015612566
       5       -0.000006271915     0.000025197701    -0.000023583192
       6       -0.000874123394    -0.003779487629    -0.002422780281
       7       -0.000083452560    -0.000026367177    -0.000023177765
       8       -0.000023815096    -0.000011470470    -0.000020625605
       9        0.000909883786     0.002016326309     0.001673208305
      10        0.000061367768     0.000022272549     0.000000318384
      11       -0.000011171481    -0.000018991750     0.000005644578
      12       -0.000000974393     0.000029402426    -0.000006167192

  **** Optimization is complete! (in 12 steps) ****
    Final optimized geometry and variables:
    Molecular point group: c1

    Geometry (in Angstrom), charge = 0, multiplicity = 1:

    H           -2.487758048400     0.123565873136     1.721986002121
    C           -1.946061181043     0.026870086790     0.800920688614
    O           -0.629235148467     0.223498797135     1.072926510609
    F           -2.161491697278    -1.175404635513     0.287517518901
    F           -2.388726987669     0.918935862791    -0.083155411150
    C            0.269893181628     0.629355762124     0.096542741656
    C            0.788533207989    -0.541919223302    -0.735628698935
    CL           1.615360785722     1.403162376050     0.945666270752
    H           -0.155816032747     1.369078756286    -0.557944169680
    F            1.748048306336    -0.137156622013    -1.540994512825
    F           -0.186754693792    -1.015149954679    -1.486068582210
    F            1.246311609142    -1.513461117989     0.014812393559

  Mulliken Charges: (a.u.)
   Center  Symbol    Alpha    Beta     Spin     Total
       1     H     0.40509  0.40509  0.00000  0.18981
       2     C     2.56260  2.56260  0.00000  0.87480
       3     O     4.30622  4.30622  0.00000 -0.61245
       4     F     4.67890  4.67890  0.00000 -0.35780
       5     F     4.68691  4.68691  0.00000 -0.37382
       6     C     3.04491  3.04491  0.00000 -0.08983
       7     C     2.44055  2.44055  0.00000  1.11890
       8    CL     8.49449  8.49449  0.00000  0.01102
       9     H     0.36586  0.36586  0.00000  0.26828
      10     F     4.67295  4.67295  0.00000 -0.34591
      11     F     4.67461  4.67461  0.00000 -0.34921
      12     F     4.66690  4.66690  0.00000 -0.33380

   Total alpha = 45.00000, Total beta = 45.00000, Total charge =  0.00000
