  ==> Input File <==

--------------------------------------------------------------------------
set {
	reference rhf
	basis 6-31G*
}

set_num_threads( 1 )
memory 2 gb

molecule MOL {
0 1

H	 2.230280	 -1.068119	 0.905445
O	 2.016064	 -0.864478	 0.000222
C	 1.050492	 0.053836	 0.000068
C	 -0.318135	 -0.576402	 0.000164
O	 1.285279	 1.218255	 -0.000078
C	 -1.454360	 0.441875	 -0.000474
H	 -0.374042	 -1.230163	 -0.866135
H	 -0.374274	 -1.229227	 0.867154
C	 -2.826123	 -0.230780	 0.000056
H	 -1.357605	 1.085198	 -0.868380
H	 -1.357504	 1.086451	 0.866496
H	 -2.959731	 -0.858053	 -0.876869
H	 -3.619374	 0.509403	 -0.000080
H	 -2.959371	 -0.857318	 0.877556

	symmetry c1
}
set optking {
	frozen_dihedral = ("
		7 4 6 10,
		2 3 4 7
	")
}

ee = energy('scf')
oeprop('DIPOLE', 'QUADRUPOLE', 'MULLIKEN_CHARGES')
f=open( 'psi4out.xyz', 'w' )
f.write( "14  " )
f.write( str(ee) + "\n" )
f.write( MOL.save_string_xyz() )
f.close()
--------------------------------------------------------------------------

    Molecular point group: c1

    Geometry (in Angstrom), charge = 0, multiplicity = 1:

       Center              X                  Y                   Z               Mass
    ------------   -----------------  -----------------  -----------------  -----------------
           H          2.237420312522    -1.060613318661     0.895083657443     1.007825032070
           O          2.023204312522    -0.856972318661    -0.010139342557    15.994914619560
           C          1.057632312522     0.061341681339    -0.010293342557    12.000000000000
           C         -0.310994687478    -0.568896318661    -0.010197342557    12.000000000000
           O          1.292419312522     1.225760681339    -0.010439342557    15.994914619560
           C         -1.447219687478     0.449380681339    -0.010835342557    12.000000000000
           H         -0.366901687478    -1.222657318661    -0.876496342557     1.007825032070
           H         -0.367133687478    -1.221721318661     0.856792657443     1.007825032070
           C         -2.818982687478    -0.223274318661    -0.010305342557    12.000000000000
           H         -1.350464687478     1.092703681339    -0.878741342557     1.007825032070
           H         -1.350363687478     1.093956681339     0.856134657443     1.007825032070
           H         -2.952590687478    -0.850547318661    -0.887230342557     1.007825032070
           H         -3.612233687478     0.516908681339    -0.010441342557     1.007825032070
           H         -2.952230687478    -0.849812318661     0.867194657443     1.007825032070

  Charge       = 0
  Multiplicity = 1
  Basis Set: 6-31G*
  Basis Set:

    Orbital Energies (a.u.)
    -----------------------

    Doubly Occupied:

       1A    -20.598414     2A    -20.560762     3A    -11.380407
       4A    -11.242700     5A    -11.226230     6A    -11.218274
       7A     -1.469305     8A     -1.369482     9A     -1.083472
      10A     -0.976819    11A     -0.852354    12A     -0.801237
      13A     -0.713363    14A     -0.679293    15A     -0.664695
      16A     -0.634117    17A     -0.579027    18A     -0.559957
      19A     -0.543929    20A     -0.501735    21A     -0.497873
      22A     -0.484157    23A     -0.479840    24A     -0.444474

  @DF-RHF Final Energy:  -305.85768473019141

   => Energetics <=

    Nuclear Repulsion Energy =            240.0612400699800730
    One-Electron Energy =                -892.7140778670807322
    Two-Electron Energy =                 346.7951530669093927
    DFT Exchange-Correlation Energy =       0.0000000000000000
    Empirical Dispersion Energy =           0.0000000000000000
    PCM Polarization Energy =               0.0000000000000000
    EFP Energy =                            0.0000000000000000
    Total Energy =                       -305.8576847301912949

  Mulliken Charges: (a.u.)
   Center  Symbol    Alpha    Beta     Spin     Total
       1     H     0.26529  0.26529  0.00000  0.46943
       2     O     4.35715  4.35715  0.00000 -0.71430
       3     C     2.63614  2.63614  0.00000  0.72772
       4     C     3.20854  3.20854  0.00000 -0.41709
       5     O     4.25157  4.25157  0.00000 -0.50315
       6     C     3.15309  3.15309  0.00000 -0.30617
       7     H     0.39716  0.39716  0.00000  0.20568
       8     H     0.41063  0.41063  0.00000  0.17873
       9     C     3.24271  3.24271  0.00000 -0.48542
      10     H     0.40881  0.40881  0.00000  0.18238
      11     H     0.41186  0.41186  0.00000  0.17627
      12     H     0.42053  0.42053  0.00000  0.15893
      13     H     0.41434  0.41434  0.00000  0.17132
      14     H     0.42218  0.42218  0.00000  0.15565

   Total alpha = 24.00000, Total beta = 24.00000, Total charge =  0.00000
