  ==> Input File <==

--------------------------------------------------------------------------
set {
	reference rhf
	basis 6-31G*
}

set_num_threads( 4 )
memory 2 gb

molecule MOL {
0 1

O	 0.631232	 0.026241	 -2.345409
C	 0.146714	 0.469057	 -1.338504
C	 -1.016988	 1.439521	 -1.416513
N	 0.623947	 0.147590	 -0.102813
H	 -0.773702	 2.389848	 -0.954156
H	 -1.234033	 1.599501	 -2.461666
H	 -1.900222	 1.043422	 -0.927040
C	 1.665360	 -0.855771	 0.000151
C	 -0.052466	 0.467325	 1.135120
H	 2.465253	 -0.618490	 -0.692587
H	 1.257730	 -1.821716	 -0.242189
H	 2.081488	 -0.891645	 1.004627
H	 0.686213	 0.625117	 1.911969
H	 -0.632706	 1.372156	 1.048304
H	 -0.711545	 -0.336760	 1.457416

	symmetry c1
}
set optking {
	frozen_dihedral = ("
		2 4 8 10
	")
}

ee = optimize('scf')
oeprop('DIPOLE', 'QUADRUPOLE', 'MULLIKEN_CHARGES')
f=open( 'psi4out.xyz', 'w' )
f.write( "15  " )
f.write( str(ee) + "\n" )
f.write( MOL.save_string_xyz() )
f.close()
--------------------------------------------------------------------------

    Molecular point group: c1
  Charge       = 0
  Multiplicity = 1
  Basis Set: 6-31G*
  Basis Set:
  @DF-RHF Final Energy:  -286.02840597309182
    Total Energy =                       -286.0284059730920490
    Molecular point group: c1
  Basis Set: 6-31G*
  Basis Set:
  Basis Set: 6-31G*
  Basis Set:
  @DF-RHF Final Energy:  -286.02923186658376
    Total Energy =                       -286.0292318665837570
  Basis Set: 6-31G*
  Basis Set:
  Basis Set: 6-31G*
  Basis Set:
  @DF-RHF Final Energy:  -286.02930324008366
    Total Energy =                       -286.0293032400837774
  Basis Set: 6-31G*
  Basis Set:
  Basis Set: 6-31G*
  Basis Set:
  @DF-RHF Final Energy:  -286.02935275220688
    Total Energy =                       -286.0293527522070463
  Basis Set: 6-31G*
  Basis Set:
  Basis Set: 6-31G*
  Basis Set:
  @DF-RHF Final Energy:  -286.02941472520229
    Total Energy =                       -286.0294147252021162
  Basis Set: 6-31G*
  Basis Set:
  Basis Set: 6-31G*
  Basis Set:
  @DF-RHF Final Energy:  -286.02942168791867
    Total Energy =                       -286.0294216879186706
  Basis Set: 6-31G*
  Basis Set:
  Basis Set: 6-31G*
  Basis Set:
  @DF-RHF Final Energy:  -286.02942709704234
    Total Energy =                       -286.0294270970421167
  Basis Set: 6-31G*
  Basis Set:
  Charge       = 0
  Multiplicity = 1
  Basis Set: 6-31G*
  Basis Set:

    Orbital Energies (a.u.)
    -----------------------

    Doubly Occupied:

       1A    -20.515525     2A    -15.582884     3A    -11.340024
       4A    -11.266637     5A    -11.248253     6A    -11.228458
       7A     -1.385224     8A     -1.242189     9A     -1.013811
      10A     -0.973015    11A     -0.917807    12A     -0.737147
      13A     -0.679954    14A     -0.658175    15A     -0.651236
      16A     -0.588265    17A     -0.576079    18A     -0.569567
      19A     -0.564173    20A     -0.545544    21A     -0.529734
      22A     -0.500147    23A     -0.411120    24A     -0.367516

  @DF-RHF Final Energy:  -286.02942780626194

   => Energetics <=

    Nuclear Repulsion Energy =            252.6040442873969027
    One-Electron Energy =                -889.0819774126276798
    Two-Electron Energy =                 350.4485053189688415
    DFT Exchange-Correlation Energy =       0.0000000000000000
    Empirical Dispersion Energy =           0.0000000000000000
    PCM Polarization Energy =               0.0000000000000000
    EFP Energy =                            0.0000000000000000
    Total Energy =                       -286.0294278062618787
    Molecular point group: c1
  Basis Set: 6-31G*
  Basis Set:

  -Total Gradient:
     Atom            X                  Y                   Z
    ------   -----------------  -----------------  -----------------
       1        0.000027688885    -0.000019729059     0.000015445728
       2       -0.000587137754    -0.000568939079     0.000135201513
       3        0.000050793419     0.000066016411     0.000007908866
       4        0.000854904003     0.000954780396    -0.000038357271
       5       -0.000024892684     0.000001081697    -0.000002338530
       6       -0.000001790354    -0.000007820011     0.000005843741
       7       -0.000005789394    -0.000019334040     0.000004290707
       8       -0.000830307251    -0.000903673838    -0.000764252507
       9        0.000034430265     0.000002678031    -0.000022423384
      10        0.000486749801     0.000503789394     0.000655535268
      11       -0.000002105316     0.000005244775     0.000003330103
      12        0.000010092168    -0.000001650510    -0.000007683988
      13        0.000004599860     0.000013028866     0.000004385707
      14       -0.000026044671    -0.000013712014     0.000002269808
      15        0.000008809023    -0.000011761019     0.000000844244

  **** Optimization is complete! (in 8 steps) ****
    Final optimized geometry and variables:
    Molecular point group: c1

    Geometry (in Angstrom), charge = 0, multiplicity = 1:

    O            0.284968671940    -0.292540265371    -1.653637970220
    C           -0.187775686549     0.192104739501    -0.660826546549
    C           -1.342398730829     1.170644412836    -0.757759345125
    N            0.310802678110    -0.095213974975     0.575188746450
    H           -1.104987079616     2.117233522363    -0.285201140125
    H           -1.540393457792     1.335322833608    -1.806088932076
    H           -2.236559112062     0.774695556676    -0.287717133906
    C            1.334053223490    -1.124464412688     0.638829956498
    C           -0.395887624064     0.188784172250     1.806442066718
    H            2.105951538347    -0.922337857255    -0.087021574498
    H            0.927678479066    -2.112627065601     0.443938609046
    H            1.773514871140    -1.117169368253     1.627930206972
    H            0.322079052183     0.348056962635     2.601205131469
    H           -0.987943667873     1.086104487956     1.718785922213
    H           -1.051453943167    -0.628552820836     2.102153720024

  Mulliken Charges: (a.u.)
   Center  Symbol    Alpha    Beta     Spin     Total
       1     O     4.30285  4.30285  0.00000 -0.60570
       2     C     2.62632  2.62632  0.00000  0.74736
       3     C     3.29802  3.29802  0.00000 -0.59603
       4     N     3.82176  3.82176  0.00000 -0.64352
       5     H     0.40653  0.40653  0.00000  0.18695
       6     H     0.39069  0.39069  0.00000  0.21861
       7     H     0.40760  0.40760  0.00000  0.18479
       8     C     3.13824  3.13824  0.00000 -0.27647
       9     C     3.14291  3.14291  0.00000 -0.28583
      10     H     0.39595  0.39595  0.00000  0.20810
      11     H     0.41481  0.41481  0.00000  0.17037
      12     H     0.41991  0.41991  0.00000  0.16019
      13     H     0.40971  0.40971  0.00000  0.18058
      14     H     0.40755  0.40755  0.00000  0.18491
      15     H     0.41715  0.41715  0.00000  0.16569

   Total alpha = 24.00000, Total beta = 24.00000, Total charge =  0.00000
