  ==> Input File <==

--------------------------------------------------------------------------
set {
	reference rhf
	basis 6-31G*
}

set_num_threads( 4 )
memory 2 gb

molecule MOL {
0 1

O	 -0.682937	 1.318834	 -0.186099
C	 -0.860635	 0.152188	 -0.042321
C	 -2.173363	 -0.477127	 0.338347
O	 0.083258	 -0.765189	 -0.202595
H	 -2.477673	 -1.180929	 -0.427595
H	 -2.923125	 0.290956	 0.455536
H	 -2.058825	 -1.029004	 1.264191
C	 -0.302248	 -2.064933	 -0.644010
C	 -0.432749	 -2.123567	 -2.154698
H	 -1.225132	 -2.345084	 -0.159303
H	 0.489057	 -2.714332	 -0.298153
H	 -0.651989	 -3.140578	 -2.465104
H	 -1.235365	 -1.482906	 -2.497814
H	 0.491940	 -1.814201	 -2.629734

	symmetry c1
}
set optking {
	frozen_dihedral = ("
		8 4 2 1
	")
}

ee = optimize('scf')
oeprop('DIPOLE', 'QUADRUPOLE', 'MULLIKEN_CHARGES')
f=open( 'psi4out.xyz', 'w' )
f.write( "14  " )
f.write( str(ee) + "\n" )
f.write( MOL.save_string_xyz() )
f.close()
--------------------------------------------------------------------------

    Molecular point group: c1
  Charge       = 0
  Multiplicity = 1
  Basis Set: 6-31G*
  Basis Set:
  @DF-RHF Final Energy:  -305.84721285702210
    Total Energy =                       -305.8472128570219866
    Molecular point group: c1
  Basis Set: 6-31G*
  Basis Set:
  Basis Set: 6-31G*
  Basis Set:
  @DF-RHF Final Energy:  -305.85447097192025
    Total Energy =                       -305.8544709719204775
  Basis Set: 6-31G*
  Basis Set:
  Basis Set: 6-31G*
  Basis Set:
  @DF-RHF Final Energy:  -305.85785868440769
    Total Energy =                       -305.8578586844075744
  Basis Set: 6-31G*
  Basis Set:
  Basis Set: 6-31G*
  Basis Set:
  @DF-RHF Final Energy:  -305.85863112322761
    Total Energy =                       -305.8586311232276103
  Basis Set: 6-31G*
  Basis Set:
  @DF-RHF Final Energy:  -305.85880296502063
    Total Energy =                       -305.8588029650204589
  @DF-RHF Final Energy:  -305.85885661161160
    Total Energy =                       -305.8588566116117704
  Basis Set: 6-31G*
  Basis Set:
  @DF-RHF Final Energy:  -305.85888950606056
    Total Energy =                       -305.8588895060604500
  Basis Set: 6-31G*
  Basis Set:
  Basis Set: 6-31G*
  Basis Set:
  @DF-RHF Final Energy:  -305.85890198393480
    Total Energy =                       -305.8589019839351408
  Basis Set: 6-31G*
  Basis Set:
  Basis Set: 6-31G*
  Basis Set:
  @DF-RHF Final Energy:  -305.85890338544891
    Total Energy =                       -305.8589033854489116
  Basis Set: 6-31G*
  Basis Set:
  Charge       = 0
  Multiplicity = 1
  Basis Set: 6-31G*
  Basis Set:

    Orbital Energies (a.u.)
    -----------------------

    Doubly Occupied:

       1A    -20.596927     2A    -20.542226     3A    -11.376722
       4A    -11.300417     5A    -11.242351     6A    -11.232086
       7A     -1.461257     8A     -1.365492     9A     -1.049086
      10A     -1.017308    11A     -0.898191    12A     -0.771070
      13A     -0.696968    14A     -0.687165    15A     -0.666030
      16A     -0.616461    17A     -0.597112    18A     -0.584202
      19A     -0.555680    20A     -0.544003    21A     -0.525796
      22A     -0.496600    23A     -0.446509    24A     -0.434008

  @DF-RHF Final Energy:  -305.85890349649799

   => Energetics <=

    Nuclear Repulsion Energy =            248.3595006551656752
    One-Electron Energy =                -909.0294699346176230
    Two-Electron Energy =                 354.8110657829539605
    DFT Exchange-Correlation Energy =       0.0000000000000000
    Empirical Dispersion Energy =           0.0000000000000000
    PCM Polarization Energy =               0.0000000000000000
    EFP Energy =                            0.0000000000000000
    Total Energy =                       -305.8589034964979874
    Molecular point group: c1
  Basis Set: 6-31G*
  Basis Set:

  -Total Gradient:
     Atom            X                  Y                   Z
    ------   -----------------  -----------------  -----------------
       1       -0.000565144026    -0.000170324520    -0.002372143969
       2        0.000972655815     0.000631551691     0.002263258893
       3        0.000003257726    -0.000004635298     0.000004441651
       4       -0.000681709704    -0.001080830540     0.002105921715
       5        0.000000956094     0.000000214130    -0.000000973959
       6       -0.000002711731     0.000000275044     0.000000136074
       7        0.000001428680     0.000003326128    -0.000002509488
       8        0.000250715858     0.000622198925    -0.001994969842
       9        0.000013893980    -0.000002535256     0.000001958672
      10        0.000002821054    -0.000005870672    -0.000001291645
      11        0.000000709009     0.000005031766    -0.000005214278
      12        0.000000509230    -0.000001601604     0.000000759305
      13        0.000001495707     0.000000210142     0.000007163774
      14        0.000001122304     0.000002990063    -0.000006536903

  **** Optimization is complete! (in 10 steps) ****
    Final optimized geometry and variables:
    Molecular point group: c1

    Geometry (in Angstrom), charge = 0, multiplicity = 1:

    O            0.086875321439     1.946300278305     0.299782982841
    C           -0.169875108078     0.800373993026     0.444330244157
    C           -1.545496778271     0.320498605828     0.851680135483
    O            0.788700230461    -0.118569354202     0.286752120115
    H           -2.027381092535    -0.226084761389     0.048671733634
    H           -2.143223006061     1.186729790216     1.090934810167
    H           -1.487414594542    -0.332998116961     1.714739164386
    C            0.527289183251    -1.434136886300    -0.166955436730
    C            0.333219038084    -1.475928725214    -1.672970598873
    H           -0.321368376621    -1.860583768170     0.352974488999
    H            1.402006994823    -2.000808645931     0.116442518360
    H            0.213922207339    -2.502774917548    -2.004185833130
    H           -0.547198736298    -0.919648780971    -1.978658552989
    H            1.193352412956    -1.047632232606    -2.173345517435

  Mulliken Charges: (a.u.)
   Center  Symbol    Alpha    Beta     Spin     Total
       1     O     4.26107  4.26107  0.00000 -0.52214
       2     C     2.61681  2.61681  0.00000  0.76638
       3     C     3.30821  3.30821  0.00000 -0.61641
       4     O     4.30418  4.30418  0.00000 -0.60836
       5     H     0.40374  0.40374  0.00000  0.19252
       6     H     0.38805  0.38805  0.00000  0.22390
       7     H     0.40196  0.40196  0.00000  0.19608
       8     C     3.00804  3.00804  0.00000 -0.01609
       9     C     3.25165  3.25165  0.00000 -0.50331
      10     H     0.41843  0.41843  0.00000  0.16313
      11     H     0.40287  0.40287  0.00000  0.19427
      12     H     0.41572  0.41572  0.00000  0.16856
      13     H     0.41657  0.41657  0.00000  0.16687
      14     H     0.40270  0.40270  0.00000  0.19459

   Total alpha = 24.00000, Total beta = 24.00000, Total charge = -0.00000
