  ==> Input File <==

--------------------------------------------------------------------------
set {
	reference rhf
	basis cc-pvtz
}

set_num_threads( 4 )
memory 2 gb

molecule MOL {
0 1

H	 -2.266619	 1.169943	 0.000098
O	 -1.438073	 1.611259	 0.000041
C	 -0.408657	 0.734701	 0.000005
C	 0.066917	 0.329833	 1.233423
C	 0.155216	 0.254423	 -1.176215
H	 -0.394872	 0.723135	 2.117727
C	 1.115107	 -0.562729	 1.308253
C	 1.207023	 -0.641217	 -1.071047
C	 -0.364920	 0.697208	 -2.521429
H	 1.479026	 -0.872533	 2.269275
C	 1.692436	 -1.054440	 0.153549
H	 1.653686	 -1.021646	 -1.970899
H	 -0.272458	 1.771330	 -2.655714
H	 0.189696	 0.224843	 -3.319372
H	 -1.410605	 0.434770	 -2.655574
H	 2.508137	 -1.749026	 0.204053

	symmetry c1
}
set optking {
	frozen_dihedral = ("
		4 3 2 1
	")
}

ee = optimize('scf')
oeprop('DIPOLE', 'QUADRUPOLE', 'MULLIKEN_CHARGES')
f=open( 'psi4out.xyz', 'w' )
f.write( "16  " )
f.write( str(ee) + "\n" )
f.write( MOL.save_string_xyz() )
f.close()
--------------------------------------------------------------------------

    Molecular point group: c1
  Charge       = 0
  Multiplicity = 1
  Basis Set: CC-PVTZ
  Basis Set:
  @DF-RHF Final Energy:  -344.71501328596912
    Total Energy =                       -344.7150132859695191
    Molecular point group: c1
  Basis Set: CC-PVTZ
  Basis Set:
  Basis Set: CC-PVTZ
  Basis Set:
  @DF-RHF Final Energy:  -344.71602121423251
    Total Energy =                       -344.7160212142323985
  Basis Set: CC-PVTZ
  Basis Set:
  Basis Set: CC-PVTZ
  Basis Set:
  @DF-RHF Final Energy:  -344.71609494320711
    Total Energy =                       -344.7160949432070538
  Basis Set: CC-PVTZ
  Basis Set:
  Basis Set: CC-PVTZ
  Basis Set:
  @DF-RHF Final Energy:  -344.71610450704480
    Total Energy =                       -344.7161045070450882
  Basis Set: CC-PVTZ
  Basis Set:
  Basis Set: CC-PVTZ
  Basis Set:
  @DF-RHF Final Energy:  -344.71610690343761
    Total Energy =                       -344.7161069034374350
  Basis Set: CC-PVTZ
  Basis Set:
  Charge       = 0
  Multiplicity = 1
  Basis Set: CC-PVTZ
  Basis Set:

    Orbital Energies (a.u.)
    -----------------------

    Doubly Occupied:

       1A    -20.569568     2A    -11.282386     3A    -11.233532
       4A    -11.227098     5A    -11.226121     6A    -11.223135
       7A    -11.222916     8A    -11.218245     9A     -1.395756
      10A     -1.153577    11A     -1.048179    12A     -1.006981
      13A     -0.935321    14A     -0.833021    15A     -0.808880
      16A     -0.730165    17A     -0.669909    18A     -0.659920
      19A     -0.625398    20A     -0.594074    21A     -0.573710
      22A     -0.567792    23A     -0.546247    24A     -0.521286
      25A     -0.502805    26A     -0.487931    27A     -0.465964
      28A     -0.333708    29A     -0.322491

  @DF-RHF Final Energy:  -344.71610761289872

   => Energetics <=

    Nuclear Repulsion Energy =            350.4322101440353094
    One-Electron Energy =               -1162.3244056921059837
    Two-Electron Energy =                 467.1760879351715516
    DFT Exchange-Correlation Energy =       0.0000000000000000
    Empirical Dispersion Energy =           0.0000000000000000
    PCM Polarization Energy =               0.0000000000000000
    EFP Energy =                            0.0000000000000000
    Total Energy =                       -344.7161076128991795
    Molecular point group: c1
  Basis Set: CC-PVTZ
  Basis Set:

  -Total Gradient:
     Atom            X                  Y                   Z
    ------   -----------------  -----------------  -----------------
       1        0.000012326618     0.000001370818    -0.000046375307
       2       -0.000100332602     0.000092862191     0.000058813581
       3        0.000092767623    -0.000154196199    -0.000026459357
       4       -0.000066922171     0.000099011058     0.000033007675
       5        0.000023180319    -0.000003985262    -0.000021477767
       6        0.000014138629    -0.000009262077    -0.000025129440
       7        0.000067181794    -0.000062817981    -0.000033530863
       8       -0.000078231706     0.000059874501    -0.000034201374
       9       -0.000008301391    -0.000035622608     0.000026543306
      10        0.000008207186    -0.000009906002     0.000008018734
      11        0.000018490780     0.000004759316     0.000079131573
      12        0.000002373756    -0.000004791986    -0.000008768796
      13        0.000017656243     0.000012315046    -0.000004560252
      14        0.000002232165     0.000003722849    -0.000011540588
      15        0.000003950748     0.000003381967     0.000007315965
      16       -0.000008717995     0.000003284374    -0.000000787091

  **** Optimization is complete! (in 6 steps) ****
    Final optimized geometry and variables:
    Molecular point group: c1

    Geometry (in Angstrom), charge = 0, multiplicity = 1:

    H           -2.449160423491     0.992621101865     0.242961049835
    O           -1.611442216666     1.421716240339     0.236042105788
    C           -0.596426945442     0.502854581423     0.295612833962
    C           -0.116192430643     0.107529380031     1.526404296488
    C           -0.034981068302     0.027441695191    -0.882661253954
    H           -0.566376391997     0.512540732181     2.412109470527
    C            0.935034517773    -0.786675185707     1.605545485130
    C            1.018296520056    -0.865904287401    -0.780557591668
    C           -0.559868261076     0.480447632301    -2.220116600011
    H            1.306388496956    -1.092263173777     2.564864060638
    C            1.503231029501    -1.276059458765     0.448033680261
    H            1.468392854952    -1.245865181471    -1.678618770899
    H           -0.535148448769     1.559510860320    -2.301928677140
    H            0.029644807789     0.060966812658    -3.023997075042
    H           -1.589608004407     0.172786528246    -2.365943125187
    H            2.321737997244    -1.968252563080     0.496542287600

  Mulliken Charges: (a.u.)
   Center  Symbol    Alpha    Beta     Spin     Total
       1     H     0.39025  0.39025  0.00000  0.21949
       2     O     4.18901  4.18901  0.00000 -0.37802
       3     C     2.88684  2.88684  0.00000  0.22631
       4     C     3.10747  3.10747  0.00000 -0.21494
       5     C     2.99298  2.99298  0.00000  0.01404
       6     H     0.41859  0.41859  0.00000  0.16281
       7     C     3.07739  3.07739  0.00000 -0.15479
       8     C     3.09509  3.09509  0.00000 -0.19019
       9     C     3.14423  3.14423  0.00000 -0.28847
      10     H     0.42205  0.42205  0.00000  0.15589
      11     C     3.07880  3.07880  0.00000 -0.15761
      12     H     0.42443  0.42443  0.00000  0.15114
      13     H     0.44144  0.44144  0.00000  0.11713
      14     H     0.45211  0.45211  0.00000  0.09578
      15     H     0.45532  0.45532  0.00000  0.08937
      16     H     0.42397  0.42397  0.00000  0.15206

   Total alpha = 29.00000, Total beta = 29.00000, Total charge = -0.00000
