  ==> Input File <==

--------------------------------------------------------------------------
set {
	reference rhf
	basis 6-31G*
}

set_num_threads( 4 )
memory 2 gb

molecule MOL {
0 1

H	 -4.236494	 0.538104	 0.039757
O	 -3.517110	 -0.026191	 -0.205115
C	 -2.306886	 0.532354	 0.237577
C	 -1.177863	 -0.397191	 -0.171080
H	 -2.156308	 1.517575	 -0.201710
H	 -2.315015	 0.655684	 1.319734
C	 0.198102	 0.111031	 0.262842
H	 -1.208843	 -0.518759	 -1.250427
H	 -1.368741	 -1.376554	 0.258909
C	 1.331804	 -0.827780	 -0.158768
H	 0.361943	 1.100838	 -0.156218
H	 0.217265	 0.229072	 1.345532
C	 2.723619	 -0.410569	 0.329459
H	 1.342964	 -0.912588	 -1.244120
H	 1.116806	 -1.824343	 0.220779
C	 2.915335	 -0.486965	 1.845290
H	 2.909174	 0.610746	 0.006079
H	 3.475937	 -1.024778	 -0.161386
H	 2.168255	 0.108342	 2.363479
H	 2.841190	 -1.504718	 2.213879
H	 3.892682	 -0.109113	 2.129500

	symmetry c1
}
set optking {
	frozen_dihedral = ("
		16 13 10 14
	")
}

ee = optimize('scf')
oeprop('DIPOLE', 'QUADRUPOLE', 'MULLIKEN_CHARGES')
f=open( 'psi4out.xyz', 'w' )
f.write( "21  " )
f.write( str(ee) + "\n" )
f.write( MOL.save_string_xyz() )
f.close()
--------------------------------------------------------------------------

    Molecular point group: c1
  Charge       = 0
  Multiplicity = 1
  Basis Set: 6-31G*
  Basis Set:
  @DF-RHF Final Energy:  -310.21220748657714
    Total Energy =                       -310.2122074865774266
    Molecular point group: c1
  Basis Set: 6-31G*
  Basis Set:
  Basis Set: 6-31G*
  Basis Set:
  @DF-RHF Final Energy:  -310.21251345886020
    Total Energy =                       -310.2125134588603146
  Basis Set: 6-31G*
  Basis Set:
  Basis Set: 6-31G*
  Basis Set:
  @DF-RHF Final Energy:  -310.21278965620104
    Total Energy =                       -310.2127896562012666
  Basis Set: 6-31G*
  Basis Set:
  Basis Set: 6-31G*
  Basis Set:
  @DF-RHF Final Energy:  -310.21281385940125
    Total Energy =                       -310.2128138594013080
  Basis Set: 6-31G*
  Basis Set:
  Basis Set: 6-31G*
  Basis Set:
  @DF-RHF Final Energy:  -310.21281545607053
    Total Energy =                       -310.2128154560700750
  Basis Set: 6-31G*
  Basis Set:
  Basis Set: 6-31G*
  Basis Set:
  @DF-RHF Final Energy:  -310.21281867352872
    Total Energy =                       -310.2128186735284885
  Basis Set: 6-31G*
  Basis Set:
  Charge       = 0
  Multiplicity = 1
  Basis Set: 6-31G*
  Basis Set:

    Orbital Energies (a.u.)
    -----------------------

    Doubly Occupied:

       1A    -20.551847     2A    -11.267073     3A    -11.215741
       4A    -11.215145     5A    -11.213570     6A    -11.210682
       7A    -11.208222     8A     -1.358654     9A     -1.086217
      10A     -1.033252    11A     -0.954513    12A     -0.875340
      13A     -0.807042    14A     -0.779600    15A     -0.692467
      16A     -0.661424    17A     -0.621473    18A     -0.608000
      19A     -0.586526    20A     -0.569047    21A     -0.536495
      22A     -0.519894    23A     -0.510711    24A     -0.486853
      25A     -0.479548    26A     -0.460906    27A     -0.455782
      28A     -0.443091    29A     -0.433997

  @DF-RHF Final Energy:  -310.21281907655379

   => Energetics <=

    Nuclear Repulsion Energy =            312.3419529253469022
    One-Electron Energy =               -1039.4233195114115915
    Two-Electron Energy =                 416.8685475095106767
    DFT Exchange-Correlation Energy =       0.0000000000000000
    Empirical Dispersion Energy =           0.0000000000000000
    PCM Polarization Energy =               0.0000000000000000
    EFP Energy =                            0.0000000000000000
    Total Energy =                       -310.2128190765539557
    Molecular point group: c1
  Basis Set: 6-31G*
  Basis Set:

  -Total Gradient:
     Atom            X                  Y                   Z
    ------   -----------------  -----------------  -----------------
       1       -0.000006154407    -0.000003072871    -0.000003232638
       2       -0.000027256286    -0.000004738273    -0.000006959257
       3        0.000010093229    -0.000004692948    -0.000007029779
       4       -0.000002992742     0.000005486932    -0.000002071188
       5        0.000008002365     0.000003831093     0.000000377501
       6        0.000011000706    -0.000002383276     0.000002250856
       7        0.000008392320    -0.000013842797     0.000010222823
       8       -0.000011340766     0.000002162662    -0.000002278564
       9       -0.000001920259    -0.000000889725     0.000002375404
      10       -0.000115150560     0.000418025890    -0.000068628385
      11        0.000004746147    -0.000005242169    -0.000004145087
      12        0.000011049672     0.000003500093     0.000013579832
      13       -0.000119078596     0.000306371038     0.000060058247
      14        0.000125099695    -0.000425541491     0.000030137102
      15       -0.000003783149     0.000008107306     0.000004169085
      16        0.000111031143    -0.000292193777    -0.000034464331
      17       -0.000007817184    -0.000005718332     0.000009191330
      18        0.000009929663     0.000003131016    -0.000014165729
      19       -0.000010951280     0.000010906348     0.000014779123
      20       -0.000004083497    -0.000001597427    -0.000006913615
      21        0.000011183785    -0.000001609295     0.000002747271

  **** Optimization is complete! (in 7 steps) ****
    Final optimized geometry and variables:
    Molecular point group: c1

    Geometry (in Angstrom), charge = 0, multiplicity = 1:

    H           -4.190483445107     0.765460826538    -0.340928929280
    O           -3.468282251560     0.208015129288    -0.593114807554
    C           -2.269792333665     0.723167314326    -0.072608368685
    C           -1.135807561245    -0.193499787622    -0.496289510789
    H           -2.092712795679     1.731521548834    -0.444373228021
    H           -2.317173703191     0.779948951528     1.014063106812
    C            0.228587347805     0.271928327862     0.015284993874
    H           -1.129908855374    -0.251024947537    -1.581256727011
    H           -1.350899118791    -1.194288012481    -0.131814186614
    C            1.366759489163    -0.657904952082    -0.413538029147
    H            0.431788250635     1.276455899590    -0.353493066559
    H            0.198412961962     0.344110427025     1.099848970609
    C            2.764833102147    -0.196363104184     0.013619543521
    H            1.348968453442    -0.755413651180    -1.496847873712
    H            1.183466775277    -1.655787615494    -0.018486505971
    C            3.015386281358    -0.245457383751     1.522000633017
    H            2.937836643970     0.814378079342    -0.350422423311
    H            3.500852038563    -0.825726602713    -0.480643157547
    H            2.366969644092     0.434515885098     2.064816463205
    H            2.847209408362    -1.245662691149     1.912066742514
    H            4.040121026015     0.029938747443     1.751967111491

  Mulliken Charges: (a.u.)
   Center  Symbol    Alpha    Beta     Spin     Total
       1     H     0.28117  0.28117  0.00000  0.43765
       2     O     4.37180  4.37180  0.00000 -0.74360
       3     C     2.98972  2.98972  0.00000  0.02055
       4     C     3.15899  3.15899  0.00000 -0.31797
       5     H     0.43286  0.43286  0.00000  0.13428
       6     H     0.43294  0.43294  0.00000  0.13413
       7     C     3.16169  3.16169  0.00000 -0.32338
       8     H     0.41481  0.41481  0.00000  0.17037
       9     H     0.41475  0.41475  0.00000  0.17050
      10     C     3.15195  3.15195  0.00000 -0.30389
      11     H     0.42402  0.42402  0.00000  0.15196
      12     H     0.42167  0.42167  0.00000  0.15665
      13     C     3.15271  3.15271  0.00000 -0.30542
      14     H     0.42090  0.42090  0.00000  0.15821
      15     H     0.42302  0.42302  0.00000  0.15397
      16     C     3.24097  3.24097  0.00000 -0.48194
      17     H     0.42351  0.42351  0.00000  0.15299
      18     H     0.42061  0.42061  0.00000  0.15878
      19     H     0.42078  0.42078  0.00000  0.15843
      20     H     0.42187  0.42187  0.00000  0.15627
      21     H     0.41926  0.41926  0.00000  0.16147

   Total alpha = 29.00000, Total beta = 29.00000, Total charge = -0.00000
