                              Psi4 1.0.54 Driver

  ==> Input File <==

--------------------------------------------------------------------------
set {
	reference rhf
	basis cc-pvtz
}

set_num_threads( 4 )
memory 2 gb

molecule MOL {
0 1

H	 -3.890654	 0.141220	 -1.418203
C	 -3.204706	 -0.502417	 -0.906817
C	 -2.105997	 -0.000418	 -0.398703
H	 -3.437906	 -1.545640	 -0.822536
O	 -1.189946	 -0.765863	 0.237511
H	 -1.866486	 1.044895	 -0.469990
C	 0.026572	 -0.995256	 -0.379403
C	 1.057223	 0.049888	 -0.004615
H	 -0.054361	 -1.010670	 -1.459674
H	 0.397526	 -1.952058	 -0.044198
F	 2.203233	 -0.234060	 -0.590375
F	 0.698147	 1.254887	 -0.392621
F	 1.266440	 0.094219	 1.288722

	symmetry c1
}
set optking {
	frozen_dihedral = ("
		6 3 5 7
	")
}

ee,wfn = optimize('scf', return_wfn=True)
oeprop( wfn, 'DIPOLE', 'QUADRUPOLE', 'MULLIKEN_CHARGES')
f=open( 'psi4out.xyz', 'w' )
f.write( "13  " )
f.write( str(ee) + "\n" )
f.write( MOL.save_string_xyz() )
f.close()
--------------------------------------------------------------------------

    Molecular point group: c1
  Charge       = 0
  Multiplicity = 1
  Basis Set: CC-PVTZ
  Basis Set:
  @DF-RHF Final Energy:  -527.73884541352345
    Total Energy =                       -527.7388454135234497
    Molecular point group: c1
  Basis Set: CC-PVTZ
  Basis Set:
  Basis Set: CC-PVTZ
  Basis Set:
  @DF-RHF Final Energy:  -527.73914954170550
    Total Energy =                       -527.7391495417052738
  Basis Set: CC-PVTZ
  Basis Set:
  Basis Set: CC-PVTZ
  Basis Set:
  @DF-RHF Final Energy:  -527.73940558820254
    Total Energy =                       -527.7394055882024304
  Basis Set: CC-PVTZ
  Basis Set:
  Basis Set: CC-PVTZ
  Basis Set:
  @DF-RHF Final Energy:  -527.73941715583385
    Total Energy =                       -527.7394171558340759
  Basis Set: CC-PVTZ
  Basis Set:
  Basis Set: CC-PVTZ
  Basis Set:
  @DF-RHF Final Energy:  -527.73942013273847
    Total Energy =                       -527.7394201327387009
  Basis Set: CC-PVTZ
  Basis Set:
  Charge       = 0
  Multiplicity = 1
  Basis Set: CC-PVTZ
  Basis Set:

    Orbital Energies (a.u.)
    -----------------------

    Doubly Occupied:

       1A    -26.340081     2A    -26.339640     3A    -26.336305
       4A    -20.594312     5A    -11.495759     6A    -11.315325
       7A    -11.294523     8A    -11.226160     9A     -1.748735
      10A     -1.645420    11A     -1.643573    12A     -1.432972
      13A     -1.084191    14A     -1.022196    15A     -0.931280
      16A     -0.840817    17A     -0.837821    18A     -0.831390
      19A     -0.778422    20A     -0.727267    21A     -0.718992
      22A     -0.708178    23A     -0.680691    24A     -0.664986
      25A     -0.658911    26A     -0.649596    27A     -0.641294
      28A     -0.598427    29A     -0.571791    30A     -0.531253
      31A     -0.472238    32A     -0.379601

  @DF-RHF Final Energy:  -527.73942100300656

   => Energetics <=

    Nuclear Repulsion Energy =            412.3400710676480116
    One-Electron Energy =               -1548.6746908555069240
    Two-Electron Energy =                 608.5951987848523004
    DFT Exchange-Correlation Energy =       0.0000000000000000
    Empirical Dispersion Energy =           0.0000000000000000
    PCM Polarization Energy =               0.0000000000000000
    EFP Energy =                            0.0000000000000000
    Total Energy =                       -527.7394210030065551
    Molecular point group: c1
  Basis Set: CC-PVTZ
  Basis Set:

  -Total Gradient:
     Atom            X                  Y                   Z
    ------   -----------------  -----------------  -----------------
       1        0.000026253654     0.000025018304    -0.000007089408
       2       -0.000077228902    -0.000061361689    -0.000009567991
       3        0.000910665486    -0.000964836885    -0.002598538370
       4        0.000046761686     0.000015763363     0.000015491984
       5        0.000550157165     0.001918634707     0.001578859263
       6       -0.000915192506     0.000363146168     0.001670410846
       7       -0.000481912138    -0.001280789782    -0.000668343062
       8        0.000019255623    -0.000036189299    -0.000014368781
       9       -0.000009533072    -0.000008724787     0.000007381462
      10       -0.000003961156     0.000004951251     0.000011463236
      11       -0.000054123505     0.000015297925     0.000038854480
      12       -0.000035607303     0.000031149578    -0.000034851331
      13        0.000024464970    -0.000022058860     0.000010297672

  **** Optimization is complete! (in 6 steps) ****
    Final optimized geometry and variables:
    Molecular point group: c1

    Geometry (in Angstrom), charge = 0, multiplicity = 1:

    H           -3.966686418996     0.141096241044    -1.269958467260
    C           -3.238582682764    -0.470353081630    -0.775462677596
    C           -2.117420618059     0.060610806354    -0.354715459961
    H           -3.458820930654    -1.508891782011    -0.620845427397
    O           -1.193708837866    -0.661936985622     0.340500531558
    H           -1.890064466690     1.103979208573    -0.472305501494
    C            0.034484077553    -0.888008765266    -0.268096261602
    C            1.059495403771     0.155332895078     0.123533894047
    H           -0.039812238312    -0.900711783042    -1.347978715364
    H            0.404851146649    -1.844461149548     0.070356464114
    F            2.210148534880    -0.114074707356    -0.458885474872
    F            0.699290182466     1.367347175479    -0.248503018521
    F            1.262392302179     0.185226214866     1.419018279385

  Mulliken Charges: (a.u.)
   Center  Symbol    Alpha    Beta     Spin     Total
       1     H     0.42356  0.42356  0.00000  0.15287
       2     C     3.17516  3.17516  0.00000 -0.35032
       3     C     2.98447  2.98447  0.00000  0.03107
       4     H     0.42115  0.42115  0.00000  0.15771
       5     O     4.16323  4.16323  0.00000 -0.32645
       6     H     0.42139  0.42139  0.00000  0.15721
       7     C     3.00472  3.00472  0.00000 -0.00944
       8     C     2.67626  2.67626  0.00000  0.64748
       9     H     0.45764  0.45764  0.00000  0.08472
      10     H     0.43935  0.43935  0.00000  0.12130
      11     F     4.61222  4.61222  0.00000 -0.22444
      12     F     4.61332  4.61332  0.00000 -0.22663
      13     F     4.60754  4.60754  0.00000 -0.21508

   Total alpha = 32.00000, Total beta = 32.00000, Total charge = -0.00000

*** Psi4 exiting successfully. Buy a developer a beer!
