  ==> Input File <==

--------------------------------------------------------------------------
set {
	reference rhf
	basis cc-pvtz
}

set_num_threads( 4 )
memory 2 gb

molecule MOL {
0 1

H	 -1.835082	 1.385983	 0.000069
C	 -1.300516	 0.441153	 -0.000028
O	 -0.006604	 0.654344	 -0.000106
O	 -1.828920	 -0.612308	 0.000113
C	 0.839709	 -0.407513	 -0.431425
C	 2.267729	 0.075682	 -0.342076
H	 0.572491	 -0.678171	 -1.443007
H	 0.669362	 -1.268203	 0.199572
H	 2.422704	 0.939707	 -0.975648
H	 2.939309	 -0.711092	 -0.664289
H	 2.520056	 0.346736	 0.675190

	symmetry c1
}
set optking {
	frozen_dihedral = ("
		5 3 2 4
	")
}

ee = optimize('scf')
oeprop('DIPOLE', 'QUADRUPOLE', 'MULLIKEN_CHARGES')
f=open( 'psi4out.xyz', 'w' )
f.write( "11  " )
f.write( str(ee) + "\n" )
f.write( MOL.save_string_xyz() )
f.close()
--------------------------------------------------------------------------

    Molecular point group: c1
  Charge       = 0
  Multiplicity = 1
  Basis Set: CC-PVTZ
  Basis Set:
  @DF-RHF Final Energy:  -266.92939255916224
    Total Energy =                       -266.9293925591622383
    Molecular point group: c1
  Basis Set: CC-PVTZ
  Basis Set:
  Basis Set: CC-PVTZ
  Basis Set:
  @DF-RHF Final Energy:  -266.92439771946476
    Total Energy =                       -266.9243977194648778
  Basis Set: CC-PVTZ
  Basis Set:
  Basis Set: CC-PVTZ
  Basis Set:
  @DF-RHF Final Energy:  -266.92960861838014
    Total Energy =                       -266.9296086183801435
  Basis Set: CC-PVTZ
  Basis Set:
  Basis Set: CC-PVTZ
  Basis Set:
  @DF-RHF Final Energy:  -266.92967332866829
    Total Energy =                       -266.9296733286681729
  Basis Set: CC-PVTZ
  Basis Set:
  Basis Set: CC-PVTZ
  Basis Set:
  @DF-RHF Final Energy:  -266.92967498745361
    Total Energy =                       -266.9296749874536090
  Basis Set: CC-PVTZ
  Basis Set:
  Charge       = 0
  Multiplicity = 1
  Basis Set: CC-PVTZ
  Basis Set:

    Orbital Energies (a.u.)
    -----------------------

    Doubly Occupied:

       1A    -20.603485     2A    -20.546990     3A    -11.370445
       4A    -11.290969     5A    -11.225396     6A     -1.478120
       7A     -1.377725     8A     -1.053591     9A     -0.902889
      10A     -0.807272    11A     -0.740755    12A     -0.692407
      13A     -0.681687    14A     -0.598303    15A     -0.573834
      16A     -0.558810    17A     -0.519990    18A     -0.516257
      19A     -0.464443    20A     -0.456823

  @DF-RHF Final Energy:  -266.92967576853619

   => Energetics <=

    Nuclear Repulsion Energy =            179.4003588479035045
    One-Electron Energy =                -719.7396900179028307
    Two-Electron Energy =                 273.4096554014633398
    DFT Exchange-Correlation Energy =       0.0000000000000000
    Empirical Dispersion Energy =           0.0000000000000000
    PCM Polarization Energy =               0.0000000000000000
    EFP Energy =                            0.0000000000000000
    Total Energy =                       -266.9296757685360149
    Molecular point group: c1
  Basis Set: CC-PVTZ
  Basis Set:

  -Total Gradient:
     Atom            X                  Y                   Z
    ------   -----------------  -----------------  -----------------
       1        0.000008654720    -0.000006280795    -0.000007362833
       2        0.000667721269     0.001607237203    -0.012701125728
       3       -0.000281695264    -0.003183112410     0.010672331475
       4       -0.000408810442    -0.000408137228     0.006759631949
       5        0.000022864981     0.001976111834    -0.004731593181
       6       -0.000001664580     0.000011878008    -0.000001809321
       7        0.000000831914     0.000013790741     0.000017721193
       8       -0.000009070276    -0.000012166228     0.000000525092
       9        0.000005864937     0.000005529374    -0.000001821802
      10       -0.000001840412    -0.000001877935    -0.000001354580
      11       -0.000002856844    -0.000002972562    -0.000005142263

  **** Optimization is complete! (in 6 steps) ****
    Final optimized geometry and variables:
    Molecular point group: c1

    Geometry (in Angstrom), charge = 0, multiplicity = 1:

    H           -1.815357456061     1.372064764828     0.218729323349
    C           -1.295021402660     0.422543406038     0.137600832785
    O            0.003222224176     0.606061542534     0.218279915010
    O           -1.842103121407    -0.617208340744     0.051898991143
    C            0.852408362702    -0.449442586075    -0.224588581670
    C            2.275501348675     0.053735133481    -0.180454266610
    H            0.559602183999    -0.730161812338    -1.226903904735
    H            0.715063022322    -1.308520330418     0.416116552896
    H            2.401218028554     0.914221959488    -0.825192396637
    H            2.948604953637    -0.727221617034    -0.513591014169
    H            2.551356461362     0.336993711881     0.827292395974

  Mulliken Charges: (a.u.)
   Center  Symbol    Alpha    Beta     Spin     Total
       1     H     0.44962  0.44962  0.00000  0.10075
       2     C     2.84520  2.84520  0.00000  0.30960
       3     O     4.14613  4.14613  0.00000 -0.29225
       4     O     4.19220  4.19220  0.00000 -0.38440
       5     C     2.97221  2.97221  0.00000  0.05559
       6     C     3.13309  3.13309  0.00000 -0.26618
       7     H     0.45644  0.45644  0.00000  0.08713
       8     H     0.45033  0.45033  0.00000  0.09935
       9     H     0.45092  0.45092  0.00000  0.09815
      10     H     0.45435  0.45435  0.00000  0.09130
      11     H     0.44952  0.44952  0.00000  0.10097

   Total alpha = 20.00000, Total beta = 20.00000, Total charge = -0.00000
