                              Psi4 1.0.54 Driver

  ==> Input File <==

--------------------------------------------------------------------------
set {
	reference rhf
	basis cc-pvtz
}

set_num_threads( 4 )
memory 2 gb

molecule MOL {
0 1

O	 -2.081319	 -0.951530	 -0.502732
N	 -1.613558	 0.006676	 0.014756
C	 -0.329345	 -0.171618	 0.743966
O	 -2.068523	 1.100482	 -0.024385
C	 0.474656	 -1.291852	 0.096088
H	 -0.593901	 -0.405287	 1.761722
H	 0.181679	 0.774730	 0.684695
C	 1.804598	 -1.508557	 0.813348
H	 -0.111099	 -2.203431	 0.117835
H	 0.650821	 -1.042430	 -0.943860
C	 2.632951	 -2.620706	 0.179759
H	 1.617641	 -1.746419	 1.856375
H	 2.374183	 -0.583945	 0.804748
H	 2.102001	 -3.565793	 0.204261
H	 2.862206	 -2.395673	 -0.855865
H	 3.570369	 -2.752955	 0.705992

	symmetry c1
}
set optking {
	frozen_dihedral = ("
		5 3 2 1
	")
}

ee,wfn = optimize('scf', return_wfn=True)
oeprop( wfn, 'DIPOLE', 'QUADRUPOLE', 'MULLIKEN_CHARGES')
f=open( 'psi4out.xyz', 'w' )
f.write( "16  " )
f.write( str(ee) + "\n" )
f.write( MOL.save_string_xyz() )
f.close()
--------------------------------------------------------------------------

    Molecular point group: c1
  Charge       = 0
  Multiplicity = 1
  Basis Set: CC-PVTZ
  Basis Set:
  @DF-RHF Final Energy:  -360.90725822739478
    Total Energy =                       -360.9072582273948342
    Molecular point group: c1
  Basis Set: CC-PVTZ
  Basis Set:
  Basis Set: CC-PVTZ
  Basis Set:
  @DF-RHF Final Energy:  -360.90408391979389
    Total Energy =                       -360.9040839197938340
  Basis Set: CC-PVTZ
  Basis Set:
  Basis Set: CC-PVTZ
  Basis Set:
  @DF-RHF Final Energy:  -360.90362555919108
    Total Energy =                       -360.9036255591914824
  Basis Set: CC-PVTZ
  Basis Set:
  Basis Set: CC-PVTZ
  Basis Set:
  @DF-RHF Final Energy:  -360.90719873851498
    Total Energy =                       -360.9071987385150351
  Basis Set: CC-PVTZ
  Basis Set:
  Basis Set: CC-PVTZ
  Basis Set:
  @DF-RHF Final Energy:  -360.90674179758815
    Total Energy =                       -360.9067417975883245
  Basis Set: CC-PVTZ
  Basis Set:
  Basis Set: CC-PVTZ
  Basis Set:
  @DF-RHF Final Energy:  -360.90861669549196
    Total Energy =                       -360.9086166954919577
  Basis Set: CC-PVTZ
  Basis Set:
  Basis Set: CC-PVTZ
  Basis Set:
  @DF-RHF Final Energy:  -360.90865662770682
    Total Energy =                       -360.9086566277065913
  Basis Set: CC-PVTZ
  Basis Set:
  Charge       = 0
  Multiplicity = 1
  Basis Set: CC-PVTZ
  Basis Set:

    Orbital Energies (a.u.)
    -----------------------

    Doubly Occupied:

       1A    -20.591009     2A    -20.589251     3A    -15.837571
       4A    -11.297841     5A    -11.244648     6A    -11.240028
       7A    -11.224458     8A     -1.636366     9A     -1.420397
      10A     -1.134330    11A     -1.058852    12A     -0.948870
      13A     -0.843486    14A     -0.822752    15A     -0.759873
      16A     -0.748032    17A     -0.730369    18A     -0.669511
      19A     -0.615332    20A     -0.603925    21A     -0.565980
      22A     -0.536793    23A     -0.520981    24A     -0.502178
      25A     -0.495470    26A     -0.485311    27A     -0.469385
      28A     -0.453611

  @DF-RHF Final Energy:  -360.90865700740693

   => Energetics <=

    Nuclear Repulsion Energy =            312.5217429478942108
    One-Electron Energy =               -1110.7675819580088046
    Two-Electron Energy =                 437.3371820027073795
    DFT Exchange-Correlation Energy =       0.0000000000000000
    Empirical Dispersion Energy =           0.0000000000000000
    PCM Polarization Energy =               0.0000000000000000
    EFP Energy =                            0.0000000000000000
    Total Energy =                       -360.9086570074072711
    Molecular point group: c1
  Basis Set: CC-PVTZ
  Basis Set:

  -Total Gradient:
     Atom            X                  Y                   Z
    ------   -----------------  -----------------  -----------------
       1        0.000218528276     0.000116052463    -0.000345546397
       2       -0.000380933435    -0.000161538783     0.000520037173
       3        0.000344581084     0.000297154077    -0.000326943407
       4       -0.000026658288    -0.000044580301    -0.000023898726
       5       -0.000164103322    -0.000184462951     0.000171491314
       6        0.000011147571    -0.000010727044     0.000006339809
       7        0.000008333933    -0.000024815793    -0.000012171879
       8        0.000005227215    -0.000017966013     0.000029262876
       9        0.000004809718     0.000023484532     0.000032210112
      10        0.000003833726    -0.000000683695    -0.000021068175
      11        0.000002149114     0.000001864402    -0.000021337227
      12       -0.000009164296     0.000000108406     0.000003185857
      13       -0.000019066602     0.000003568882    -0.000006746545
      14        0.000000591330    -0.000000530055     0.000001915710
      15        0.000006034472    -0.000005521371    -0.000006802969
      16       -0.000005310499     0.000008593247     0.000000072471

  **** Optimization is complete! (in 8 steps) ****
    Final optimized geometry and variables:
    Molecular point group: c1

    Geometry (in Angstrom), charge = 0, multiplicity = 1:

    O           -1.906601087050    -0.011529523758    -0.820499009120
    N           -1.369460294654     0.856211050158    -0.219681959759
    C           -0.124906875782     0.525346700883     0.536682894797
    O           -1.754484353790     1.974302593442    -0.141608368856
    C            0.675566545954    -0.600803433158    -0.087511542572
    H           -0.475158028807     0.269177097179     1.527707620921
    H            0.422109036044     1.451092085139     0.595267070309
    C            1.951315942066    -0.868816544056     0.708885704369
    H            0.068862677471    -1.494176657786    -0.132665168287
    H            0.927462068360    -0.338335290105    -1.109194805866
    C            2.785095522836    -1.995416260073     0.108835981684
    H            1.692129249529    -1.119094107295     1.733851376944
    H            2.549489192501     0.036557986446     0.756052272044
    H            2.224743637509    -2.923213015191     0.079943991303
    H            3.087936889270    -1.759797800953    -0.905380826620
    H            3.682018777174    -2.166959803925     0.691420471039

  Mulliken Charges: (a.u.)
   Center  Symbol    Alpha    Beta     Spin     Total
       1     O     4.17050  4.17050  0.00000 -0.34100
       2     N     3.27400  3.27400  0.00000  0.45201
       3     C     3.04843  3.04843  0.00000 -0.09685
       4     O     4.17227  4.17227  0.00000 -0.34454
       5     C     3.09625  3.09625  0.00000 -0.19250
       6     H     0.43549  0.43549  0.00000  0.12903
       7     H     0.43097  0.43097  0.00000  0.13806
       8     C     3.09427  3.09427  0.00000 -0.18853
       9     H     0.43440  0.43440  0.00000  0.13121
      10     H     0.44316  0.44316  0.00000  0.11368
      11     C     3.14797  3.14797  0.00000 -0.29594
      12     H     0.45168  0.45168  0.00000  0.09664
      13     H     0.45119  0.45119  0.00000  0.09763
      14     H     0.45172  0.45172  0.00000  0.09657
      15     H     0.45216  0.45216  0.00000  0.09568
      16     H     0.44557  0.44557  0.00000  0.10887

   Total alpha = 28.00000, Total beta = 28.00000, Total charge = -0.00000

*** Psi4 exiting successfully. Buy a developer a beer!
