  ==> Input File <==

--------------------------------------------------------------------------
set {
	reference rhf
	basis 6-31G*
}

set_num_threads( 4 )
memory 2 gb

molecule MOL {
0 1

O	 2.586941	 1.784559	 -0.452248
C	 1.973142	 1.514895	 -1.438803
C	 0.700342	 0.688218	 -1.399785
C	 2.429330	 1.984607	 -2.804972
C	 0.291004	 0.242674	 0.000989
H	 -0.091784	 1.274028	 -1.864276
H	 0.842101	 -0.172845	 -2.051612
C	 -0.994322	 -0.586602	 0.000262
H	 0.165233	 1.118130	 0.630185
H	 1.100028	 -0.330568	 0.442601
C	 -2.259874	 0.272531	 0.000494
H	 -1.004862	 -1.240012	 -0.870939
H	 -1.005220	 -1.241071	 0.870675
C	 -3.549786	 -0.549746	 -0.000374
H	 -2.250389	 0.926680	 -0.869574
H	 -2.250838	 0.925513	 0.871430
C	 -4.809590	 0.315458	 -0.000369
H	 -3.560515	 -1.202009	 -0.871156
H	 -3.561123	 -1.202955	 0.869711
H	 -4.844746	 0.956611	 -0.876632
H	 -5.706986	 -0.295590	 -0.001609
H	 -4.845960	 0.954827	 0.877144
H	 1.661449	 2.594404	 -3.272009
H	 3.338621	 2.561277	 -2.707626
H	 2.607156	 1.134884	 -3.457646

	symmetry c1
}
set optking {
	frozen_dihedral = ("
		9 5 8 12
	")
}

ee = optimize('scf')
oeprop('DIPOLE', 'QUADRUPOLE', 'MULLIKEN_CHARGES')
f=open( 'psi4out.xyz', 'w' )
f.write( "25  " )
f.write( str(ee) + "\n" )
f.write( MOL.save_string_xyz() )
f.close()
--------------------------------------------------------------------------

    Molecular point group: c1
  Charge       = 0
  Multiplicity = 1
  Basis Set: 6-31G*
  Basis Set:
  @DF-RHF Final Energy:  -387.13378001877726
    Total Energy =                       -387.1337800187768607
    Molecular point group: c1
  Basis Set: 6-31G*
  Basis Set:
  Basis Set: 6-31G*
  Basis Set:
  @DF-RHF Final Energy:  -387.13391737037188
    Total Energy =                       -387.1339173703720462
  Basis Set: 6-31G*
  Basis Set:
  Basis Set: 6-31G*
  Basis Set:
  @DF-RHF Final Energy:  -387.13379559705714
    Total Energy =                       -387.1337955970576559
  Basis Set: 6-31G*
  Basis Set:
  Basis Set: 6-31G*
  Basis Set:
  @DF-RHF Final Energy:  -387.13396332405102
    Total Energy =                       -387.1339633240510238
  Basis Set: 6-31G*
  Basis Set:
  Basis Set: 6-31G*
  Basis Set:
  @DF-RHF Final Energy:  -387.13396309245257
    Total Energy =                       -387.1339630924520634
  Basis Set: 6-31G*
  Basis Set:
  Basis Set: 6-31G*
  Basis Set:
  @DF-RHF Final Energy:  -387.13396846257717
    Total Energy =                       -387.1339684625764903
  Basis Set: 6-31G*
  Basis Set:
  Charge       = 0
  Multiplicity = 1
  Basis Set: 6-31G*
  Basis Set:

    Orbital Energies (a.u.)
    -----------------------

    Doubly Occupied:

       1A    -20.550416     2A    -11.326196     3A    -11.231613
       4A    -11.228316     5A    -11.217255     6A    -11.216906
       7A    -11.216672     8A    -11.215664     9A    -11.210095
      10A     -1.395691    11A     -1.094141    12A     -1.055860
      13A     -1.014325    14A     -0.968312    15A     -0.894944
      16A     -0.815628    17A     -0.789196    18A     -0.731971
      19A     -0.658865    20A     -0.645073    21A     -0.641285
      22A     -0.620798    23A     -0.597953    24A     -0.576667
      25A     -0.571351    26A     -0.566083    27A     -0.541322
      28A     -0.526106    29A     -0.517053    30A     -0.492518
      31A     -0.485807    32A     -0.478371    33A     -0.464187
      34A     -0.459778    35A     -0.445996    36A     -0.400382

  @DF-RHF Final Energy:  -387.13396882467390

   => Energetics <=

    Nuclear Repulsion Energy =            443.7285264676375505
    One-Electron Energy =               -1403.9993930795635606
    Two-Electron Energy =                 573.1368977872526784
    DFT Exchange-Correlation Energy =       0.0000000000000000
    Empirical Dispersion Energy =           0.0000000000000000
    PCM Polarization Energy =               0.0000000000000000
    EFP Energy =                            0.0000000000000000
    Total Energy =                       -387.1339688246733886
    Molecular point group: c1
  Basis Set: 6-31G*
  Basis Set:

  -Total Gradient:
     Atom            X                  Y                   Z
    ------   -----------------  -----------------  -----------------
       1       -0.000005195740     0.000022648782     0.000002717574
       2        0.000031323682    -0.000052142445    -0.000003031204
       3       -0.000012740496     0.000018400563     0.000001646516
       4       -0.000001408847     0.000012707061     0.000000254013
       5        0.000791108478    -0.001209554020     0.002200259278
       6       -0.000003597046    -0.000002681508    -0.000002849906
       7        0.000000442516     0.000000750785     0.000002793389
       8        0.001227414400    -0.001953841831     0.001194108065
       9       -0.000857373794     0.001314162206    -0.002027966423
      10       -0.000004669039     0.000000458742    -0.000015198532
      11        0.000012097024    -0.000006671812    -0.000015425825
      12       -0.001146755047     0.001829737211    -0.001354557714
      13       -0.000013974092     0.000015587339    -0.000006533107
      14        0.000002619186    -0.000001449567     0.000029976454
      15       -0.000006607601     0.000007663127     0.000004117001
      16        0.000012167081    -0.000000438003    -0.000001130990
      17       -0.000012562577    -0.000004036999    -0.000015398418
      18        0.000002492166    -0.000003408496     0.000008394434
      19       -0.000005087949     0.000000410487     0.000005306865
      20        0.000001455387     0.000007182457     0.000003572637
      21       -0.000007638093     0.000004120585    -0.000009540400
      22       -0.000000830245    -0.000009006884     0.000000727660
      23        0.000001041286     0.000004343062    -0.000004155787
      24       -0.000000496140     0.000003532684    -0.000002308718
      25       -0.000003224500     0.000001526478     0.000004223138

  **** Optimization is complete! (in 7 steps) ****
    Final optimized geometry and variables:
    Molecular point group: c1

    Geometry (in Angstrom), charge = 0, multiplicity = 1:

    O            2.992992372979     1.159948060300     0.229169653753
    C            2.387888286518     0.879113452249    -0.759711797117
    C            1.121696628460     0.042057432165    -0.724676915722
    C            2.849890320680     1.344245129461    -2.125610375284
    C            0.714660973960    -0.407243243961     0.678268876016
    H            0.330452332662     0.621022044267    -1.197505899404
    H            1.275422209684    -0.819872241406    -1.372544853494
    C           -0.586560136473    -1.223651609413     0.692521334147
    H            0.603662904880     0.474419976361     1.300915429218
    H            1.525646428492    -0.986415381413     1.104957027525
    C           -1.854787200824    -0.363872369401     0.688707489612
    H           -0.613590791928    -1.884828129609    -0.172136147231
    H           -0.601103217332    -1.861334296951     1.572414454999
    C           -3.142002385168    -1.190402952830     0.675163152621
    H           -1.851570005404     0.299925543126    -0.174240168655
    H           -1.850991011548     0.279995050251     1.566314720907
    C           -4.405378305368    -0.330430468626     0.685305236796
    H           -3.149361995876    -1.831633870043    -0.203833347910
    H           -3.151211040379    -1.854880345324     1.536550293455
    H           -4.442331591777     0.322926658123    -0.181995381539
    H           -5.300171984572    -0.945076581306     0.673994925192
    H           -4.445844122708     0.296252967756     1.571695298413
    H            2.080367014963     1.944700648830    -2.601979834998
    H            3.753530028733     1.929222285490    -2.025294129125
    H            3.039679384256     0.492092417963    -2.771710734195

  Mulliken Charges: (a.u.)
   Center  Symbol    Alpha    Beta     Spin     Total
       1     O     4.26113  4.26113  0.00000 -0.52227
       2     C     2.73575  2.73575  0.00000  0.52851
       3     C     3.21164  3.21164  0.00000 -0.42328
       4     C     3.28665  3.28665  0.00000 -0.57329
       5     C     3.15051  3.15051  0.00000 -0.30102
       6     H     0.40930  0.40930  0.00000  0.18139
       7     H     0.41010  0.41010  0.00000  0.17980
       8     C     3.15719  3.15719  0.00000 -0.31438
       9     H     0.41107  0.41107  0.00000  0.17786
      10     H     0.41020  0.41020  0.00000  0.17961
      11     C     3.15228  3.15228  0.00000 -0.30456
      12     H     0.42529  0.42529  0.00000  0.14942
      13     H     0.41801  0.41801  0.00000  0.16398
      14     C     3.15133  3.15133  0.00000 -0.30265
      15     H     0.42618  0.42618  0.00000  0.14764
      16     H     0.42160  0.42160  0.00000  0.15680
      17     C     3.23923  3.23923  0.00000 -0.47846
      18     H     0.42366  0.42366  0.00000  0.15269
      19     H     0.42227  0.42227  0.00000  0.15546
      20     H     0.42248  0.42248  0.00000  0.15503
      21     H     0.41906  0.41906  0.00000  0.16188
      22     H     0.42106  0.42106  0.00000  0.15788
      23     H     0.40885  0.40885  0.00000  0.18231
      24     H     0.39648  0.39648  0.00000  0.20704
      25     H     0.40870  0.40870  0.00000  0.18260

   Total alpha = 36.00000, Total beta = 36.00000, Total charge = -0.00000
