  ==> Input File <==

--------------------------------------------------------------------------
set {
	reference rhf
	basis 6-31G*
}

set_num_threads( 4 )
memory 2 gb

molecule MOL {
0 1

H	 -1.948992	 -0.412645	 -2.779895
N	 -1.017891	 -0.554445	 -2.439427
C	 -1.030868	 -1.335106	 -1.214885
H	 -0.626287	 0.348883	 -2.255703
C	 0.381361	 -1.506020	 -0.695721
H	 -1.638182	 -0.897166	 -0.421550
H	 -1.439630	 -2.316862	 -1.433630
O	 0.874168	 -0.245412	 -0.342030
H	 0.386619	 -2.166672	 0.170968
H	 1.003819	 -1.951156	 -1.468789
C	 2.202317	 -0.244239	 0.074611
H	 2.711377	 -1.041390	 -0.449894
H	 2.692099	 0.699270	 -0.159667
H	 2.283185	 -0.418429	 1.145558

	symmetry c1
}
set optking {
	frozen_dihedral = ("
		5 8 11 13
	")
}

ee = optimize('scf')
oeprop('DIPOLE', 'QUADRUPOLE', 'MULLIKEN_CHARGES')
f=open( 'psi4out.xyz', 'w' )
f.write( "14  " )
f.write( str(ee) + "\n" )
f.write( MOL.save_string_xyz() )
f.close()
--------------------------------------------------------------------------

    Molecular point group: c1
  Charge       = 0
  Multiplicity = 1
  Basis Set: 6-31G*
  Basis Set:
  @DF-RHF Final Energy:  -248.12227276053915
    Total Energy =                       -248.1222727605392038
    Molecular point group: c1
  Basis Set: 6-31G*
  Basis Set:
  Basis Set: 6-31G*
  Basis Set:
  @DF-RHF Final Energy:  -248.12311478164210
    Total Energy =                       -248.1231147816420730
  Basis Set: 6-31G*
  Basis Set:
  Basis Set: 6-31G*
  Basis Set:
  @DF-RHF Final Energy:  -248.12335532178301
    Total Energy =                       -248.1233553217831513
  Basis Set: 6-31G*
  Basis Set:
  Basis Set: 6-31G*
  Basis Set:
  @DF-RHF Final Energy:  -248.12335634246085
    Total Energy =                       -248.1233563424608519
  Basis Set: 6-31G*
  Basis Set:
  Charge       = 0
  Multiplicity = 1
  Basis Set: 6-31G*
  Basis Set:

    Orbital Energies (a.u.)
    -----------------------

    Doubly Occupied:

       1A    -20.555716     2A    -15.528146     3A    -11.265990
       4A    -11.265946     5A    -11.240496     6A     -1.378976
       7A     -1.173297     8A     -0.999072     9A     -0.907372
      10A     -0.814995    11A     -0.682787    12A     -0.673013
      13A     -0.644005    14A     -0.610620    15A     -0.604944
      16A     -0.539662    17A     -0.532824    18A     -0.496185
      19A     -0.471740    20A     -0.415395    21A     -0.379836

  @DF-RHF Final Energy:  -248.12335661756237

   => Energetics <=

    Nuclear Repulsion Energy =            194.5458864604929090
    One-Electron Energy =                -722.9764526720085769
    Two-Electron Energy =                 280.3072095939531323
    DFT Exchange-Correlation Energy =       0.0000000000000000
    Empirical Dispersion Energy =           0.0000000000000000
    PCM Polarization Energy =               0.0000000000000000
    EFP Energy =                            0.0000000000000000
    Total Energy =                       -248.1233566175625924
    Molecular point group: c1
  Basis Set: 6-31G*
  Basis Set:

  -Total Gradient:
     Atom            X                  Y                   Z
    ------   -----------------  -----------------  -----------------
       1        0.000000985687    -0.000002637460     0.000002785428
       2        0.000002833155    -0.000000872425     0.000001980583
       3       -0.000007713481    -0.000004742027    -0.000003249725
       4       -0.000000425517    -0.000004010750     0.000002628589
       5        0.000705917822     0.000347360272    -0.002304175321
       6        0.000004280402    -0.000000384751    -0.000002046154
       7       -0.000007093192    -0.000001496652    -0.000003622532
       8       -0.000811460007    -0.000754504326     0.002653622432
       9        0.000002051256     0.000007526883    -0.000001576827
      10        0.000000037151     0.000001979596     0.000002929503
      11       -0.000730367301     0.001510609977     0.002297317806
      12        0.000005893969    -0.000002392476    -0.000000733080
      13        0.000836425040    -0.001100576248    -0.002640573817
      14       -0.000001364985     0.000004140386    -0.000005286886

  **** Optimization is complete! (in 5 steps) ****
    Final optimized geometry and variables:
    Molecular point group: c1

    Geometry (in Angstrom), charge = 0, multiplicity = 1:

    H           -2.234860900784     0.370309482407    -1.852500018613
    N           -1.305585563197     0.216612023022    -1.512303816868
    C           -1.327671160554    -0.569623322967    -0.291423915183
    H           -0.904228603373     1.114609001056    -1.323837112436
    C            0.082117217462    -0.757543775333     0.228641452485
    H           -1.931963101287    -0.129728159825     0.503057638158
    H           -1.745486104735    -1.546442008083    -0.515194407478
    O            0.587693599660     0.499000451887     0.580527289233
    H            0.076481480099    -1.421201325194     1.093119365319
    H            0.699984180289    -1.207242133649    -0.544505914302
    C            1.918422051942     0.513518079697     0.998029754868
    H            2.500426496030    -0.256062309214     0.497070287867
    H            2.344117801466     1.473124092260     0.734615950395
    H            1.996942668499     0.361430226067     2.071434511624

  Mulliken Charges: (a.u.)
   Center  Symbol    Alpha    Beta     Spin     Total
       1     H     0.33289  0.33289  0.00000  0.33421
       2     N     3.92533  3.92533  0.00000 -0.85066
       3     C     3.06904  3.06904  0.00000 -0.13807
       4     H     0.32365  0.32365  0.00000  0.35270
       5     C     2.98983  2.98983  0.00000  0.02034
       6     H     0.42662  0.42662  0.00000  0.14675
       7     H     0.42056  0.42056  0.00000  0.15888
       8     O     4.31228  4.31228  0.00000 -0.62457
       9     H     0.43140  0.43140  0.00000  0.13719
      10     H     0.42185  0.42185  0.00000  0.15631
      11     C     3.07659  3.07659  0.00000 -0.15318
      12     H     0.42916  0.42916  0.00000  0.14168
      13     H     0.41476  0.41476  0.00000  0.17048
      14     H     0.42603  0.42603  0.00000  0.14794

   Total alpha = 21.00000, Total beta = 21.00000, Total charge =  0.00000
