  ==> Input File <==

--------------------------------------------------------------------------
set {
	reference rhf
	basis 6-31G*
}

set_num_threads( 4 )
memory 2 gb

molecule MOL {
0 1

H	 2.443638	 -0.843790	 0.850833
O	 2.016064	 -0.864478	 0.000222
C	 1.050492	 0.053836	 0.000068
C	 -0.318135	 -0.576402	 0.000164
O	 1.285279	 1.218255	 -0.000078
C	 -1.454360	 0.441875	 -0.000474
H	 -0.374042	 -1.230163	 -0.866135
H	 -0.374274	 -1.229227	 0.867154
C	 -2.826123	 -0.230780	 0.000056
H	 -1.357605	 1.085198	 -0.868380
H	 -1.357504	 1.086451	 0.866496
H	 -2.959731	 -0.858053	 -0.876869
H	 -3.619374	 0.509403	 -0.000080
H	 -2.959371	 -0.857318	 0.877556

	symmetry c1
}
set optking {
	frozen_dihedral = ("
		1 2 3 5
	")
}

ee = optimize('scf')
oeprop('DIPOLE', 'QUADRUPOLE', 'MULLIKEN_CHARGES')
f=open( 'psi4out.xyz', 'w' )
f.write( "14  " )
f.write( str(ee) + "\n" )
f.write( MOL.save_string_xyz() )
f.close()
--------------------------------------------------------------------------

    Molecular point group: c1
  Charge       = 0
  Multiplicity = 1
  Basis Set: 6-31G*
  Basis Set:
  @DF-RHF Final Energy:  -305.86126978499669
    Total Energy =                       -305.8612697849966935
    Molecular point group: c1
  Basis Set: 6-31G*
  Basis Set:
  Basis Set: 6-31G*
  Basis Set:
  @DF-RHF Final Energy:  -305.85995659108994
    Total Energy =                       -305.8599565910901674
  Basis Set: 6-31G*
  Basis Set:
  Basis Set: 6-31G*
  Basis Set:
  @DF-RHF Final Energy:  -305.86247752428835
    Total Energy =                       -305.8624775242884652
  Basis Set: 6-31G*
  Basis Set:
  Basis Set: 6-31G*
  Basis Set:
  @DF-RHF Final Energy:  -305.86288301896428
    Total Energy =                       -305.8628830189642258
  Basis Set: 6-31G*
  Basis Set:
  Basis Set: 6-31G*
  Basis Set:
  @DF-RHF Final Energy:  -305.86288774738398
    Total Energy =                       -305.8628877473839793
  Basis Set: 6-31G*
  Basis Set:
  Charge       = 0
  Multiplicity = 1
  Basis Set: 6-31G*
  Basis Set:

    Orbital Energies (a.u.)
    -----------------------

    Doubly Occupied:

       1A    -20.596750     2A    -20.561358     3A    -11.381904
       4A    -11.241622     5A    -11.225923     6A    -11.217751
       7A     -1.461869     8A     -1.367276     9A     -1.082422
      10A     -0.976877    11A     -0.852922    12A     -0.794376
      13A     -0.707560    14A     -0.678526    15A     -0.662503
      16A     -0.628111    17A     -0.578323    18A     -0.560406
      19A     -0.542982    20A     -0.504968    21A     -0.496062
      22A     -0.482809    23A     -0.480361    24A     -0.444399

  @DF-RHF Final Energy:  -305.86288829471391

   => Energetics <=

    Nuclear Repulsion Energy =            239.2292086165645060
    One-Electron Energy =                -891.1280746355168958
    Two-Electron Energy =                 346.0359777242384780
    DFT Exchange-Correlation Energy =       0.0000000000000000
    Empirical Dispersion Energy =           0.0000000000000000
    PCM Polarization Energy =               0.0000000000000000
    EFP Energy =                            0.0000000000000000
    Total Energy =                       -305.8628882947139118
    Molecular point group: c1
  Basis Set: 6-31G*
  Basis Set:

  -Total Gradient:
     Atom            X                  Y                   Z
    ------   -----------------  -----------------  -----------------
       1       -0.005429910297    -0.006083975040     0.003459075401
       2        0.006454945646     0.007676482957    -0.007919343631
       3       -0.000421935614    -0.001584850266     0.012238648580
       4        0.000009500078     0.000019464310     0.000071750543
       5       -0.000630630749    -0.000022730822    -0.007798643377
       6       -0.000007720649     0.000003007821    -0.000028402753
       7        0.000004452446     0.000005019326    -0.000019203206
       8        0.000003978147     0.000000517190    -0.000019430932
       9        0.000003021412    -0.000006370711     0.000009082244
      10        0.000007732673    -0.000003872928     0.000000113748
      11        0.000003192130    -0.000000205106     0.000007153621
      12       -0.000002269972     0.000000800871    -0.000005611586
      13        0.000007452270     0.000000661152     0.000002362023
      14       -0.000001807529    -0.000003948757     0.000002449327

  **** Optimization is complete! (in 6 steps) ****
    Final optimized geometry and variables:
    Molecular point group: c1

    Geometry (in Angstrom), charge = 0, multiplicity = 1:

    H            2.565496763395    -0.881176948875     0.745318565853
    O            2.043623986914    -0.865902525734    -0.048087371034
    C            1.053760660292     0.061973051825     0.029266057413
    C           -0.317810250576    -0.562676221336     0.014513048383
    O            1.277997676410     1.221522540471     0.012614381250
    C           -1.458179068052     0.449724773748    -0.016377090171
    H           -0.353848954973    -1.227334035809    -0.844915104756
    H           -0.389207982447    -1.211434194048     0.884941816090
    C           -2.827795781954    -0.227291732491    -0.032932725958
    H           -1.347833373402     1.083663030497    -0.889627755903
    H           -1.379712312270     1.104862908506     0.844875009103
    H           -2.943514443116    -0.864371964932    -0.905239821444
    H           -3.623369583199     0.510053805220    -0.055295986140
    H           -2.975023518926    -0.844895556600     0.848778587626

  Mulliken Charges: (a.u.)
   Center  Symbol    Alpha    Beta     Spin     Total
       1     H     0.26573  0.26573  0.00000  0.46854
       2     O     4.36777  4.36777  0.00000 -0.73553
       3     C     2.63074  2.63074  0.00000  0.73853
       4     C     3.20821  3.20821  0.00000 -0.41641
       5     O     4.25077  4.25077  0.00000 -0.50154
       6     C     3.15272  3.15272  0.00000 -0.30543
       7     H     0.39719  0.39719  0.00000  0.20562
       8     H     0.40665  0.40665  0.00000  0.18670
       9     C     3.24277  3.24277  0.00000 -0.48554
      10     H     0.40933  0.40933  0.00000  0.18135
      11     H     0.41177  0.41177  0.00000  0.17645
      12     H     0.42034  0.42034  0.00000  0.15931
      13     H     0.41438  0.41438  0.00000  0.17124
      14     H     0.42164  0.42164  0.00000  0.15671

   Total alpha = 24.00000, Total beta = 24.00000, Total charge =  0.00000
