  ==> Input File <==

--------------------------------------------------------------------------
set {
	reference rhf
	basis 6-31G*
}

set_num_threads( 4 )
memory 2 gb

molecule MOL {
0 1

H	 -0.476857	 -1.603889	 0.296860
N	 -0.626943	 -0.667432	 -0.000092
C	 -1.979713	 -0.158776	 0.000050
C	 0.445845	 0.066855	 -0.382342
H	 -2.520245	 -0.492427	 -0.879443
H	 -1.934741	 0.918111	 -0.004428
H	 -2.517790	 -0.485056	 0.883818
C	 1.770327	 -0.665639	 -0.303693
O	 0.364770	 1.204768	 -0.754896
H	 1.761077	 -1.542893	 -0.942986
H	 2.557433	 0.000722	 -0.623260
H	 1.967473	 -0.993153	 0.712282

	symmetry c1
}
set optking {
	frozen_dihedral = ("
		4 2 3 5
	")
}

ee = optimize('scf')
oeprop('DIPOLE', 'QUADRUPOLE', 'MULLIKEN_CHARGES')
f=open( 'psi4out.xyz', 'w' )
f.write( "12  " )
f.write( str(ee) + "\n" )
f.write( MOL.save_string_xyz() )
f.close()
--------------------------------------------------------------------------

    Molecular point group: c1
  Charge       = 0
  Multiplicity = 1
  Basis Set: 6-31G*
  Basis Set:
  @DF-RHF Final Energy:  -247.00538746649644
    Total Energy =                       -247.0053874664964724
    Molecular point group: c1
  Basis Set: 6-31G*
  Basis Set:
  Basis Set: 6-31G*
  Basis Set:
  @DF-RHF Final Energy:  -247.00549060355368
    Total Energy =                       -247.0054906035537101
  Basis Set: 6-31G*
  Basis Set:
  Basis Set: 6-31G*
  Basis Set:
  @DF-RHF Final Energy:  -247.00550568793628
    Total Energy =                       -247.0055056879362496
  Basis Set: 6-31G*
  Basis Set:
  Basis Set: 6-31G*
  Basis Set:
  @DF-RHF Final Energy:  -247.00552739936589
    Total Energy =                       -247.0055273993658034
  Basis Set: 6-31G*
  Basis Set:
  @DF-RHF Final Energy:  -247.00553943693862
    Total Energy =                       -247.0055394369387614
  @DF-RHF Final Energy:  -247.00554220840172
    Total Energy =                       -247.0055422084017209
  @DF-RHF Final Energy:  -247.00554393789020
    Total Energy =                       -247.0055439378902520
  @DF-RHF Final Energy:  -247.00554796336789
    Total Energy =                       -247.0055479633676896
  @DF-RHF Final Energy:  -247.00555447949984
    Total Energy =                       -247.0055544794996649
  @DF-RHF Final Energy:  -247.00558152540074
    Total Energy =                       -247.0055815254006575
  @DF-RHF Final Energy:  -247.00558954489699
    Total Energy =                       -247.0055895448969636
  @DF-RHF Final Energy:  -247.00559838009787
    Total Energy =                       -247.0055983800978652
  @DF-RHF Final Energy:  -247.00560873582373
    Total Energy =                       -247.0056087358240120
  @DF-RHF Final Energy:  -247.00561707976718
    Total Energy =                       -247.0056170797671484
  @DF-RHF Final Energy:  -247.00562453735449
    Total Energy =                       -247.0056245373543788
  @DF-RHF Final Energy:  -247.00563165559149
    Total Energy =                       -247.0056316555914009
  @DF-RHF Final Energy:  -247.00563805496023
    Total Energy =                       -247.0056380549602295
  @DF-RHF Final Energy:  -247.00564388684518
    Total Energy =                       -247.0056438868450073
  @DF-RHF Final Energy:  -247.00564910581807
    Total Energy =                       -247.0056491058178381
  @DF-RHF Final Energy:  -247.00565370350324
    Total Energy =                       -247.0056537035032989
  Basis Set: 6-31G*
  Basis Set:
  @DF-RHF Final Energy:  -247.00565748797575
    Total Energy =                       -247.0056574879757818
  Basis Set: 6-31G*
  Basis Set:
  Basis Set: 6-31G*
  Basis Set:
  @DF-RHF Final Energy:  -247.00566051633697
    Total Energy =                       -247.0056605163368886
  Basis Set: 6-31G*
  Basis Set:
  Basis Set: 6-31G*
  Basis Set:
  @DF-RHF Final Energy:  -247.00566280832786
    Total Energy =                       -247.0056628083278270
  Basis Set: 6-31G*
  Basis Set:
  Charge       = 0
  Multiplicity = 1
  Basis Set: 6-31G*
  Basis Set:

    Orbital Energies (a.u.)
    -----------------------

    Doubly Occupied:

       1A    -20.513920     2A    -15.582889     3A    -11.342964
       4A    -11.254146     5A    -11.230029     6A     -1.383324
       7A     -1.228779     8A     -1.015348     9A     -0.932525
      10A     -0.787451    11A     -0.689350    12A     -0.648592
      13A     -0.632119    14A     -0.585934    15A     -0.579714
      16A     -0.553837    17A     -0.545542    18A     -0.505222
      19A     -0.412366    20A     -0.384762

  @DF-RHF Final Energy:  -247.00566327256880

   => Energetics <=

    Nuclear Repulsion Energy =            181.3332085532304916
    One-Electron Energy =                -695.0601179954558120
    Two-Electron Energy =                 266.7212461696566947
    DFT Exchange-Correlation Energy =       0.0000000000000000
    Empirical Dispersion Energy =           0.0000000000000000
    PCM Polarization Energy =               0.0000000000000000
    EFP Energy =                            0.0000000000000000
    Total Energy =                       -247.0056632725685972
    Molecular point group: c1
  Basis Set: 6-31G*
  Basis Set:

  -Total Gradient:
     Atom            X                  Y                   Z
    ------   -----------------  -----------------  -----------------
       1        0.000001433364    -0.000000939697    -0.000000824252
       2       -0.000055852027    -0.000189827570    -0.000218285953
       3        0.000092132566     0.000240103244    -0.000095321668
       4        0.000022373195     0.000091157429     0.000164289855
       5       -0.000062842471    -0.000150525429     0.000139238388
       6       -0.000000928607     0.000000186092    -0.000000238738
       7       -0.000000233497     0.000000561011    -0.000000126299
       8        0.000000589869     0.000003522268     0.000001683892
       9        0.000003938472     0.000007063315     0.000012159509
      10       -0.000005055989    -0.000009178941     0.000002836126
      11        0.000001933537    -0.000000040648    -0.000010823131
      12        0.000002511587     0.000007918922     0.000005412274

  **** Optimization is complete! (in 24 steps) ****
    Final optimized geometry and variables:
    Molecular point group: c1

    Geometry (in Angstrom), charge = 0, multiplicity = 1:

    H           -0.442520185974    -1.470481574151     0.799994195872
    N           -0.594053432448    -0.564121374218     0.423023396757
    C           -1.953166641417    -0.079944161598     0.333033360048
    C            0.458878118894     0.099168333960    -0.109034019199
    H           -2.507117454472    -0.579448248358    -0.455926123865
    H           -1.926800677402     0.977046953637     0.122651681936
    H           -2.465915811959    -0.241780254865     1.273871745857
    C            1.793055876494    -0.609940573510    -0.000347692173
    O            0.356351266860     1.166817763828    -0.648854581389
    H            1.975567676817    -1.154596143604    -0.921325664133
    H            2.571767892690     0.131415014311     0.110702526607
    H            1.836080126012    -1.308741441355     0.827207594687

  Mulliken Charges: (a.u.)
   Center  Symbol    Alpha    Beta     Spin     Total
       1     H     0.31049  0.31049  0.00000  0.37901
       2     N     3.89326  3.89326  0.00000 -0.78651
       3     C     3.14173  3.14173  0.00000 -0.28346
       4     C     2.62876  2.62876  0.00000  0.74248
       5     H     0.41606  0.41606  0.00000  0.16788
       6     H     0.38745  0.38745  0.00000  0.22509
       7     H     0.41645  0.41645  0.00000  0.16709
       8     C     3.29122  3.29122  0.00000 -0.58245
       9     O     4.30391  4.30391  0.00000 -0.60781
      10     H     0.40008  0.40008  0.00000  0.19984
      11     H     0.39387  0.39387  0.00000  0.21226
      12     H     0.41671  0.41671  0.00000  0.16658

   Total alpha = 20.00000, Total beta = 20.00000, Total charge =  0.00000
