                              Psi4 1.0.54 Driver

  ==> Input File <==

--------------------------------------------------------------------------
set {
	reference rhf
	basis cc-pvtz
}

set_num_threads( 4 )
memory 2 gb

molecule MOL {
0 1

H	 -3.849312	 -0.233765	 4.573925
O	 -3.274885	 -0.297855	 5.314031
C	 -2.503567	 -1.467183	 5.230291
C	 -1.420046	 -1.403945	 4.164144
H	 -2.047144	 -1.590266	 6.203177
H	 -3.142558	 -2.332056	 5.062552
C	 -1.950726	 -1.317510	 2.734893
H	 -0.782468	 -0.549365	 4.369923
H	 -0.800288	 -2.291754	 4.264604
C	 -0.835316	 -1.289097	 1.690916
H	 -2.563608	 -0.428118	 2.633109
H	 -2.600187	 -2.169216	 2.539744
C	 -1.311023	 -1.277304	 0.237018
H	 -0.202370	 -0.423002	 1.868362
H	 -0.202870	 -2.160215	 1.837998
C	 -2.041121	 -0.006551	 -0.194127
H	 -0.445723	 -1.413363	 -0.405843
H	 -1.953416	 -2.137663	 0.063038
C	 -3.489218	 0.042606	 0.286507
H	 -2.022185	 0.066287	 -1.279394
H	 -1.518764	 0.869305	 0.178730
C	 -4.219984	 1.311773	 -0.139038
H	 -4.022855	 -0.824300	 -0.093339
H	 -3.510372	 -0.038577	 1.370031
H	 -4.244251	 1.405725	 -1.219696
H	 -5.244345	 1.313233	 0.215630
H	 -3.732090	 2.196311	 0.257073

	symmetry c1
}
set optking {
	frozen_dihedral = ("
		10 13 16 20
	")
}

ee,wfn = optimize('scf', return_wfn=True)
oeprop( wfn, 'DIPOLE', 'QUADRUPOLE', 'MULLIKEN_CHARGES')
f=open( 'psi4out.xyz', 'w' )
f.write( "27  " )
f.write( str(ee) + "\n" )
f.write( MOL.save_string_xyz() )
f.close()
--------------------------------------------------------------------------

    Molecular point group: c1
  Charge       = 0
  Multiplicity = 1
  Basis Set: CC-PVTZ
  Basis Set:
  @DF-RHF Final Energy:  -388.41661443919429
    Total Energy =                       -388.4166144391939497
    Molecular point group: c1
  Basis Set: CC-PVTZ
  Basis Set:
  Basis Set: CC-PVTZ
  Basis Set:
  @DF-RHF Final Energy:  -388.41371838217930
    Total Energy =                       -388.4137183821785584
  Basis Set: CC-PVTZ
  Basis Set:
  Basis Set: CC-PVTZ
  Basis Set:
  @DF-RHF Final Energy:  -388.42187001936958
    Total Energy =                       -388.4218700193696350
  Basis Set: CC-PVTZ
  Basis Set:
  Basis Set: CC-PVTZ
  Basis Set:
  @DF-RHF Final Energy:  -388.42261650095497
    Total Energy =                       -388.4226165009545184
  Basis Set: CC-PVTZ
  Basis Set:
  @DF-RHF Final Energy:  -388.42267700636631
    Total Energy =                       -388.4226770063664844
  @DF-RHF Final Energy:  -388.42269688430116
    Total Energy =                       -388.4226968843016721
  @DF-RHF Final Energy:  -388.42270786009664
    Total Energy =                       -388.4227078600965797
  @DF-RHF Final Energy:  -388.42272582448550
    Total Energy =                       -388.4227258244862924
  Basis Set: CC-PVTZ
  Basis Set:
  @DF-RHF Final Energy:  -388.42272992276941
    Total Energy =                       -388.4227299227688945
  Basis Set: CC-PVTZ
  Basis Set:
  Basis Set: CC-PVTZ
  Basis Set:
  @DF-RHF Final Energy:  -388.42273283155220
    Total Energy =                       -388.4227328315522527
  Basis Set: CC-PVTZ
  Basis Set:
  Basis Set: CC-PVTZ
  Basis Set:
  @DF-RHF Final Energy:  -388.42273387258638
    Total Energy =                       -388.4227338725866048
  Basis Set: CC-PVTZ
  Basis Set:
  Charge       = 0
  Multiplicity = 1
  Basis Set: CC-PVTZ
  Basis Set:

    Orbital Energies (a.u.)
    -----------------------

    Doubly Occupied:

       1A    -20.545570     2A    -11.265054     3A    -11.216007
       4A    -11.214847     5A    -11.214189     6A    -11.213986
       7A    -11.212935     8A    -11.212753     9A    -11.207487
      10A     -1.363371    11A     -1.094194    12A     -1.061472
      13A     -1.012034    14A     -0.951399    15A     -0.888679
      16A     -0.829213    17A     -0.794850    18A     -0.776702
      19A     -0.696762    20A     -0.655420    21A     -0.629716
      22A     -0.616699    23A     -0.602347    24A     -0.589886
      25A     -0.578508    26A     -0.560797    27A     -0.541037
      28A     -0.517971    29A     -0.510127    30A     -0.497998
      31A     -0.491518    32A     -0.477585    33A     -0.468145
      34A     -0.461145    35A     -0.446121    36A     -0.441075
      37A     -0.424685

  @DF-RHF Final Energy:  -388.42273450652169

   => Energetics <=

    Nuclear Repulsion Energy =            468.2329432954329604
    One-Electron Energy =               -1454.7467947664549683
    Two-Electron Energy =                 598.0911169644998608
    DFT Exchange-Correlation Energy =       0.0000000000000000
    Empirical Dispersion Energy =           0.0000000000000000
    PCM Polarization Energy =               0.0000000000000000
    EFP Energy =                            0.0000000000000000
    Total Energy =                       -388.4227345065221471
    Molecular point group: c1
  Basis Set: CC-PVTZ
  Basis Set:

  -Total Gradient:
     Atom            X                  Y                   Z
    ------   -----------------  -----------------  -----------------
       1       -0.000002519112    -0.000002550222     0.000000437217
       2        0.000004020440     0.000008029941     0.000001067970
       3       -0.000009201497     0.000000222903    -0.000007038311
       4        0.000008612628    -0.000003682585     0.000005938700
       5        0.000001552388    -0.000000569479    -0.000000219948
       6        0.000002467964    -0.000005620481    -0.000000200707
       7       -0.000004820031     0.000003510629    -0.000000920967
       8        0.000001324418     0.000003388432    -0.000000367040
       9        0.000001798138    -0.000001914939     0.000000258330
      10        0.000169437881     0.000109254197    -0.000056540215
      11        0.000003061560     0.000006331621     0.000011005886
      12       -0.000008542156     0.000001722669    -0.000008424368
      13       -0.000210284222    -0.000129162108     0.000086871919
      14        0.000008906139     0.000000645574    -0.000009644754
      15       -0.000004358176    -0.000007284057     0.000008011775
      16       -0.000188530239    -0.000163698070    -0.000041692210
      17        0.000001351687     0.000014761634     0.000000260038
      18        0.000014567094    -0.000007746673    -0.000001929442
      19       -0.000001499303     0.000004691095     0.000004756224
      20        0.000216074173     0.000171893954     0.000015592548
      21       -0.000002328783     0.000001332295    -0.000000823358
      22       -0.000000078759     0.000003150816    -0.000001107063
      23        0.000000525227    -0.000001006328    -0.000002780656
      24       -0.000002482651    -0.000004174736    -0.000001295658
      25        0.000000224408    -0.000000102589    -0.000001569382
      26        0.000000983376    -0.000000957768    -0.000000270401
      27       -0.000000262588    -0.000000465727     0.000000623883

  **** Optimization is complete! (in 12 steps) ****
    Final optimized geometry and variables:
    Molecular point group: c1

    Geometry (in Angstrom), charge = 0, multiplicity = 1:

    H           -1.623388105312    -0.362162097872     2.547708144691
    O           -1.042071367090    -0.273220673666     3.279627280686
    C            0.055638531832    -1.135719627295     3.135640785512
    C            1.054790424490    -0.675225229235     2.084865409216
    H            0.537028712985    -1.166193690063     4.103810568677
    H           -0.282471484829    -2.145673365276     2.912234882757
    C            0.505830517290    -0.665389191162     0.659695625295
    H            1.401344638561     0.319106404560     2.350277951414
    H            1.918469516590    -1.334005305330     2.134120950698
    C            1.554757166184    -0.239497183611    -0.367696588760
    H           -0.348533034433    -0.002005439998     0.612840747763
    H            0.143962695113    -1.660302324245     0.407264248740
    C            1.151236509367    -0.335463627736    -1.845047146952
    H            1.879948005214     0.774995717726    -0.150662585561
    H            2.428925499236    -0.868811537129    -0.225086927623
    C            0.277218938665     0.788461262127    -2.417298185087
    H            2.069994515546    -0.346165604389    -2.422964823284
    H            0.675106269671    -1.295729622656    -2.029983586221
    C           -1.216391858946     0.734847031061    -2.097232722433
    H            0.383495727281     0.766276238402    -3.498615029007
    H            0.678218919238     1.748755285319    -2.101015407609
    C           -2.013342084641     1.788842389340    -2.860260383009
    H           -1.599797863653    -0.252113465840    -2.342234446893
    H           -1.382247312591     0.873486997773    -1.036077383483
    H           -1.915236214410     1.654178384996    -3.932244815304
    H           -3.068136426830     1.737452970547    -2.615501493898
    H           -1.667492674091     2.789155214485    -2.621354547411

  Mulliken Charges: (a.u.)
   Center  Symbol    Alpha    Beta     Spin     Total
       1     H     0.39213  0.39213  0.00000  0.21574
       2     O     4.20544  4.20544  0.00000 -0.41088
       3     C     2.98069  2.98069  0.00000  0.03863
       4     C     3.08946  3.08946  0.00000 -0.17892
       5     H     0.44848  0.44848  0.00000  0.10304
       6     H     0.46913  0.46913  0.00000  0.06173
       7     C     3.10670  3.10670  0.00000 -0.21339
       8     H     0.45085  0.45085  0.00000  0.09829
       9     H     0.45483  0.45483  0.00000  0.09034
      10     C     3.09476  3.09476  0.00000 -0.18951
      11     H     0.45403  0.45403  0.00000  0.09195
      12     H     0.45265  0.45265  0.00000  0.09471
      13     C     3.10592  3.10592  0.00000 -0.21185
      14     H     0.45165  0.45165  0.00000  0.09670
      15     H     0.44830  0.44830  0.00000  0.10339
      16     C     3.09065  3.09065  0.00000 -0.18129
      17     H     0.44392  0.44392  0.00000  0.11216
      18     H     0.45407  0.45407  0.00000  0.09185
      19     C     3.08889  3.08889  0.00000 -0.17779
      20     H     0.44928  0.44928  0.00000  0.10144
      21     H     0.45354  0.45354  0.00000  0.09292
      22     C     3.15088  3.15088  0.00000 -0.30176
      23     H     0.45341  0.45341  0.00000  0.09318
      24     H     0.45397  0.45397  0.00000  0.09206
      25     H     0.45359  0.45359  0.00000  0.09281
      26     H     0.44844  0.44844  0.00000  0.10312
      27     H     0.45433  0.45433  0.00000  0.09133

   Total alpha = 37.00000, Total beta = 37.00000, Total charge =  0.00000

*** Psi4 exiting successfully. Buy a developer a beer!
