  ==> Input File <==

--------------------------------------------------------------------------
set {
	reference rhf
	basis 6-31G*
}

set_num_threads( 4 )
memory 2 gb

molecule MOL {
0 1

H	 1.748059	 -1.687468	 0.254128
O	 1.073768	 -1.108019	 -0.070310
C	 1.135793	 0.118896	 0.612333
C	 0.031547	 1.023609	 0.088541
H	 2.099474	 0.597675	 0.448081
H	 1.029748	 -0.034863	 1.683880
C	 -1.134819	 0.293262	 -0.585751
H	 0.474374	 1.714721	 -0.623187
H	 -0.338529	 1.620940	 0.920081
C	 -1.917817	 -0.639439	 0.339494
H	 -0.758119	 -0.268455	 -1.433105
H	 -1.813832	 1.041889	 -0.986690
H	 -2.777680	 -1.057197	 -0.174994
H	 -1.310268	 -1.471279	 0.680599
H	 -2.283753	 -0.111424	 1.216626

	symmetry c1
}
set optking {
	frozen_dihedral = ("
		2 3 4 8
	")
}

ee = optimize('scf')
oeprop('DIPOLE', 'QUADRUPOLE', 'MULLIKEN_CHARGES')
f=open( 'psi4out.xyz', 'w' )
f.write( "15  " )
f.write( str(ee) + "\n" )
f.write( MOL.save_string_xyz() )
f.close()
--------------------------------------------------------------------------

    Molecular point group: c1
  Charge       = 0
  Multiplicity = 1
  Basis Set: 6-31G*
  Basis Set:
  @DF-RHF Final Energy:  -232.13746867379481
    Total Energy =                       -232.1374686737949560
    Molecular point group: c1
  Basis Set: 6-31G*
  Basis Set:
  Basis Set: 6-31G*
  Basis Set:
  @DF-RHF Final Energy:  -232.13849540218018
    Total Energy =                       -232.1384954021802400
  Basis Set: 6-31G*
  Basis Set:
  Basis Set: 6-31G*
  Basis Set:
  @DF-RHF Final Energy:  -232.13880109660849
    Total Energy =                       -232.1388010966085744
  Basis Set: 6-31G*
  Basis Set:
  Basis Set: 6-31G*
  Basis Set:
  @DF-RHF Final Energy:  -232.13885291278956
    Total Energy =                       -232.1388529127895026
  Basis Set: 6-31G*
  Basis Set:
  Basis Set: 6-31G*
  Basis Set:
  @DF-RHF Final Energy:  -232.13886821775378
    Total Energy =                       -232.1388682177536111
  Basis Set: 6-31G*
  Basis Set:
  Basis Set: 6-31G*
  Basis Set:
  @DF-RHF Final Energy:  -232.13886927363492
    Total Energy =                       -232.1388692736347821
  Basis Set: 6-31G*
  Basis Set:
  Charge       = 0
  Multiplicity = 1
  Basis Set: 6-31G*
  Basis Set:

    Orbital Energies (a.u.)
    -----------------------

    Doubly Occupied:

       1A    -20.554279     2A    -11.269159     3A    -11.213013
       4A    -11.206382     5A    -11.197780     6A     -1.360684
       7A     -1.059532     8A     -0.967143     9A     -0.865285
      10A     -0.773469    11A     -0.702613    12A     -0.649068
      13A     -0.606431    14A     -0.570300    15A     -0.559954
      16A     -0.526029    17A     -0.506285    18A     -0.475094
      19A     -0.462479    20A     -0.450461    21A     -0.426622

  @DF-RHF Final Energy:  -232.13886933633873

   => Energetics <=

    Nuclear Repulsion Energy =            193.3193648902291955
    One-Electron Energy =                -698.1123474630718420
    Two-Electron Energy =                 272.6541132365039743
    DFT Exchange-Correlation Energy =       0.0000000000000000
    Empirical Dispersion Energy =           0.0000000000000000
    PCM Polarization Energy =               0.0000000000000000
    EFP Energy =                            0.0000000000000000
    Total Energy =                       -232.1388693363387006
    Molecular point group: c1
  Basis Set: 6-31G*
  Basis Set:

  -Total Gradient:
     Atom            X                  Y                   Z
    ------   -----------------  -----------------  -----------------
       1       -0.000008669698     0.000020090142     0.000003772818
       2       -0.003246194290    -0.002062029188     0.003306305141
       3        0.004489713490     0.003620055236    -0.003175991059
       4       -0.002108492911    -0.005603884653    -0.005177632139
       5        0.000001612144     0.000027230476     0.000022409619
       6        0.000000791417    -0.000019285132    -0.000002951062
       7        0.000006804159     0.000005147207     0.000016985769
       8        0.000835538457     0.004022689586     0.005020548894
       9        0.000000293397    -0.000012006167    -0.000015893723
      10       -0.000007450419     0.000016766194     0.000007410756
      11        0.000015118353    -0.000009338886    -0.000000093717
      12        0.000008702319     0.000001881007     0.000007462367
      13       -0.000000687927     0.000004944421    -0.000004174312
      14       -0.000006105336    -0.000013107270    -0.000003420135
      15        0.000019026843     0.000000847027    -0.000004739217

  **** Optimization is complete! (in 7 steps) ****
    Final optimized geometry and variables:
    Molecular point group: c1

    Geometry (in Angstrom), charge = 0, multiplicity = 1:

    H            2.004254034828    -1.541013091339     0.131738566496
    O            1.291482962691    -1.006430721700    -0.187672644522
    C            1.260387058036     0.203642943661     0.528280838921
    C            0.138730593148     1.109108968571    -0.003654686541
    H            2.214888606052     0.719021562089     0.453919199979
    H            1.090823912725    -0.008480287806     1.581875343404
    C           -1.038303413891     0.393409998851    -0.670187673714
    H            0.561473331223     1.854793140893    -0.671233502954
    H           -0.237294243909     1.685352462676     0.840434392917
    C           -1.839998077527    -0.491599459428     0.284507321232
    H           -0.678605250776    -0.200627153353    -1.501438495395
    H           -1.695550731270     1.152983788372    -1.086969849049
    H           -2.687905789899    -0.939582021395    -0.225029329152
    H           -1.229446393617    -1.295362545569     0.678934294969
    H           -2.227020722012     0.084113010082     1.121866602322

  Mulliken Charges: (a.u.)
   Center  Symbol    Alpha    Beta     Spin     Total
       1     H     0.28036  0.28036  0.00000  0.43929
       2     O     4.37077  4.37077  0.00000 -0.74153
       3     C     2.99478  2.99478  0.00000  0.01045
       4     C     3.17119  3.17119  0.00000 -0.34238
       5     H     0.42813  0.42813  0.00000  0.14374
       6     H     0.43063  0.43063  0.00000  0.13875
       7     C     3.14678  3.14678  0.00000 -0.29356
       8     H     0.41786  0.41786  0.00000  0.16427
       9     H     0.42314  0.42314  0.00000  0.15373
      10     C     3.24282  3.24282  0.00000 -0.48565
      11     H     0.40782  0.40782  0.00000  0.18437
      12     H     0.42480  0.42480  0.00000  0.15039
      13     H     0.42152  0.42152  0.00000  0.15696
      14     H     0.41184  0.41184  0.00000  0.17632
      15     H     0.42757  0.42757  0.00000  0.14486

   Total alpha = 21.00000, Total beta = 21.00000, Total charge = -0.00000
