  ==> Input File <==

--------------------------------------------------------------------------
set {
	reference rhf
	basis 6-31G*
}

set_num_threads( 1 )
memory 2 gb

molecule MOL {
0 1

O	 3.225979	 0.970355	 -0.599647
C	 2.701189	 0.057885	 -0.047330
C	 1.245376	 -0.013843	 0.345420
O	 3.347903	 -1.046386	 0.304773
C	 0.455112	 1.231400	 -0.050772
H	 0.838542	 -0.913825	 -0.103701
H	 1.208210	 -0.175333	 1.419774
C	 -0.998893	 1.219485	 0.433193
H	 0.482531	 1.345121	 -1.130325
H	 0.957290	 2.103070	 0.354729
C	 -1.883438	 0.145884	 -0.207175
H	 -1.431207	 2.195402	 0.224832
H	 -1.019646	 1.105716	 1.516076
C	 -2.438547	 -0.852516	 0.810691
H	 -2.710702	 0.627130	 -0.726652
H	 -1.323196	 -0.398910	 -0.963680
C	 -3.319720	 -1.933069	 0.181350
H	 -3.012306	 -0.316197	 1.564613
H	 -1.612016	 -1.326294	 1.338025
C	 -3.873150	 -2.923774	 1.205030
H	 -4.145605	 -1.461323	 -0.346865
H	 -2.746638	 -2.473119	 -0.569453
H	 -4.493252	 -3.676935	 0.728764
H	 -4.480553	 -2.418648	 1.950755
H	 -3.070740	 -3.437728	 1.726818
C	 4.728119	 -1.109107	 -0.004993
H	 4.882018	 -1.033965	 -1.071845
H	 5.068212	 -2.067527	 0.355250
H	 5.265056	 -0.311663	 0.488280

	symmetry c1
}
set optking {
	frozen_dihedral = ("
		21 17 14 11,
		17 14 11 15,
		6 3 5 9,
		11 8 5 9,
		2 4 26 27,
		1 2 4 26,
		6 3 2 1
	")
}

ee = energy('scf')
oeprop('DIPOLE', 'QUADRUPOLE', 'MULLIKEN_CHARGES')
f=open( 'psi4out.xyz', 'w' )
f.write( "29  " )
f.write( str(ee) + "\n" )
f.write( MOL.save_string_xyz() )
f.close()
--------------------------------------------------------------------------

    Molecular point group: c1

    Geometry (in Angstrom), charge = 0, multiplicity = 1:

       Center              X                  Y                   Z               Mass
    ------------   -----------------  -----------------  -----------------  -----------------
           O          2.890127107178     1.375601261682    -0.815144332767    15.994914619560
           C          2.365337107178     0.463131261682    -0.262827332767    12.000000000000
           C          0.909524107178     0.391403261682     0.129922667233    12.000000000000
           O          3.012051107178    -0.641139738318     0.089275667233    15.994914619560
           C          0.119260107178     1.636646261682    -0.266269332767    12.000000000000
           H          0.502690107178    -0.508578738318    -0.319198332767     1.007825032070
           H          0.872358107178     0.229913261682     1.204276667233     1.007825032070
           C         -1.334744892822     1.624731261682     0.217695667233    12.000000000000
           H          0.146679107178     1.750367261682    -1.345822332767     1.007825032070
           H          0.621438107178     2.508316261682     0.139231667233     1.007825032070
           C         -2.219289892822     0.551130261682    -0.422672332767    12.000000000000
           H         -1.767058892822     2.600648261682     0.009334667233     1.007825032070
           H         -1.355497892822     1.510962261682     1.300578667233     1.007825032070
           C         -2.774398892822    -0.447269738318     0.595193667233    12.000000000000
           H         -3.046553892822     1.032376261682    -0.942149332767     1.007825032070
           H         -1.659047892822     0.006336261682    -1.179177332767     1.007825032070
           C         -3.655571892822    -1.527822738318    -0.034147332767    12.000000000000
           H         -3.348157892822     0.089049261682     1.349115667233     1.007825032070
           H         -1.947867892822    -0.921047738318     1.122527667233     1.007825032070
           C         -4.209001892822    -2.518527738318     0.989532667233    12.000000000000
           H         -4.481456892822    -1.056076738318    -0.562362332767     1.007825032070
           H         -3.082489892822    -2.067872738318    -0.784950332767     1.007825032070
           H         -4.829103892822    -3.271688738318     0.513266667233     1.007825032070
           H         -4.816404892822    -2.013401738318     1.735257667233     1.007825032070
           H         -3.406591892822    -3.032481738318     1.511320667233     1.007825032070
           C          4.392267107178    -0.703860738318    -0.220490332767    12.000000000000
           H          4.546166107178    -0.628718738318    -1.287342332767     1.007825032070
           H          4.732360107178    -1.662280738318     0.139752667233     1.007825032070
           H          4.929204107178     0.093583261682     0.272782667233     1.007825032070

  Charge       = 0
  Multiplicity = 1
  Basis Set: 6-31G*
  Basis Set:

    Orbital Energies (a.u.)
    -----------------------

    Doubly Occupied:

       1A    -20.603658     2A    -20.545494     3A    -11.372391
       4A    -11.280870     5A    -11.235246     6A    -11.219112
       7A    -11.215990     8A    -11.215937     9A    -11.215316
      10A    -11.214389    11A    -11.209424    12A     -1.469363
      13A     -1.362799    14A     -1.098940    15A     -1.066297
      16A     -1.019632    17A     -0.976971    18A     -0.929646
      19A     -0.861813    20A     -0.800911    21A     -0.789249
      22A     -0.764239    23A     -0.701940    24A     -0.682630
      25A     -0.671976    26A     -0.647586    27A     -0.629580
      28A     -0.606398    29A     -0.596794    30A     -0.576055
      31A     -0.564918    32A     -0.559849    33A     -0.534774
      34A     -0.527180    35A     -0.513654    36A     -0.507621
      37A     -0.502588    38A     -0.475648    39A     -0.473229
      40A     -0.463035    41A     -0.457312    42A     -0.454983
      43A     -0.437192    44A     -0.436289

  @DF-RHF Final Energy:  -501.03863121366999

   => Energetics <=

    Nuclear Repulsion Energy =            621.0237260548913127
    One-Electron Energy =               -1913.1468945793385501
    Two-Electron Energy =                 791.0845373107797514
    DFT Exchange-Correlation Energy =       0.0000000000000000
    Empirical Dispersion Energy =           0.0000000000000000
    PCM Polarization Energy =               0.0000000000000000
    EFP Energy =                            0.0000000000000000
    Total Energy =                       -501.0386312136674860

  Mulliken Charges: (a.u.)
   Center  Symbol    Alpha    Beta     Spin     Total
       1     O     4.28572  4.28572  0.00000 -0.57145
       2     C     2.60513  2.60513  0.00000  0.78973
       3     C     3.20890  3.20890  0.00000 -0.41779
       4     O     4.30744  4.30744  0.00000 -0.61489
       5     C     3.15479  3.15479  0.00000 -0.30958
       6     H     0.39960  0.39960  0.00000  0.20080
       7     H     0.40103  0.40103  0.00000  0.19793
       8     C     3.16010  3.16010  0.00000 -0.32020
       9     H     0.41290  0.41290  0.00000  0.17421
      10     H     0.40969  0.40969  0.00000  0.18061
      11     C     3.15660  3.15660  0.00000 -0.31321
      12     H     0.41605  0.41605  0.00000  0.16790
      13     H     0.42080  0.42080  0.00000  0.15840
      14     C     3.15388  3.15388  0.00000 -0.30775
      15     H     0.41885  0.41885  0.00000  0.16229
      16     H     0.42216  0.42216  0.00000  0.15568
      17     C     3.15184  3.15184  0.00000 -0.30368
      18     H     0.42261  0.42261  0.00000  0.15478
      19     H     0.42455  0.42455  0.00000  0.15091
      20     C     3.23928  3.23928  0.00000 -0.47857
      21     H     0.42260  0.42260  0.00000  0.15481
      22     H     0.42358  0.42358  0.00000  0.15285
      23     H     0.41916  0.41916  0.00000  0.16168
      24     H     0.42171  0.42171  0.00000  0.15657
      25     H     0.42200  0.42200  0.00000  0.15601
      26     C     3.09243  3.09243  0.00000 -0.18486
      27     H     0.40906  0.40906  0.00000  0.18188
      28     H     0.40848  0.40848  0.00000  0.18304
      29     H     0.40906  0.40906  0.00000  0.18189

   Total alpha = 44.00000, Total beta = 44.00000, Total charge =  0.00000
