  ==> Input File <==

--------------------------------------------------------------------------
set {
	reference rhf
	basis 6-31G*
}

set_num_threads( 1 )
memory 2 gb

molecule MOL {
0 1

O	 3.225979	 0.970355	 -0.599647
C	 2.701189	 0.057885	 -0.047330
C	 1.245376	 -0.013843	 0.345420
O	 3.347903	 -1.046386	 0.304773
C	 1.016650	 -0.736110	 1.671365
H	 0.870993	 1.004276	 0.366892
H	 0.715988	 -0.507732	 -0.465457
C	 -0.462533	 -0.909597	 2.032493
H	 1.528546	 -0.199871	 2.464794
H	 1.486283	 -1.712377	 1.618741
C	 -1.213035	 0.393270	 2.323001
H	 -0.522125	 -1.548048	 2.910874
H	 -0.970042	 -1.448197	 1.233522
C	 -2.653010	 0.160149	 2.784656
H	 -0.676309	 0.952277	 3.088020
H	 -1.226226	 1.023670	 1.436776
C	 -3.414320	 1.455324	 3.072860
H	 -2.647967	 -0.459499	 3.679779
H	 -3.187246	 -0.408092	 2.024792
C	 -4.850240	 1.213646	 3.537001
H	 -2.881301	 2.024859	 3.831254
H	 -3.424193	 2.074130	 2.178007
H	 -5.363537	 2.149952	 3.733126
H	 -4.873303	 0.626265	 4.450591
H	 -5.420105	 0.675380	 2.784806
C	 4.728119	 -1.109107	 -0.004993
H	 4.882018	 -1.033965	 -1.071845
H	 5.068212	 -2.067527	 0.355250
H	 5.265056	 -0.311663	 0.488280

	symmetry c1
}
set optking {
	frozen_dihedral = ("
		21 17 14 11,
		17 14 11 15,
		15 11 8 5,
		6 3 5 9,
		11 8 5 9,
		2 4 26 27,
		1 2 4 26
	")
}

ee = energy('scf')
oeprop('DIPOLE', 'QUADRUPOLE', 'MULLIKEN_CHARGES')
f=open( 'psi4out.xyz', 'w' )
f.write( "29  " )
f.write( str(ee) + "\n" )
f.write( MOL.save_string_xyz() )
f.close()
--------------------------------------------------------------------------

    Molecular point group: c1

    Geometry (in Angstrom), charge = 0, multiplicity = 1:

       Center              X                  Y                   Z               Mass
    ------------   -----------------  -----------------  -----------------  -----------------
           O          2.853737739678     0.933906301605    -1.986095958593    15.994914619560
           C          2.328947739678     0.021436301605    -1.433778958593    12.000000000000
           C          0.873134739678    -0.050291698395    -1.041028958593    12.000000000000
           O          2.975661739678    -1.082834698395    -1.081675958593    15.994914619560
           C          0.644408739678    -0.772558698395     0.284916041407    12.000000000000
           H          0.498751739678     0.967827301605    -1.019556958593     1.007825032070
           H          0.343746739678    -0.544180698395    -1.851905958593     1.007825032070
           C         -0.834774260322    -0.946045698395     0.646044041407    12.000000000000
           H          1.156304739678    -0.236319698395     1.078345041407     1.007825032070
           H          1.114041739678    -1.748825698395     0.232292041407     1.007825032070
           C         -1.585276260322     0.356821301605     0.936552041407    12.000000000000
           H         -0.894366260322    -1.584496698395     1.524425041407     1.007825032070
           H         -1.342283260322    -1.484645698395    -0.152926958593     1.007825032070
           C         -3.025251260322     0.123700301605     1.398207041407    12.000000000000
           H         -1.048550260322     0.915828301605     1.701571041407     1.007825032070
           H         -1.598467260322     0.987221301605     0.050327041407     1.007825032070
           C         -3.786561260322     1.418875301605     1.686411041407    12.000000000000
           H         -3.020208260322    -0.495947698395     2.293330041407     1.007825032070
           H         -3.559487260322    -0.444540698395     0.638343041407     1.007825032070
           C         -5.222481260322     1.177197301605     2.150552041407    12.000000000000
           H         -3.253542260322     1.988410301605     2.444805041407     1.007825032070
           H         -3.796434260322     2.037681301605     0.791558041407     1.007825032070
           H         -5.735778260322     2.113503301605     2.346677041407     1.007825032070
           H         -5.245544260322     0.589816301605     3.064142041407     1.007825032070
           H         -5.792346260322     0.638931301605     1.398357041407     1.007825032070
           C          4.355877739678    -1.145555698395    -1.391441958593    12.000000000000
           H          4.509776739678    -1.070413698395    -2.458293958593     1.007825032070
           H          4.695970739678    -2.103975698395    -1.031198958593     1.007825032070
           H          4.892814739678    -0.348111698395    -0.898168958593     1.007825032070

  Charge       = 0
  Multiplicity = 1
  Basis Set: 6-31G*
  Basis Set:

    Orbital Energies (a.u.)
    -----------------------

    Doubly Occupied:

       1A    -20.604558     2A    -20.543610     3A    -11.371795
       4A    -11.281088     5A    -11.233950     6A    -11.223021
       7A    -11.219613     8A    -11.216587     9A    -11.215973
      10A    -11.214940    11A    -11.209151    12A     -1.469550
      13A     -1.361842    14A     -1.100430    15A     -1.068841
      16A     -1.019386    17A     -0.972803    18A     -0.931357
      19A     -0.864477    20A     -0.799578    21A     -0.790671
      22A     -0.773133    23A     -0.698676    24A     -0.680820
      25A     -0.672265    26A     -0.651632    27A     -0.626793
      28A     -0.604138    29A     -0.593114    30A     -0.578545
      31A     -0.561244    32A     -0.554542    33A     -0.536497
      34A     -0.531228    35A     -0.521422    36A     -0.512600
      37A     -0.497478    38A     -0.480860    39A     -0.472772
      40A     -0.464273    41A     -0.462714    42A     -0.454809
      43A     -0.443224    44A     -0.426032

  @DF-RHF Final Energy:  -501.04131996910542

   => Energetics <=

    Nuclear Repulsion Energy =            613.4506664635148354
    One-Electron Energy =               -1897.9600662391637798
    Two-Electron Energy =                 783.4680798065421641
    DFT Exchange-Correlation Energy =       0.0000000000000000
    Empirical Dispersion Energy =           0.0000000000000000
    PCM Polarization Energy =               0.0000000000000000
    EFP Energy =                            0.0000000000000000
    Total Energy =                       -501.0413199691067803

  Mulliken Charges: (a.u.)
   Center  Symbol    Alpha    Beta     Spin     Total
       1     O     4.28747  4.28747  0.00000 -0.57494
       2     C     2.60625  2.60625  0.00000  0.78751
       3     C     3.20983  3.20983  0.00000 -0.41966
       4     O     4.30308  4.30308  0.00000 -0.60615
       5     C     3.16042  3.16042  0.00000 -0.32083
       6     H     0.39644  0.39644  0.00000  0.20713
       7     H     0.40193  0.40193  0.00000  0.19613
       8     C     3.15605  3.15605  0.00000 -0.31211
       9     H     0.41807  0.41807  0.00000  0.16386
      10     H     0.40291  0.40291  0.00000  0.19418
      11     C     3.15509  3.15509  0.00000 -0.31017
      12     H     0.41900  0.41900  0.00000  0.16199
      13     H     0.42287  0.42287  0.00000  0.15427
      14     C     3.15043  3.15043  0.00000 -0.30087
      15     H     0.42280  0.42280  0.00000  0.15440
      16     H     0.42196  0.42196  0.00000  0.15608
      17     C     3.15153  3.15153  0.00000 -0.30306
      18     H     0.42379  0.42379  0.00000  0.15243
      19     H     0.42394  0.42394  0.00000  0.15213
      20     C     3.23939  3.23939  0.00000 -0.47878
      21     H     0.42275  0.42275  0.00000  0.15450
      22     H     0.42275  0.42275  0.00000  0.15449
      23     H     0.41900  0.41900  0.00000  0.16200
      24     H     0.42180  0.42180  0.00000  0.15640
      25     H     0.42179  0.42179  0.00000  0.15642
      26     C     3.09220  3.09220  0.00000 -0.18440
      27     H     0.40884  0.40884  0.00000  0.18231
      28     H     0.40896  0.40896  0.00000  0.18208
      29     H     0.40867  0.40867  0.00000  0.18265

   Total alpha = 44.00000, Total beta = 44.00000, Total charge =  0.00000
