  ==> Input File <==

--------------------------------------------------------------------------
set {
	reference rhf
	basis 6-31G*
}

set_num_threads( 4 )
memory 2 gb

molecule MOL {
0 1

O	 0.625532	 1.349589	 0.048827
C	 0.486134	 0.168980	 0.027094
C	 1.607981	 -0.841815	 0.022955
O	 -0.698257	 -0.426125	 0.001050
C	 2.989785	 -0.200910	 0.051700
H	 1.479922	 -1.465846	 -0.856496
H	 1.458297	 -1.497071	 0.875890
H	 3.140771	 0.438707	 -0.809379
H	 3.757599	 -0.967239	 0.047327
H	 3.119106	 0.406983	 0.938867
C	 -1.853104	 0.406779	 0.000512
C	 -3.066105	 -0.499277	 -0.000959
H	 -1.828410	 1.043074	 -0.873618
H	 -1.829857	 1.042383	 0.875188
H	 -3.071820	 -1.133106	 -0.880383
H	 -3.972708	 0.097145	 -0.001528
H	 -3.073405	 -1.133813	 0.877999

	symmetry c1
}
set optking {
	frozen_dihedral = ("
		2 4 11 13
	")
}

ee = optimize('scf')
oeprop('DIPOLE', 'QUADRUPOLE', 'MULLIKEN_CHARGES')
f=open( 'psi4out.xyz', 'w' )
f.write( "17  " )
f.write( str(ee) + "\n" )
f.write( MOL.save_string_xyz() )
f.close()
--------------------------------------------------------------------------

    Molecular point group: c1
  Charge       = 0
  Multiplicity = 1
  Basis Set: 6-31G*
  Basis Set:
  @DF-RHF Final Energy:  -344.91198127348957
    Total Energy =                       -344.9119812734895731
    Molecular point group: c1
  Basis Set: 6-31G*
  Basis Set:
  Basis Set: 6-31G*
  Basis Set:
  @DF-RHF Final Energy:  -344.91197122699350
    Total Energy =                       -344.9119712269932734
  Basis Set: 6-31G*
  Basis Set:
  Basis Set: 6-31G*
  Basis Set:
  @DF-RHF Final Energy:  -344.91198152008002
    Total Energy =                       -344.9119815200799621
  Basis Set: 6-31G*
  Basis Set:
  Charge       = 0
  Multiplicity = 1
  Basis Set: 6-31G*
  Basis Set:

    Orbital Energies (a.u.)
    -----------------------

    Doubly Occupied:

       1A    -20.600878     2A    -20.544297     3A    -11.371296
       4A    -11.284795     5A    -11.237560     6A    -11.222314
       7A    -11.215768     8A     -1.467535     9A     -1.361905
      10A     -1.069990    11A     -1.031798    12A     -0.910724
      13A     -0.847318    14A     -0.772756    15A     -0.695478
      16A     -0.689748    17A     -0.664324    18A     -0.629896
      19A     -0.582114    20A     -0.572202    21A     -0.558425
      22A     -0.523432    23A     -0.518954    24A     -0.514688
      25A     -0.504620    26A     -0.492642    27A     -0.452617
      28A     -0.436119

  @DF-RHF Final Energy:  -344.91198171653690

   => Energetics <=

    Nuclear Repulsion Energy =            314.6840177474792313
    One-Electron Energy =               -1093.6436075787178197
    Two-Electron Energy =                 434.0476081147015748
    DFT Exchange-Correlation Energy =       0.0000000000000000
    Empirical Dispersion Energy =           0.0000000000000000
    PCM Polarization Energy =               0.0000000000000000
    EFP Energy =                            0.0000000000000000
    Total Energy =                       -344.9119817165370705
    Molecular point group: c1
  Basis Set: 6-31G*
  Basis Set:

  -Total Gradient:
     Atom            X                  Y                   Z
    ------   -----------------  -----------------  -----------------
       1        0.000000554651     0.000006142882     0.000003383842
       2       -0.000010255976    -0.000011360526     0.000092365164
       3        0.000001481335     0.000000464253     0.000010243244
       4       -0.000005614323    -0.000015218703    -0.000157058564
       5        0.000000170062    -0.000000097901    -0.000003150559
       6       -0.000000269449     0.000000296013    -0.000001810331
       7        0.000000472506    -0.000001330992    -0.000002361324
       8        0.000000078649    -0.000000542526     0.000001056652
       9        0.000000119224    -0.000000134634     0.000000183129
      10        0.000000081587     0.000000527195     0.000000907947
      11        0.000072445534     0.000109137437     0.000127280566
      12        0.000002967263     0.000001393706     0.000000531150
      13       -0.000062056594    -0.000079424924    -0.000068867234
      14        0.000002023747    -0.000008736763    -0.000004111479
      15       -0.000000313329     0.000000650287     0.000001152307
      16       -0.000001250062    -0.000000595679     0.000000018557
      17       -0.000000634827    -0.000001169125     0.000000236933

  **** Optimization is complete! (in 4 steps) ****
    Final optimized geometry and variables:
    Molecular point group: c1

    Geometry (in Angstrom), charge = 0, multiplicity = 1:

    O            0.625708900052     1.349887023050     0.025665113085
    C            0.486290372867     0.169291084406     0.004228180530
    C            1.608013623190    -0.841676680095     0.001815343499
    O           -0.698149146486    -0.425829605833    -0.021078037176
    C            2.989938432819    -0.200935032899     0.030667889722
    H            1.480358013457    -1.466599206181    -0.877062930223
    H            1.457749356962    -1.496010802538     0.855333005377
    H            3.141539628364     0.437584542414    -0.831094958247
    H            3.757601112347    -0.967416094810     0.027710071524
    H            3.118760723842     0.408004010523     0.917198548005
    C           -1.852969844638     0.407027312164    -0.019440623436
    C           -3.065867408834    -0.499249922982    -0.022229479130
    H           -1.829007953522     1.044149946271    -0.893110728733
    H           -1.829595597199     1.041300729981     0.855994779927
    H           -3.071298206150    -1.132197718199    -0.902317496282
    H           -3.972584126251     0.097015520930    -0.022434992373
    H           -3.073294759286    -1.134734773262     0.856026735812

  Mulliken Charges: (a.u.)
   Center  Symbol    Alpha    Beta     Spin     Total
       1     O     4.28637  4.28637  0.00000 -0.57275
       2     C     2.60570  2.60570  0.00000  0.78860
       3     C     3.20499  3.20499  0.00000 -0.40998
       4     O     4.31323  4.31323  0.00000 -0.62645
       5     C     3.23876  3.23876  0.00000 -0.47751
       6     H     0.40076  0.40076  0.00000  0.19848
       7     H     0.40079  0.40079  0.00000  0.19842
       8     H     0.40997  0.40997  0.00000  0.18007
       9     H     0.41823  0.41823  0.00000  0.16355
      10     H     0.40999  0.40999  0.00000  0.18003
      11     C     3.00210  3.00210  0.00000 -0.00420
      12     C     3.24842  3.24842  0.00000 -0.49684
      13     H     0.41063  0.41063  0.00000  0.17875
      14     H     0.40998  0.40998  0.00000  0.18003
      15     H     0.41186  0.41186  0.00000  0.17629
      16     H     0.41631  0.41631  0.00000  0.16737
      17     H     0.41192  0.41192  0.00000  0.17615

   Total alpha = 28.00000, Total beta = 28.00000, Total charge =  0.00000
