  ==> Input File <==

--------------------------------------------------------------------------
set {
	reference rhf
	basis cc-pvtz
}

set_num_threads( 4 )
memory 2 gb

molecule MOL {
0 1

H	 -2.498963	 -0.741158	 -0.729149
O	 -2.346257	 -0.289210	 0.080372
C	 -1.183935	 0.486039	 -0.009831
C	 0.062853	 -0.375310	 0.027457
H	 -1.178881	 1.094526	 -0.908634
H	 -1.184406	 1.155156	 0.838676
O	 0.322840	 -0.823603	 -1.262075
H	 -0.087889	 -1.219224	 0.702721
H	 0.895878	 0.207563	 0.414630
C	 1.464539	 -1.606449	 -1.384124
H	 1.395452	 -2.507174	 -0.778158
H	 1.561121	 -1.891584	 -2.421456
H	 2.355500	 -1.058743	 -1.086253

	symmetry c1
}
set optking {
	frozen_dihedral = ("
		8 4 3 5
	")
}

ee = optimize('scf')
oeprop('DIPOLE', 'QUADRUPOLE', 'MULLIKEN_CHARGES')
f=open( 'psi4out.xyz', 'w' )
f.write( "13  " )
f.write( str(ee) + "\n" )
f.write( MOL.save_string_xyz() )
f.close()
--------------------------------------------------------------------------

    Molecular point group: c1
  Charge       = 0
  Multiplicity = 1
  Basis Set: CC-PVTZ
  Basis Set:
  @DF-RHF Final Energy:  -268.06256221891624
    Total Energy =                       -268.0625622189164687
    Molecular point group: c1
  Basis Set: CC-PVTZ
  Basis Set:
  Basis Set: CC-PVTZ
  Basis Set:
  @DF-RHF Final Energy:  -268.06329213517029
    Total Energy =                       -268.0632921351702294
  Basis Set: CC-PVTZ
  Basis Set:
  Basis Set: CC-PVTZ
  Basis Set:
  @DF-RHF Final Energy:  -268.06347567407715
    Total Energy =                       -268.0634756740770399
  Basis Set: CC-PVTZ
  Basis Set:
  Basis Set: CC-PVTZ
  Basis Set:
  @DF-RHF Final Energy:  -268.06348729171822
    Total Energy =                       -268.0634872917184452
  Basis Set: CC-PVTZ
  Basis Set:
  Charge       = 0
  Multiplicity = 1
  Basis Set: CC-PVTZ
  Basis Set:

    Orbital Energies (a.u.)
    -----------------------

    Doubly Occupied:

       1A    -20.557698     2A    -20.544815     3A    -11.270189
       4A    -11.269128     5A    -11.267301     6A     -1.393474
       7A     -1.360781     8A     -1.020409     9A     -0.918430
      10A     -0.838512    11A     -0.706581    12A     -0.682466
      13A     -0.661913    14A     -0.635118    15A     -0.595837
      16A     -0.574580    17A     -0.540028    18A     -0.492562
      19A     -0.489605    20A     -0.438760    21A     -0.427019

  @DF-RHF Final Energy:  -268.06348791546372

   => Energetics <=

    Nuclear Repulsion Energy =            193.4491979235280326
    One-Electron Energy =                -749.6549605126535880
    Two-Electron Energy =                 288.1422746736620297
    DFT Exchange-Correlation Energy =       0.0000000000000000
    Empirical Dispersion Energy =           0.0000000000000000
    PCM Polarization Energy =               0.0000000000000000
    EFP Energy =                            0.0000000000000000
    Total Energy =                       -268.0634879154635541
    Molecular point group: c1
  Basis Set: CC-PVTZ
  Basis Set:

  -Total Gradient:
     Atom            X                  Y                   Z
    ------   -----------------  -----------------  -----------------
       1        0.000014818433     0.000002968520    -0.000000596519
       2       -0.000030426442     0.000041614777     0.000005888766
       3        0.002505460509     0.004003883712     0.002324670904
       4        0.001711549020     0.002612107255     0.004407062796
       5       -0.002416408308    -0.003841336140    -0.002697415760
       6        0.000007070600    -0.000019295087    -0.000008103402
       7       -0.000039722501     0.000016923358     0.000006589433
       8       -0.001754382372    -0.002836206787    -0.004087387758
       9        0.000007731700     0.000001922077     0.000011858309
      10        0.000009784046    -0.000002444982     0.000038246074
      11       -0.000001591398    -0.000001621529    -0.000000172471
      12       -0.000022177814     0.000024193391     0.000005365910
      13        0.000008294524    -0.000002708566    -0.000006006279

  **** Optimization is complete! (in 5 steps) ****
    Final optimized geometry and variables:
    Molecular point group: c1

    Geometry (in Angstrom), charge = 0, multiplicity = 1:

    H           -1.984894357734    -0.307059773304    -0.249334589522
    O           -1.976300016544     0.206518174063     0.538881681407
    C           -0.835294098305     1.020297109423     0.540419851497
    C            0.441299951335     0.207537083556     0.561725114766
    H           -0.833430815506     1.642983313195    -0.348414232105
    H           -0.899926255027     1.645654720449     1.419535331991
    O            0.681838101574    -0.250616044756    -0.737723951260
    H            0.305889011585    -0.649723835513     1.216571149052
    H            1.278771819681     0.806358813081     0.914136439223
    C            1.776747627189    -1.098110675209    -0.857819693160
    H            1.653241385378    -1.996088297343    -0.256911074561
    H            1.863677965229    -1.382661528118    -1.896328345489
    H            2.696512404071    -0.604193905843    -0.552622729680

  Mulliken Charges: (a.u.)
   Center  Symbol    Alpha    Beta     Spin     Total
       1     H     0.38814  0.38814  0.00000  0.22372
       2     O     4.20902  4.20902  0.00000 -0.41805
       3     C     2.96259  2.96259  0.00000  0.07481
       4     C     2.98058  2.98058  0.00000  0.03883
       5     H     0.46672  0.46672  0.00000  0.06657
       6     H     0.45601  0.45601  0.00000  0.08799
       7     O     4.18129  4.18129  0.00000 -0.36258
       8     H     0.46713  0.46713  0.00000  0.06574
       9     H     0.47116  0.47116  0.00000  0.05767
      10     C     3.02995  3.02995  0.00000 -0.05989
      11     H     0.47005  0.47005  0.00000  0.05991
      12     H     0.44680  0.44680  0.00000  0.10640
      13     H     0.47056  0.47056  0.00000  0.05889

   Total alpha = 21.00000, Total beta = 21.00000, Total charge =  0.00000
