  ==> Input File <==

--------------------------------------------------------------------------
set {
	reference rhf
	basis 6-31G*
}

set_num_threads( 4 )
memory 2 gb

molecule MOL {
0 1

H	 -3.407059	 -1.043082	 0.000000
O	 -3.119761	 -0.140267	 0.000000
C	 -1.777559	 -0.059267	 0.000000
C	 -0.976002	 -1.032764	 0.588906
C	 -1.204656	 1.045826	 -0.616942
H	 -1.428071	 -1.886159	 1.064996
C	 0.396037	 -0.897120	 0.558452
H	 -1.844035	 1.783084	 -1.064062
C	 0.169086	 1.167373	 -0.639212
H	 1.026560	 -1.640560	 1.008827
C	 0.985076	 0.203561	 -0.055387
H	 0.613556	 2.023561	 -1.117177
C	 2.453873	 0.347233	 -0.087101
O	 3.222738	 -0.430101	 0.387618
H	 2.819045	 1.247153	 -0.593027

	symmetry c1
}
set optking {
	frozen_dihedral = ("
		5 3 2 1
	")
}

ee = optimize('scf')
oeprop('DIPOLE', 'QUADRUPOLE', 'MULLIKEN_CHARGES')
f=open( 'psi4out.xyz', 'w' )
f.write( "15  " )
f.write( str(ee) + "\n" )
f.write( MOL.save_string_xyz() )
f.close()
--------------------------------------------------------------------------

    Molecular point group: c1
  Charge       = 0
  Multiplicity = 1
  Basis Set: 6-31G*
  Basis Set:
  @DF-RHF Final Energy:  -418.28834664525954
    Total Energy =                       -418.2883466452598213
    Molecular point group: c1
  Basis Set: 6-31G*
  Basis Set:
  Basis Set: 6-31G*
  Basis Set:
  @DF-RHF Final Energy:  -418.28840323608910
    Total Energy =                       -418.2884032360892661
  Basis Set: 6-31G*
  Basis Set:
  Basis Set: 6-31G*
  Basis Set:
  @DF-RHF Final Energy:  -418.28840861819373
    Total Energy =                       -418.2884086181940120
  Basis Set: 6-31G*
  Basis Set:
  Basis Set: 6-31G*
  Basis Set:
  @DF-RHF Final Energy:  -418.28832093106820
    Total Energy =                       -418.2883209310684833
  Basis Set: 6-31G*
  Basis Set:
  Charge       = 0
  Multiplicity = 1
  Basis Set: 6-31G*
  Basis Set:

    Orbital Energies (a.u.)
    -----------------------

    Doubly Occupied:

       1A    -20.606284     2A    -20.557098     3A    -11.328882
       4A    -11.321138     5A    -11.260599     6A    -11.256152
       7A    -11.244100     8A    -11.240297     9A    -11.239553
      10A     -1.426487    11A     -1.398255    12A     -1.170671
      13A     -1.041498    14A     -1.038280    15A     -0.888086
      16A     -0.865206    17A     -0.794666    18A     -0.755814
      19A     -0.712788    20A     -0.665563    21A     -0.644292
      22A     -0.628481    23A     -0.614557    24A     -0.607580
      25A     -0.569917    26A     -0.555520    27A     -0.549021
      28A     -0.504720    29A     -0.483751    30A     -0.419474
      31A     -0.357310    32A     -0.329772

  @DF-RHF Final Energy:  -418.28841368077360

   => Energetics <=

    Nuclear Repulsion Energy =            401.2177416888132484
    One-Electron Energy =               -1364.8606819693436591
    Two-Electron Energy =                 545.3545265997572642
    DFT Exchange-Correlation Energy =       0.0000000000000000
    Empirical Dispersion Energy =           0.0000000000000000
    PCM Polarization Energy =               0.0000000000000000
    EFP Energy =                            0.0000000000000000
    Total Energy =                       -418.2884136807731466
    Molecular point group: c1
  Basis Set: 6-31G*
  Basis Set:

  -Total Gradient:
     Atom            X                  Y                   Z
    ------   -----------------  -----------------  -----------------
       1        0.000017391432    -0.000003733572    -0.003226555737
       2       -0.000069419654    -0.000523227820     0.003065671827
       3        0.000040205955     0.001629797449     0.002190984048
       4       -0.000112999992     0.000053341350    -0.000017529622
       5        0.000151037325    -0.001133700796    -0.001993761424
       6        0.000007640158     0.000002344776     0.000002343360
       7        0.000135401779     0.000079007708    -0.000023572141
       8       -0.000020348360     0.000004027530    -0.000015447261
       9       -0.000119707664     0.000055292805    -0.000066927795
      10       -0.000009543072    -0.000016107426    -0.000009168599
      11       -0.000033618094    -0.000150980954     0.000088827869
      12       -0.000006851100    -0.000002904805     0.000013673238
      13        0.000001978598     0.000001212327    -0.000041568074
      14        0.000013334110     0.000003214635     0.000012605447
      15        0.000005498582     0.000002416793     0.000020424861

  **** Optimization is complete! (in 5 steps) ****
    Final optimized geometry and variables:
    Molecular point group: c1

    Geometry (in Angstrom), charge = 0, multiplicity = 1:

    H           -3.404487139778    -1.052132297085    -0.008668572213
    O           -3.123218037534    -0.147451778301    -0.012334557115
    C           -1.775638875298    -0.061957392197    -0.021774816326
    C           -0.975823375975    -1.038052638214     0.565095838550
    C           -1.203127034720     1.039092740607    -0.641847100624
    H           -1.432295820707    -1.884711516072     1.047839169304
    C            0.396075114172    -0.905201622684     0.533983809414
    H           -1.841583998559     1.772885343115    -1.096103584592
    C            0.171975825518     1.165496801999    -0.655968585158
    H            1.026535596270    -1.649576647558     0.982873095227
    C            0.984992379335     0.199467781331    -0.074526749476
    H            0.617643108468     2.020942540499    -1.134039627307
    C            2.454757391497     0.343574487406    -0.104913454754
    O            3.222774052083    -0.438201035257     0.363492529836
    H            2.820582741526     1.247458090444    -0.602883602655

  Mulliken Charges: (a.u.)
   Center  Symbol    Alpha    Beta     Spin     Total
       1     H     0.26888  0.26888  0.00000  0.46224
       2     O     4.37648  4.37648  0.00000 -0.75297
       3     C     2.79008  2.79008  0.00000  0.41984
       4     C     3.14217  3.14217  0.00000 -0.28435
       5     C     3.12678  3.12678  0.00000 -0.25357
       6     H     0.39579  0.39579  0.00000  0.20842
       7     C     3.07929  3.07929  0.00000 -0.15859
       8     H     0.38657  0.38657  0.00000  0.22686
       9     C     3.09366  3.09366  0.00000 -0.18732
      10     H     0.37467  0.37467  0.00000  0.25067
      11     C     3.06703  3.06703  0.00000 -0.13407
      12     H     0.38979  0.38979  0.00000  0.22041
      13     C     2.83043  2.83043  0.00000  0.33914
      14     O     4.25397  4.25397  0.00000 -0.50795
      15     H     0.42439  0.42439  0.00000  0.15122

   Total alpha = 32.00000, Total beta = 32.00000, Total charge = -0.00000
