  ==> Input File <==

--------------------------------------------------------------------------
set {
	reference rhf
	basis 6-31G*
}

set_num_threads( 1 )
memory 2 gb

molecule MOL {
0 1

H	 -3.479185	 1.555398	 0.296894
C	 -2.952919	 0.661949	 0.571580
C	 -1.862021	 0.320382	 -0.074388
H	 -3.338810	 0.065903	 1.377016
O	 -1.180634	 -0.819263	 0.215062
H	 -1.455223	 0.907226	 -0.878953
C	 0.051604	 -1.018856	 -0.387932
C	 1.043764	 0.054862	 -0.001873
H	 -0.017620	 -1.041351	 -1.469781
H	 0.437898	 -1.966374	 -0.042284
F	 2.212596	 -0.199467	 -0.571921
F	 0.652529	 1.252447	 -0.405055
F	 1.230877	 0.110694	 1.300533

	symmetry c1
}
set optking {
	frozen_dihedral = ("
		11 8 7 9,
		6 3 2 1,
		6 3 5 7
	")
}

ee = energy('scf')
oeprop('DIPOLE', 'QUADRUPOLE', 'MULLIKEN_CHARGES')
f=open( 'psi4out.xyz', 'w' )
f.write( "13  " )
f.write( str(ee) + "\n" )
f.write( MOL.save_string_xyz() )
f.close()
--------------------------------------------------------------------------

    Molecular point group: c1

    Geometry (in Angstrom), charge = 0, multiplicity = 1:

       Center              X                  Y                   Z               Mass
    ------------   -----------------  -----------------  -----------------  -----------------
           H         -3.529840733457     1.486041065514     0.216334214625     1.007825032070
           C         -3.003574733457     0.592592065514     0.491020214625    12.000000000000
           C         -1.912676733457     0.251025065514    -0.154947785375    12.000000000000
           H         -3.389465733457    -0.003453934486     1.296456214625     1.007825032070
           O         -1.231289733457    -0.888619934486     0.134502214625    15.994914619560
           H         -1.505878733457     0.837869065514    -0.959512785375     1.007825032070
           C          0.000948266543    -1.088212934486    -0.468491785375    12.000000000000
           C          0.993108266543    -0.014494934486    -0.082432785375    12.000000000000
           H         -0.068275733457    -1.110707934486    -1.550340785375     1.007825032070
           H          0.387242266543    -2.035730934486    -0.122843785375     1.007825032070
           F          2.161940266543    -0.268823934486    -0.652480785375    18.998403224000
           F          0.601873266543     1.183090065514    -0.485614785375    18.998403224000
           F          1.180221266543     0.041337065514     1.219973214625    18.998403224000

  Charge       = 0
  Multiplicity = 1
  Basis Set: 6-31G*
  Basis Set:

    Orbital Energies (a.u.)
    -----------------------

    Doubly Occupied:

       1A    -26.349634     2A    -26.347105     3A    -26.343901
       4A    -20.606367     5A    -11.506784     6A    -11.319103
       7A    -11.294292     8A    -11.213028     9A     -1.746209
      10A     -1.645259    11A     -1.641777    12A     -1.437132
      13A     -1.083191    14A     -1.016305    15A     -0.928791
      16A     -0.839957    17A     -0.834702    18A     -0.831987
      19A     -0.779326    20A     -0.726180    21A     -0.713074
      22A     -0.699330    23A     -0.676963    24A     -0.662030
      25A     -0.657937    26A     -0.647287    27A     -0.636543
      28A     -0.588014    29A     -0.560791    30A     -0.524488
      31A     -0.504915    32A     -0.349191

  @DF-RHF Final Energy:  -527.53175193713537

   => Energetics <=

    Nuclear Repulsion Energy =            418.2384243050417467
    One-Electron Energy =               -1560.1171707009066267
    Two-Electron Energy =                 614.3469944587296823
    DFT Exchange-Correlation Energy =       0.0000000000000000
    Empirical Dispersion Energy =           0.0000000000000000
    PCM Polarization Energy =               0.0000000000000000
    EFP Energy =                            0.0000000000000000
    Total Energy =                       -527.5317519371352546

  Mulliken Charges: (a.u.)
   Center  Symbol    Alpha    Beta     Spin     Total
       1     H     0.40746  0.40746  0.00000  0.18508
       2     C     3.23599  3.23599  0.00000 -0.47199
       3     C     2.90267  2.90267  0.00000  0.19466
       4     H     0.40339  0.40339  0.00000  0.19323
       5     O     4.30354  4.30354  0.00000 -0.60709
       6     H     0.39833  0.39833  0.00000  0.20334
       7     C     3.05910  3.05910  0.00000 -0.11819
       8     C     2.46093  2.46093  0.00000  1.07815
       9     H     0.40461  0.40461  0.00000  0.19079
      10     H     0.38814  0.38814  0.00000  0.22371
      11     F     4.68254  4.68254  0.00000 -0.36508
      12     F     4.67940  4.67940  0.00000 -0.35880
      13     F     4.67390  4.67390  0.00000 -0.34781

   Total alpha = 32.00000, Total beta = 32.00000, Total charge =  0.00000
