  ==> Input File <==

--------------------------------------------------------------------------
set {
	reference rhf
	basis cc-pvtz
}

set_num_threads( 4 )
memory 2 gb

molecule MOL {
0 1

H	 -0.147597	 -1.816915	 0.206062
C	 -1.195325	 -1.527043	 0.239602
O	 -1.401606	 -0.295183	 -0.366624
H	 -1.776594	 -2.261736	 -0.298210
H	 -1.516986	 -1.520022	 1.279491
C	 -0.718530	 0.758693	 0.228682
C	 0.718529	 0.758687	 -0.228709
H	 -1.176498	 1.708665	 -0.046615
H	 -0.748705	 0.673525	 1.312779
O	 1.401606	 -0.295166	 0.366636
H	 0.748705	 0.673477	 -1.312803
H	 1.176496	 1.708671	 0.046552
C	 2.714315	 -0.441627	 -0.061017
H	 2.765292	 -0.641548	 -1.128869
H	 3.305661	 0.447341	 0.150952
H	 3.143725	 -1.278506	 0.470147

	symmetry c1
}
set optking {
	frozen_dihedral = ("
		2 3 6 7
	")
}

ee = optimize('scf')
oeprop('DIPOLE', 'QUADRUPOLE', 'MULLIKEN_CHARGES')
f=open( 'psi4out.xyz', 'w' )
f.write( "16  " )
f.write( str(ee) + "\n" )
f.write( MOL.save_string_xyz() )
f.close()
--------------------------------------------------------------------------

    Molecular point group: c1
  Charge       = 0
  Multiplicity = 1
  Basis Set: CC-PVTZ
  Basis Set:
  @DF-RHF Final Energy:  -307.09261638337915
    Total Energy =                       -307.0926163833788110
    Molecular point group: c1
  Basis Set: CC-PVTZ
  Basis Set:
  Basis Set: CC-PVTZ
  Basis Set:
  @DF-RHF Final Energy:  -307.09629105112924
    Total Energy =                       -307.0962910511296968
  Basis Set: CC-PVTZ
  Basis Set:
  Basis Set: CC-PVTZ
  Basis Set:
  @DF-RHF Final Energy:  -307.09669006969762
    Total Energy =                       -307.0966900696973880
  Basis Set: CC-PVTZ
  Basis Set:
  Basis Set: CC-PVTZ
  Basis Set:
  @DF-RHF Final Energy:  -307.09671325339781
    Total Energy =                       -307.0967132533975246
  Basis Set: CC-PVTZ
  Basis Set:
  Basis Set: CC-PVTZ
  Basis Set:
  @DF-RHF Final Energy:  -307.09671529540395
    Total Energy =                       -307.0967152954040102
  Basis Set: CC-PVTZ
  Basis Set:
  Charge       = 0
  Multiplicity = 1
  Basis Set: CC-PVTZ
  Basis Set:

    Orbital Energies (a.u.)
    -----------------------

    Doubly Occupied:

       1A    -20.555080     2A    -20.544063     3A    -11.268974
       4A    -11.267425     5A    -11.266716     6A    -11.252560
       7A     -1.392962     8A     -1.371243     9A     -1.029400
      10A     -0.946025    11A     -0.891111    12A     -0.820614
      13A     -0.690051    14A     -0.680741    15A     -0.660564
      16A     -0.636072    17A     -0.626932    18A     -0.599536
      19A     -0.553656    20A     -0.526187    21A     -0.524424
      22A     -0.485313    23A     -0.463818    24A     -0.426472
      25A     -0.406656

  @DF-RHF Final Energy:  -307.09671566675263

   => Energetics <=

    Nuclear Repulsion Energy =            263.5291612843215034
    One-Electron Energy =                -941.4785523679036032
    Two-Electron Energy =                 370.8526754168293564
    DFT Exchange-Correlation Energy =       0.0000000000000000
    Empirical Dispersion Energy =           0.0000000000000000
    PCM Polarization Energy =               0.0000000000000000
    EFP Energy =                            0.0000000000000000
    Total Energy =                       -307.0967156667527433
    Molecular point group: c1
  Basis Set: CC-PVTZ
  Basis Set:

  -Total Gradient:
     Atom            X                  Y                   Z
    ------   -----------------  -----------------  -----------------
       1       -0.000013354401    -0.000005666505     0.000004602800
       2        0.000496346897    -0.000157126281    -0.000447981544
       3       -0.000662922916     0.000085622858     0.000893785886
       4        0.000013323915    -0.000005606179    -0.000002627714
       5        0.000024194628    -0.000001559182    -0.000013019753
       6       -0.000032349944     0.000441093919    -0.000910553621
       7        0.000199420473    -0.000388180198     0.000470416691
       8       -0.000000171710    -0.000000493601    -0.000004137259
       9       -0.000000323936     0.000020685569    -0.000000288053
      10       -0.000017539198    -0.000005830106     0.000016761620
      11       -0.000008468093     0.000008166279    -0.000002635123
      12        0.000001447725     0.000005096414     0.000004259489
      13       -0.000007378302     0.000009669274    -0.000001176104
      14        0.000007546059    -0.000003564795    -0.000005859643
      15        0.000003389513    -0.000002292472     0.000000326129
      16       -0.000003160715    -0.000000014995    -0.000001873804

  **** Optimization is complete! (in 6 steps) ****
    Final optimized geometry and variables:
    Molecular point group: c1

    Geometry (in Angstrom), charge = 0, multiplicity = 1:

    H           -0.659360200142    -1.829410262819    -0.027093637160
    C           -1.616146737008    -1.377276397760     0.197626708703
    O           -1.739932933399    -0.103333027478    -0.359287884706
    H           -2.405565261433    -1.984645457060    -0.222061357770
    H           -1.737231609605    -1.346448706854     1.277692460995
    C           -0.956133908980     0.907040462943     0.189716488900
    C            0.482503238049     0.923268332244    -0.284536196245
    H           -1.415190379200     1.840812481371    -0.110809117897
    H           -0.971771650877     0.859592429432     1.276489024154
    O            1.212473334333    -0.098947091474     0.318578167200
    H            0.505890349362     0.820914634677    -1.367824995725
    H            0.918062287801     1.890013199730    -0.030717699642
    C            2.544675475890    -0.158341065367    -0.072402963089
    H            2.638612615254    -0.335043754752    -1.141357848200
    H            3.071299959213     0.761823209882     0.171479931569
    H            3.010027131163    -0.976114700171     0.458280323869

  Mulliken Charges: (a.u.)
   Center  Symbol    Alpha    Beta     Spin     Total
       1     H     0.46298  0.46298  0.00000  0.07404
       2     C     3.02974  3.02974  0.00000 -0.05947
       3     O     4.18140  4.18140  0.00000 -0.36280
       4     H     0.44949  0.44949  0.00000  0.10102
       5     H     0.47284  0.47284  0.00000  0.05431
       6     C     2.97617  2.97617  0.00000  0.04765
       7     C     2.97799  2.97799  0.00000  0.04402
       8     H     0.45038  0.45038  0.00000  0.09924
       9     H     0.46756  0.46756  0.00000  0.06488
      10     O     4.17610  4.17610  0.00000 -0.35220
      11     H     0.46813  0.46813  0.00000  0.06374
      12     H     0.46881  0.46881  0.00000  0.06237
      13     C     3.03479  3.03479  0.00000 -0.06957
      14     H     0.46893  0.46893  0.00000  0.06213
      15     H     0.46829  0.46829  0.00000  0.06343
      16     H     0.44639  0.44639  0.00000  0.10722

   Total alpha = 25.00000, Total beta = 25.00000, Total charge = -0.00000
