  ==> Input File <==

--------------------------------------------------------------------------
set {
	reference rhf
	basis 6-31G*
}

set_num_threads( 1 )
memory 2 gb

molecule MOL {
0 1

O	 2.862325	 1.357334	 0.000267
C	 2.843464	 0.164689	 -0.000222
C	 1.546494	 -0.624492	 -0.000609
C	 4.124123	 -0.644674	 -0.000428
C	 0.291004	 0.242674	 0.000989
H	 1.557904	 -1.283758	 -0.867573
H	 1.558622	 -1.285963	 0.864672
C	 -0.994322	 -0.586602	 0.000262
H	 0.309117	 0.896430	 -0.865270
H	 0.309661	 0.894078	 0.869017
C	 -2.259874	 0.272531	 0.000494
H	 -1.004862	 -1.240012	 -0.870939
H	 -1.005220	 -1.241071	 0.870675
C	 -3.520014	 -0.505787	 -0.381975
H	 -2.129145	 1.105230	 -0.688375
H	 -2.395224	 0.712793	 0.986824
C	 -4.779957	 0.359211	 -0.379719
H	 -3.386373	 -0.945353	 -1.368253
H	 -3.652592	 -1.337542	 0.306840
H	 -4.692168	 1.181424	 -1.084283
H	 -5.655864	 -0.220108	 -0.655179
H	 -4.960941	 0.785528	 0.602952
H	 4.165367	 -1.288615	 -0.874074
H	 4.976217	 0.020734	 -0.001915
H	 4.166763	 -1.286207	 0.874930

	symmetry c1
}
set optking {
	frozen_dihedral = ("
		9 5 8 12,
		15 11 14 18,
		1 2 3 6,
		9 5 3 6
	")
}

ee = energy('scf')
oeprop('DIPOLE', 'QUADRUPOLE', 'MULLIKEN_CHARGES')
f=open( 'psi4out.xyz', 'w' )
f.write( "25  " )
f.write( str(ee) + "\n" )
f.write( MOL.save_string_xyz() )
f.close()
--------------------------------------------------------------------------

    Molecular point group: c1

    Geometry (in Angstrom), charge = 0, multiplicity = 1:

       Center              X                  Y                   Z               Mass
    ------------   -----------------  -----------------  -----------------  -----------------
           O          2.855594725968     1.347396737848     0.086475504604    15.994914619560
           C          2.836733725968     0.154751737848     0.085986504604    12.000000000000
           C          1.539763725968    -0.634429262152     0.085599504604    12.000000000000
           C          4.117392725968    -0.654611262152     0.085780504604    12.000000000000
           C          0.284273725968     0.232736737848     0.087197504604    12.000000000000
           H          1.551173725968    -1.293695262152    -0.781364495396     1.007825032070
           H          1.551891725968    -1.295900262152     0.950880504604     1.007825032070
           C         -1.001052274032    -0.596539262152     0.086470504604    12.000000000000
           H          0.302386725968     0.886492737848    -0.779061495396     1.007825032070
           H          0.302930725968     0.884140737848     0.955225504604     1.007825032070
           C         -2.266604274032     0.262593737848     0.086702504604    12.000000000000
           H         -1.011592274032    -1.249949262152    -0.784730495396     1.007825032070
           H         -1.011950274032    -1.251008262152     0.956883504604     1.007825032070
           C         -3.526744274032    -0.515724262152    -0.295766495396    12.000000000000
           H         -2.135875274032     1.095292737848    -0.602166495396     1.007825032070
           H         -2.401954274032     0.702855737848     1.073032504604     1.007825032070
           C         -4.786687274032     0.349273737848    -0.293510495396    12.000000000000
           H         -3.393103274032    -0.955290262152    -1.282044495396     1.007825032070
           H         -3.659322274032    -1.347479262152     0.393048504604     1.007825032070
           H         -4.698898274032     1.171486737848    -0.998074495396     1.007825032070
           H         -5.662594274032    -0.230045262152    -0.568970495396     1.007825032070
           H         -4.967671274032     0.775590737848     0.689160504604     1.007825032070
           H          4.158636725968    -1.298552262152    -0.787865495396     1.007825032070
           H          4.969486725968     0.010796737848     0.084293504604     1.007825032070
           H          4.160032725968    -1.296144262152     0.961138504604     1.007825032070

  Charge       = 0
  Multiplicity = 1
  Basis Set: 6-31G*
  Basis Set:

    Orbital Energies (a.u.)
    -----------------------

    Doubly Occupied:

       1A    -20.550477     2A    -11.326320     3A    -11.231846
       4A    -11.228338     5A    -11.217060     6A    -11.216403
       7A    -11.215423     8A    -11.213238     9A    -11.208199
      10A     -1.395780    11A     -1.093635    12A     -1.056281
      13A     -1.014483    14A     -0.969218    15A     -0.890635
      16A     -0.814354    17A     -0.790761    18A     -0.729955
      19A     -0.660931    20A     -0.651933    21A     -0.632140
      22A     -0.623792    23A     -0.596412    24A     -0.584044
      25A     -0.566330    26A     -0.560412    27A     -0.539790
      28A     -0.527084    29A     -0.511979    30A     -0.489563
      31A     -0.487879    32A     -0.474083    33A     -0.463784
      34A     -0.461248    35A     -0.450400    36A     -0.399409

  @DF-RHF Final Energy:  -387.13564861430439

   => Energetics <=

    Nuclear Repulsion Energy =            438.5016998568580675
    One-Electron Energy =               -1393.5875502384662923
    Two-Electron Energy =                 567.9502017673067940
    DFT Exchange-Correlation Energy =       0.0000000000000000
    Empirical Dispersion Energy =           0.0000000000000000
    PCM Polarization Energy =               0.0000000000000000
    EFP Energy =                            0.0000000000000000
    Total Energy =                       -387.1356486143014308

  Mulliken Charges: (a.u.)
   Center  Symbol    Alpha    Beta     Spin     Total
       1     O     4.26119  4.26119  0.00000 -0.52237
       2     C     2.73570  2.73570  0.00000  0.52859
       3     C     3.21097  3.21097  0.00000 -0.42193
       4     C     3.28664  3.28664  0.00000 -0.57327
       5     C     3.14851  3.14851  0.00000 -0.29702
       6     H     0.40995  0.40995  0.00000  0.18010
       7     H     0.41003  0.41003  0.00000  0.17994
       8     C     3.15421  3.15421  0.00000 -0.30843
       9     H     0.41202  0.41202  0.00000  0.17595
      10     H     0.41211  0.41211  0.00000  0.17579
      11     C     3.15111  3.15111  0.00000 -0.30222
      12     H     0.42494  0.42494  0.00000  0.15012
      13     H     0.42409  0.42409  0.00000  0.15183
      14     C     3.15191  3.15191  0.00000 -0.30381
      15     H     0.42195  0.42195  0.00000  0.15609
      16     H     0.42214  0.42214  0.00000  0.15572
      17     C     3.23944  3.23944  0.00000 -0.47888
      18     H     0.42332  0.42332  0.00000  0.15336
      19     H     0.42359  0.42359  0.00000  0.15282
      20     H     0.42120  0.42120  0.00000  0.15761
      21     H     0.41956  0.41956  0.00000  0.16088
      22     H     0.42153  0.42153  0.00000  0.15693
      23     H     0.40874  0.40874  0.00000  0.18252
      24     H     0.39646  0.39646  0.00000  0.20707
      25     H     0.40870  0.40870  0.00000  0.18261

   Total alpha = 36.00000, Total beta = 36.00000, Total charge = -0.00000
