  ==> Input File <==

--------------------------------------------------------------------------
set {
	reference rhf
	basis 6-31G*
}

set_num_threads( 1 )
memory 2 gb

molecule MOL {
0 1

H	 2.242674	 -1.903917	 0.231304
O	 2.826016	 -1.159218	 0.122261
C	 2.077727	 -0.067559	 -0.035091
C	 0.624473	 -0.343591	 0.253101
O	 2.542965	 0.974826	 -0.363729
C	 -0.265902	 0.883932	 0.072916
H	 0.324016	 -1.163849	 -0.390541
H	 0.565024	 -0.726111	 1.268924
C	 -1.728698	 0.646073	 0.462102
H	 -0.209144	 1.219470	 -0.958188
H	 0.135059	 1.692851	 0.673903
C	 -2.482460	 -0.343073	 -0.431425
H	 -2.245265	 1.602650	 0.432430
H	 -1.779332	 0.308348	 1.496285
C	 -3.960546	 -0.461025	 -0.060175
H	 -2.395034	 -0.026811	 -1.468912
H	 -2.024850	 -1.327147	 -0.371646
H	 -4.472726	 -1.168004	 -0.705284
H	 -4.465146	 0.496508	 -0.151489
H	 -4.081218	 -0.800940	 0.964585

	symmetry c1
}
set optking {
	frozen_dihedral = ("
		16 12 9 6,
		7 4 6 10,
		12 9 6 10,
		5 3 4 7
	")
}

ee = energy('scf')
oeprop('DIPOLE', 'QUADRUPOLE', 'MULLIKEN_CHARGES')
f=open( 'psi4out.xyz', 'w' )
f.write( "20  " )
f.write( str(ee) + "\n" )
f.write( MOL.save_string_xyz() )
f.close()
--------------------------------------------------------------------------

    Molecular point group: c1

    Geometry (in Angstrom), charge = 0, multiplicity = 1:

       Center              X                  Y                   Z               Mass
    ------------   -----------------  -----------------  -----------------  -----------------
           H          2.255582341266    -1.895446704406     0.228683139881     1.007825032070
           O          2.838924341266    -1.150747704406     0.119640139881    15.994914619560
           C          2.090635341266    -0.059088704406    -0.037711860119    12.000000000000
           C          0.637381341266    -0.335120704406     0.250480139881    12.000000000000
           O          2.555873341266     0.983296295594    -0.366349860119    15.994914619560
           C         -0.252993658734     0.892402295594     0.070295139881    12.000000000000
           H          0.336924341266    -1.155378704406    -0.393161860119     1.007825032070
           H          0.577932341266    -0.717640704406     1.266303139881     1.007825032070
           C         -1.715789658734     0.654543295594     0.459481139881    12.000000000000
           H         -0.196235658734     1.227940295594    -0.960808860119     1.007825032070
           H          0.147967341266     1.701321295594     0.671282139881     1.007825032070
           C         -2.469551658734    -0.334602704406    -0.434045860119    12.000000000000
           H         -2.232356658734     1.611120295594     0.429809139881     1.007825032070
           H         -1.766423658734     0.316818295594     1.493664139881     1.007825032070
           C         -3.947637658734    -0.452554704406    -0.062795860119    12.000000000000
           H         -2.382125658734    -0.018340704406    -1.471532860119     1.007825032070
           H         -2.011941658734    -1.318676704406    -0.374266860119     1.007825032070
           H         -4.459817658734    -1.159533704406    -0.707904860119     1.007825032070
           H         -4.452237658734     0.504978295594    -0.154109860119     1.007825032070
           H         -4.068309658734    -0.792469704406     0.961964139881     1.007825032070

  Charge       = 0
  Multiplicity = 1
  Basis Set: 6-31G*
  Basis Set:

    Orbital Energies (a.u.)
    -----------------------

    Doubly Occupied:

       1A    -20.615009     2A    -20.548946     3A    -11.380919
       4A    -11.252473     5A    -11.230064     6A    -11.226830
       7A    -11.226099     8A    -11.217428     9A     -1.470787
      10A     -1.370364    11A     -1.103222    12A     -1.046633
      13A     -0.963291    14A     -0.866745    15A     -0.829458
      16A     -0.795220    17A     -0.721735    18A     -0.672754
      19A     -0.660717    20A     -0.639038    21A     -0.608547
      22A     -0.603339    23A     -0.577474    24A     -0.566553
      25A     -0.545000    26A     -0.519095    27A     -0.502212
      28A     -0.478264    29A     -0.476319    30A     -0.471816
      31A     -0.463655    32A     -0.439811

  @DF-RHF Final Energy:  -383.93575579246448

   => Energetics <=

    Nuclear Repulsion Energy =            376.6442895045453838
    One-Electron Energy =               -1268.9804291899729378
    Two-Electron Energy =                 508.4003838929627364
    DFT Exchange-Correlation Energy =       0.0000000000000000
    Empirical Dispersion Energy =           0.0000000000000000
    PCM Polarization Energy =               0.0000000000000000
    EFP Energy =                            0.0000000000000000
    Total Energy =                       -383.9357557924647608

  Mulliken Charges: (a.u.)
   Center  Symbol    Alpha    Beta     Spin     Total
       1     H     0.26747  0.26747  0.00000  0.46505
       2     O     4.34928  4.34928  0.00000 -0.69855
       3     C     2.60078  2.60078  0.00000  0.79845
       4     C     3.24579  3.24579  0.00000 -0.49157
       5     O     4.26892  4.26892  0.00000 -0.53784
       6     C     3.15299  3.15299  0.00000 -0.30598
       7     H     0.40521  0.40521  0.00000  0.18959
       8     H     0.40110  0.40110  0.00000  0.19781
       9     C     3.15644  3.15644  0.00000 -0.31287
      10     H     0.40927  0.40927  0.00000  0.18146
      11     H     0.40416  0.40416  0.00000  0.19169
      12     C     3.15455  3.15455  0.00000 -0.30910
      13     H     0.41613  0.41613  0.00000  0.16774
      14     H     0.42387  0.42387  0.00000  0.15226
      15     C     3.23932  3.23932  0.00000 -0.47864
      16     H     0.42026  0.42026  0.00000  0.15949
      17     H     0.42602  0.42602  0.00000  0.14797
      18     H     0.41781  0.41781  0.00000  0.16439
      19     H     0.41943  0.41943  0.00000  0.16114
      20     H     0.42124  0.42124  0.00000  0.15753

   Total alpha = 32.00000, Total beta = 32.00000, Total charge = -0.00000
