  ==> Input File <==

--------------------------------------------------------------------------
set {
	reference rhf
	basis cc-pvtz
}

set_num_threads( 4 )
memory 2 gb

molecule MOL {
0 1

H	 -2.123057	 -1.371461	 -2.288533
N	 -1.207758	 -1.423887	 -1.895405
C	 -1.250261	 -1.266314	 -0.453356
H	 -0.662028	 -0.694377	 -2.302824
C	 0.142800	 -1.337438	 0.128857
H	 -1.709214	 -0.331858	 -0.132890
H	 -1.835096	 -2.076886	 -0.032654
O	 0.881195	 -0.248324	 -0.336237
H	 0.090277	 -1.316647	 1.216506
H	 0.617442	 -2.268701	 -0.171796
C	 2.208068	 -0.234417	 0.074171
H	 2.725499	 -1.027054	 -0.446768
H	 2.688377	 0.712084	 -0.164856
H	 2.295137	 -0.403407	 1.144883

	symmetry c1
}
set optking {
	frozen_dihedral = ("
		5 8 11 13
	")
}

ee = optimize('scf')
oeprop('DIPOLE', 'QUADRUPOLE', 'MULLIKEN_CHARGES')
f=open( 'psi4out.xyz', 'w' )
f.write( "14  " )
f.write( str(ee) + "\n" )
f.write( MOL.save_string_xyz() )
f.close()
--------------------------------------------------------------------------

    Molecular point group: c1
  Charge       = 0
  Multiplicity = 1
  Basis Set: CC-PVTZ
  Basis Set:
  @DF-RHF Final Energy:  -248.22498543412431
    Total Energy =                       -248.2249854341242212
    Molecular point group: c1
  Basis Set: CC-PVTZ
  Basis Set:
  Basis Set: CC-PVTZ
  Basis Set:
  @DF-RHF Final Energy:  -248.22576963843079
    Total Energy =                       -248.2257696384307906
  Basis Set: CC-PVTZ
  Basis Set:
  Basis Set: CC-PVTZ
  Basis Set:
  @DF-RHF Final Energy:  -248.22597045589694
    Total Energy =                       -248.2259704558966860
  Basis Set: CC-PVTZ
  Basis Set:
  Charge       = 0
  Multiplicity = 1
  Basis Set: CC-PVTZ
  Basis Set:

    Orbital Energies (a.u.)
    -----------------------

    Doubly Occupied:

       1A    -20.550546     2A    -15.523565     3A    -11.263954
       4A    -11.263592     5A    -11.239875     6A     -1.384399
       7A     -1.176016     8A     -1.000591     9A     -0.907655
      10A     -0.815779    11A     -0.685588    12A     -0.675948
      13A     -0.647173    14A     -0.611984    15A     -0.607665
      16A     -0.542163    17A     -0.530996    18A     -0.497660
      19A     -0.474555    20A     -0.419925    21A     -0.383921

  @DF-RHF Final Energy:  -248.22597118249848

   => Energetics <=

    Nuclear Repulsion Energy =            194.6997269650711360
    One-Electron Energy =                -723.4442975879294409
    Two-Electron Energy =                 280.5185994403598215
    DFT Exchange-Correlation Energy =       0.0000000000000000
    Empirical Dispersion Energy =           0.0000000000000000
    PCM Polarization Energy =               0.0000000000000000
    EFP Energy =                            0.0000000000000000
    Total Energy =                       -248.2259711824984834
    Molecular point group: c1
  Basis Set: CC-PVTZ
  Basis Set:

  -Total Gradient:
     Atom            X                  Y                   Z
    ------   -----------------  -----------------  -----------------
       1        0.000001913665     0.000005063517    -0.000017135534
       2       -0.000015460723    -0.000006728546    -0.000025272933
       3        0.000070447594     0.000066756296    -0.000031072215
       4       -0.000000914216     0.000006706407    -0.000009390653
       5       -0.000218844934     0.000516951759     0.001014797044
       6       -0.000010619367     0.000007126847     0.000005949722
       7        0.000055557064     0.000004709400     0.000021574688
       8        0.000270089015    -0.000659527618    -0.001045396719
       9       -0.000005719672    -0.000014647813     0.000019471848
      10        0.000006367974     0.000025456750    -0.000022355564
      11        0.000341969068    -0.000431610622    -0.001047290113
      12       -0.000036095832    -0.000002529671    -0.000020629277
      13       -0.000422103413     0.000485193989     0.001159329590
      14       -0.000036586223    -0.000002920695    -0.000002579883

  **** Optimization is complete! (in 4 steps) ****
    Final optimized geometry and variables:
    Molecular point group: c1

    Geometry (in Angstrom), charge = 0, multiplicity = 1:

    H           -2.291305901459    -0.468582070027    -1.781147717844
    N           -1.376167477797    -0.524510097551    -1.388156606957
    C           -1.418066323454    -0.371680913074     0.054429523510
    H           -0.828935092431     0.205168539757    -1.793233005199
    C           -0.025479707134    -0.450040075926     0.636708179985
    H           -1.873133324543     0.563638602488     0.378038835689
    H           -2.006060379580    -1.181186376073     0.472775897062
    O            0.716051546646     0.638624983305     0.175504126412
    H           -0.077009590269    -0.432131050520     1.724249890309
    H            0.444860010648    -1.382529933014     0.332673387821
    C            2.045820701376     0.643368287412     0.577842225961
    H            2.613824562628    -0.142735456916     0.086573907046
    H            2.468615356799     1.603401777281     0.318683023185
    H            2.134658325912     0.510856120981     1.654015436856

  Mulliken Charges: (a.u.)
   Center  Symbol    Alpha    Beta     Spin     Total
       1     H     0.43022  0.43022  0.00000  0.13956
       2     N     3.69418  3.69418  0.00000 -0.38836
       3     C     3.02224  3.02224  0.00000 -0.04448
       4     H     0.42246  0.42246  0.00000  0.15508
       5     C     2.96910  2.96910  0.00000  0.06180
       6     H     0.46458  0.46458  0.00000  0.07083
       7     H     0.45870  0.45870  0.00000  0.08260
       8     O     4.18022  4.18022  0.00000 -0.36044
       9     H     0.46889  0.46889  0.00000  0.06222
      10     H     0.46941  0.46941  0.00000  0.06118
      11     C     3.03159  3.03159  0.00000 -0.06319
      12     H     0.46746  0.46746  0.00000  0.06509
      13     H     0.44823  0.44823  0.00000  0.10353
      14     H     0.47271  0.47271  0.00000  0.05457

   Total alpha = 21.00000, Total beta = 21.00000, Total charge = -0.00000
