  ==> Input File <==

--------------------------------------------------------------------------
set {
	reference rhf
	basis 6-31G*
}

set_num_threads( 4 )
memory 2 gb

molecule MOL {
0 1

H	 0.934573	 -2.616391	 0.658190
C	 0.799585	 -1.903371	 1.480494
C	 -0.456725	 -1.074075	 1.410545
O	 1.613315	 -1.826200	 2.343058
C	 -0.558097	 -0.297372	 0.091132
H	 -0.471339	 -0.406693	 2.264282
H	 -1.306305	 -1.750516	 1.496988
C	 -1.850991	 0.512573	 -0.019058
H	 0.295323	 0.370845	 0.002060
H	 -0.495821	 -0.990812	 -0.745600
C	 -3.096943	 -0.368295	 -0.099594
H	 -1.800724	 1.150330	 -0.898172
H	 -1.931651	 1.177355	 0.838044
H	 -3.060452	 -1.020287	 -0.967456
H	 -3.996858	 0.233488	 -0.175704
H	 -3.191959	 -0.995686	 0.782074

	symmetry c1
}
set optking {
	frozen_dihedral = ("
		9 5 8 12
	")
}

ee = optimize('scf')
oeprop('DIPOLE', 'QUADRUPOLE', 'MULLIKEN_CHARGES')
f=open( 'psi4out.xyz', 'w' )
f.write( "16  " )
f.write( str(ee) + "\n" )
f.write( MOL.save_string_xyz() )
f.close()
--------------------------------------------------------------------------

    Molecular point group: c1
  Charge       = 0
  Multiplicity = 1
  Basis Set: 6-31G*
  Basis Set:
  @DF-RHF Final Energy:  -270.01784240063955
    Total Energy =                       -270.0178424006397222
    Molecular point group: c1
  Basis Set: 6-31G*
  Basis Set:
  Basis Set: 6-31G*
  Basis Set:
  @DF-RHF Final Energy:  -270.01807187032460
    Total Energy =                       -270.0180718703244338
  Basis Set: 6-31G*
  Basis Set:
  Basis Set: 6-31G*
  Basis Set:
  @DF-RHF Final Energy:  -270.01816148493458
    Total Energy =                       -270.0181614849347511
  Basis Set: 6-31G*
  Basis Set:
  Basis Set: 6-31G*
  Basis Set:
  @DF-RHF Final Energy:  -270.01828961093264
    Total Energy =                       -270.0182896109326407
  Basis Set: 6-31G*
  Basis Set:
  @DF-RHF Final Energy:  -270.01835515593677
    Total Energy =                       -270.0183551559367743
  @DF-RHF Final Energy:  -270.01837631066053
    Total Energy =                       -270.0183763106605284
  @DF-RHF Final Energy:  -270.01837874734775
    Total Energy =                       -270.0183787473476400
  @DF-RHF Final Energy:  -270.01838071761068
    Total Energy =                       -270.0183807176105688
  Basis Set: 6-31G*
  Basis Set:
  @DF-RHF Final Energy:  -270.01838545693465
    Total Energy =                       -270.0183854569347091
  Basis Set: 6-31G*
  Basis Set:
  Basis Set: 6-31G*
  Basis Set:
  @DF-RHF Final Energy:  -270.01838890840361
    Total Energy =                       -270.0183889084034945
  Basis Set: 6-31G*
  Basis Set:
  Basis Set: 6-31G*
  Basis Set:
  @DF-RHF Final Energy:  -270.01839165827516
    Total Energy =                       -270.0183916582750498
  Basis Set: 6-31G*
  Basis Set:
  Charge       = 0
  Multiplicity = 1
  Basis Set: 6-31G*
  Basis Set:

    Orbital Energies (a.u.)
    -----------------------

    Doubly Occupied:

       1A    -20.562173     2A    -11.326402     3A    -11.236945
       4A    -11.234798     5A    -11.229654     6A    -11.219732
       7A     -1.402018     8A     -1.096377     9A     -1.016057
      10A     -0.913636    11A     -0.808801    12A     -0.791708
      13A     -0.676028    14A     -0.646223    15A     -0.635811
      16A     -0.598301    17A     -0.575392    18A     -0.567103
      19A     -0.521461    20A     -0.516947    21A     -0.488147
      22A     -0.481975    23A     -0.470749    24A     -0.409321

  @DF-RHF Final Energy:  -270.01839159377982

   => Energetics <=

    Nuclear Repulsion Energy =            231.4840442363839372
    One-Electron Energy =                -824.1533556636616140
    Two-Electron Energy =                 322.6509198334977100
    DFT Exchange-Correlation Energy =       0.0000000000000000
    Empirical Dispersion Energy =           0.0000000000000000
    PCM Polarization Energy =               0.0000000000000000
    EFP Energy =                            0.0000000000000000
    Total Energy =                       -270.0183915937799384
    Molecular point group: c1
  Basis Set: 6-31G*
  Basis Set:

  -Total Gradient:
     Atom            X                  Y                   Z
    ------   -----------------  -----------------  -----------------
       1        0.000009625583     0.000018826076    -0.000014121839
       2       -0.000017197558    -0.000034693489     0.000040501852
       3        0.000000721271     0.000003815234    -0.000027728445
       4        0.000009465667     0.000009803835    -0.000012816737
       5        0.000019774667     0.000112163570     0.000392868481
       6       -0.000002466250    -0.000001046178    -0.000006923333
       7       -0.000006841407    -0.000005363781     0.000006232582
       8       -0.000122954040    -0.000243537484    -0.000278476847
       9        0.000005431058    -0.000039028849    -0.000255416623
      10       -0.000012449992     0.000008236845    -0.000002905560
      11       -0.000004672277    -0.000009593398     0.000023393657
      12        0.000124290843     0.000184591087     0.000138594329
      13        0.000003551488     0.000003122243    -0.000009014923
      14       -0.000006264324     0.000008431062    -0.000006675816
      15        0.000002292243     0.000001433461     0.000013198015
      16       -0.000002306974    -0.000017160232    -0.000000708795

  **** Optimization is complete! (in 12 steps) ****
    Final optimized geometry and variables:
    Molecular point group: c1

    Geometry (in Angstrom), charge = 0, multiplicity = 1:

    H            1.610053651336    -1.750093651323    -0.224365764697
    C            1.436796603237    -1.054750092541     0.605735680807
    C            0.141636117046    -0.287662569533     0.540060890387
    O            2.244064726594    -0.945715402111     1.471004795183
    C            0.018431399715     0.499285337453    -0.772919609133
    H            0.093692945935     0.371409392380     1.399318667030
    H           -0.669220622125    -1.008453389280     0.621216834470
    C           -1.268166418984     1.324411651044    -0.886743546688
    H            0.870690655656     1.168350749269    -0.860441562777
    H            0.079547441398    -0.187407467999    -1.615359527559
    C           -2.548491821006     0.493653780954    -0.983153184356
    H           -1.189875019366     1.953999910362    -1.768920274313
    H           -1.335901885013     2.000194231062    -0.037483946668
    H           -2.505559854485    -0.195268861607    -1.822376590227
    H           -3.411135425690     1.135926493563    -1.128237835747
    H           -2.726519276535    -0.087888707907    -0.084505655548

  Mulliken Charges: (a.u.)
   Center  Symbol    Alpha    Beta     Spin     Total
       1     H     0.43216  0.43216  0.00000  0.13568
       2     C     2.82954  2.82954  0.00000  0.34092
       3     C     3.20929  3.20929  0.00000 -0.41859
       4     O     4.23733  4.23733  0.00000 -0.47466
       5     C     3.16620  3.16620  0.00000 -0.33241
       6     H     0.39979  0.39979  0.00000  0.20042
       7     H     0.40812  0.40812  0.00000  0.18375
       8     C     3.15272  3.15272  0.00000 -0.30544
       9     H     0.41127  0.41127  0.00000  0.17746
      10     H     0.41951  0.41951  0.00000  0.16098
      11     C     3.24321  3.24321  0.00000 -0.48642
      12     H     0.41650  0.41650  0.00000  0.16701
      13     H     0.41857  0.41857  0.00000  0.16285
      14     H     0.42084  0.42084  0.00000  0.15832
      15     H     0.41534  0.41534  0.00000  0.16932
      16     H     0.41960  0.41960  0.00000  0.16080

   Total alpha = 24.00000, Total beta = 24.00000, Total charge =  0.00000
