                              Psi4 1.0.54 Driver

  ==> Input File <==

--------------------------------------------------------------------------
set {
	reference rhf
	basis cc-pvtz
}

set_num_threads( 4 )
memory 2 gb

molecule MOL {
0 1

H	 -4.230259	 0.539112	 0.036360
O	 -3.515113	 -0.019339	 -0.206321
C	 -2.302264	 0.528872	 0.237390
C	 -1.175688	 -0.398187	 -0.171891
H	 -2.148018	 1.514076	 -0.197759
H	 -2.310727	 0.646384	 1.319032
C	 0.196029	 0.106276	 0.266738
H	 -1.201873	 -0.515469	 -1.250677
H	 -1.365975	 -1.378728	 0.252664
C	 1.330220	 -0.826136	 -0.155230
H	 0.359542	 1.097229	 -0.145561
H	 0.212134	 0.218135	 1.348778
C	 2.719700	 -0.407669	 0.328325
H	 1.339388	 -0.911200	 -1.239363
H	 1.119001	 -1.821953	 0.224128
C	 3.112000	 1.026379	 -0.019474
H	 3.450788	 -1.082667	 -0.105951
H	 2.781817	 -0.547276	 1.404469
H	 3.052464	 1.197586	 -1.089616
H	 2.471720	 1.752132	 0.467364
H	 4.130185	 1.232126	 0.290591

	symmetry c1
}
set optking {
	frozen_dihedral = ("
		16 13 10 14
	")
}

ee,wfn = optimize('scf', return_wfn=True)
oeprop( wfn, 'DIPOLE', 'QUADRUPOLE', 'MULLIKEN_CHARGES')
f=open( 'psi4out.xyz', 'w' )
f.write( "21  " )
f.write( str(ee) + "\n" )
f.write( MOL.save_string_xyz() )
f.close()
--------------------------------------------------------------------------

    Molecular point group: c1
  Charge       = 0
  Multiplicity = 1
  Basis Set: CC-PVTZ
  Basis Set:
  @DF-RHF Final Energy:  -310.33233102484274
    Total Energy =                       -310.3323310248429152
    Molecular point group: c1
  Basis Set: CC-PVTZ
  Basis Set:
  Basis Set: CC-PVTZ
  Basis Set:
  @DF-RHF Final Energy:  -310.33234697760656
    Total Energy =                       -310.3323469776066759
  Basis Set: CC-PVTZ
  Basis Set:
  Basis Set: CC-PVTZ
  Basis Set:
  @DF-RHF Final Energy:  -310.33249157586243
    Total Energy =                       -310.3324915758619227
  Basis Set: CC-PVTZ
  Basis Set:
  Basis Set: CC-PVTZ
  Basis Set:
  @DF-RHF Final Energy:  -310.33249874501979
    Total Energy =                       -310.3324987450194499
  Basis Set: CC-PVTZ
  Basis Set:
  Charge       = 0
  Multiplicity = 1
  Basis Set: CC-PVTZ
  Basis Set:

    Orbital Energies (a.u.)
    -----------------------

    Doubly Occupied:

       1A    -20.545416     2A    -11.264992     3A    -11.213328
       4A    -11.213161     5A    -11.211263     6A    -11.208995
       7A    -11.205999     8A     -1.363250     9A     -1.087441
      10A     -1.034197    11A     -0.955238    12A     -0.878127
      13A     -0.808494    14A     -0.776793    15A     -0.696151
      16A     -0.663061    17A     -0.625468    18A     -0.604990
      19A     -0.588335    20A     -0.573106    21A     -0.536691
      22A     -0.522188    23A     -0.511471    24A     -0.487441
      25A     -0.480943    26A     -0.457601    27A     -0.456726
      28A     -0.445183    29A     -0.437388

  @DF-RHF Final Energy:  -310.33249907305054

   => Energetics <=

    Nuclear Repulsion Energy =            313.3539547012850903
    One-Electron Energy =               -1041.6660371647099055
    Two-Electron Energy =                 417.9795833903743869
    DFT Exchange-Correlation Energy =       0.0000000000000000
    Empirical Dispersion Energy =           0.0000000000000000
    PCM Polarization Energy =               0.0000000000000000
    EFP Energy =                            0.0000000000000000
    Total Energy =                       -310.3324990730503714
    Molecular point group: c1
  Basis Set: CC-PVTZ
  Basis Set:

  -Total Gradient:
     Atom            X                  Y                   Z
    ------   -----------------  -----------------  -----------------
       1       -0.000008537726     0.000001429487    -0.000000156683
       2       -0.000025780055    -0.000000100606    -0.000005029557
       3        0.000021454384     0.000003456012    -0.000005514631
       4       -0.000010464827     0.000019476636     0.000015062090
       5       -0.000001464202    -0.000017182073     0.000008400194
       6        0.000005233433    -0.000008201977    -0.000026806958
       7        0.000003072892    -0.000017976566     0.000019005534
       8        0.000003564831     0.000004274145     0.000026208934
       9        0.000004425863     0.000030156826    -0.000002992281
      10       -0.001110150182     0.003342779566     0.000548384996
      11       -0.000002639933    -0.000040938107     0.000013941660
      12       -0.000012322254     0.000000007570    -0.000021201811
      13        0.001224923381    -0.001370592671    -0.002377819382
      14        0.000659443870    -0.002516520453     0.000105152963
      15       -0.000010066116     0.000022334746     0.000010478970
      16       -0.000742116376     0.000562770222     0.001708951143
      17        0.000007245244     0.000012004436     0.000000853731
      18        0.000003391536     0.000009799132    -0.000011915920
      19       -0.000003970450    -0.000011873860     0.000018818732
      20        0.000023764834    -0.000021391543    -0.000012297482
      21       -0.000029008155    -0.000003710923    -0.000011524243

  **** Optimization is complete! (in 5 steps) ****
    Final optimized geometry and variables:
    Molecular point group: c1

    Geometry (in Angstrom), charge = 0, multiplicity = 1:

    H           -4.227950441548     0.442361764604     0.115660727514
    O           -3.508742870462    -0.096993289379    -0.156298842100
    C           -2.294933860058     0.470735507488     0.259371614793
    C           -1.161730458955    -0.425659741368    -0.197074326193
    H           -2.174739047037     1.465192307489    -0.165211763625
    H           -2.273360423140     0.572340897088     1.342422005082
    C            0.211316428337     0.101233258697     0.209608236289
    H           -1.216690878840    -0.526514653182    -1.276404170026
    H           -1.319083365271    -1.416406771319     0.216795985006
    C            1.349939072444    -0.795386587510    -0.269705809034
    H            0.339046081377     1.103989090885    -0.185604021233
    H            0.258916691272     0.190318027132     1.293020683212
    C            2.745837879714    -0.404360456254     0.221583163055
    H            1.350118855807    -0.842708980807    -1.356203582782
    H            1.151956383917    -1.811294840358     0.062119187428
    C            3.157488113789     1.036292490365    -0.071866523423
    H            3.467834089462    -1.079727534557    -0.226251955737
    H            2.801988502216    -0.571025025979     1.294358981460
    H            3.077914888482     1.261313440501    -1.131020301648
    H            2.542493863951     1.748306633388     0.464372658200
    H            4.186267201160     1.207358405366     0.223679595519

  Mulliken Charges: (a.u.)
   Center  Symbol    Alpha    Beta     Spin     Total
       1     H     0.39762  0.39762  0.00000  0.20475
       2     O     4.19418  4.19418  0.00000 -0.38836
       3     C     2.96324  2.96324  0.00000  0.07352
       4     C     3.08413  3.08413  0.00000 -0.16827
       5     H     0.47500  0.47500  0.00000  0.05001
       6     H     0.47505  0.47505  0.00000  0.04991
       7     C     3.10455  3.10455  0.00000 -0.20910
       8     H     0.45098  0.45098  0.00000  0.09803
       9     H     0.45029  0.45029  0.00000  0.09942
      10     C     3.09476  3.09476  0.00000 -0.18952
      11     H     0.45248  0.45248  0.00000  0.09503
      12     H     0.45480  0.45480  0.00000  0.09040
      13     C     3.08944  3.08944  0.00000 -0.17888
      14     H     0.45202  0.45202  0.00000  0.09595
      15     H     0.45001  0.45001  0.00000  0.09997
      16     C     3.15511  3.15511  0.00000 -0.31022
      17     H     0.44863  0.44863  0.00000  0.10274
      18     H     0.45462  0.45462  0.00000  0.09076
      19     H     0.45424  0.45424  0.00000  0.09152
      20     H     0.45300  0.45300  0.00000  0.09400
      21     H     0.44583  0.44583  0.00000  0.10834

   Total alpha = 29.00000, Total beta = 29.00000, Total charge = -0.00000

*** Psi4 exiting successfully. Buy a developer a beer!
