  ==> Input File <==

--------------------------------------------------------------------------
set {
	reference rhf
	basis 6-31G*
}

set_num_threads( 4 )
memory 2 gb

molecule MOL {
0 1

H	 1.681188	 1.007935	 0.939912
C	 0.811483	 1.109204	 0.305354
O	 0.000000	 0.000000	 0.521119
H	 0.296934	 2.034966	 0.558124
H	 1.137355	 1.169182	 -0.731902
C	 -1.165642	 0.000000	 -0.238270
H	 -1.228672	 0.883184	 -0.872070
H	 -2.003012	 0.000000	 0.445920
H	 -1.228672	 -0.883184	 -0.872070

	symmetry c1
}
set optking {
	frozen_dihedral = ("
		2 3 6 7
	")
}

ee = optimize('scf')
oeprop('DIPOLE', 'QUADRUPOLE', 'MULLIKEN_CHARGES')
f=open( 'psi4out.xyz', 'w' )
f.write( "9  " )
f.write( str(ee) + "\n" )
f.write( MOL.save_string_xyz() )
f.close()
--------------------------------------------------------------------------

    Molecular point group: c1
  Charge       = 0
  Multiplicity = 1
  Basis Set: 6-31G*
  Basis Set:
  @DF-RHF Final Energy:  -154.05996790093113
    Total Energy =                       -154.0599679009311842
    Molecular point group: c1
  Basis Set: 6-31G*
  Basis Set:
  Basis Set: 6-31G*
  Basis Set:
  @DF-RHF Final Energy:  -154.06039717861080
    Total Energy =                       -154.0603971786108559
  Basis Set: 6-31G*
  Basis Set:
  Basis Set: 6-31G*
  Basis Set:
  @DF-RHF Final Energy:  -154.06053063284293
    Total Energy =                       -154.0605306328429265
  Basis Set: 6-31G*
  Basis Set:
  Charge       = 0
  Multiplicity = 1
  Basis Set: 6-31G*
  Basis Set:

    Orbital Energies (a.u.)
    -----------------------

    Doubly Occupied:

       1A    -20.551967     2A    -11.265646     3A    -11.264619
       4A     -1.373704     5A     -0.974879     6A     -0.872835
       7A     -0.656059     8A     -0.653185     9A     -0.642577
      10A     -0.559369    11A     -0.527912    12A     -0.472743
      13A     -0.411333

  @DF-RHF Final Energy:  -154.06053151062633

   => Energetics <=

    Nuclear Repulsion Energy =             84.4659909740320956
    One-Electron Energy =                -376.5993843221389170
    Two-Electron Energy =                 138.0728618374805023
    DFT Exchange-Correlation Energy =       0.0000000000000000
    Empirical Dispersion Energy =           0.0000000000000000
    PCM Polarization Energy =               0.0000000000000000
    EFP Energy =                            0.0000000000000000
    Total Energy =                       -154.0605315106263333
    Molecular point group: c1
  Basis Set: 6-31G*
  Basis Set:

  -Total Gradient:
     Atom            X                  Y                   Z
    ------   -----------------  -----------------  -----------------
       1        0.000030630509     0.000036108117     0.000003211738
       2        0.000129884796     0.000019156762     0.000029271672
       3       -0.000114385742     0.000034894569    -0.000122148415
       4       -0.000033710758    -0.000054847509    -0.000013441057
       5       -0.000034458846    -0.000004847279     0.000010427136
       6       -0.000023823510    -0.000033556641     0.000117837597
       7        0.000054929050     0.000005624310     0.000000896932
       8       -0.000031721271    -0.000004148704    -0.000014288202
       9        0.000022655771     0.000001616374    -0.000011767401

  **** Optimization is complete! (in 4 steps) ****
    Final optimized geometry and variables:
    Molecular point group: c1

    Geometry (in Angstrom), charge = 0, multiplicity = 1:

    H            1.814335423252     0.605535299217     0.758490088922
    C            0.949629681847     0.728163722686     0.120616050607
    O            0.120891646670    -0.371286046864     0.326887315739
    H            0.453041426987     1.660812775538     0.381133833996
    H            1.284354838131     0.791788951258    -0.912947287329
    C           -1.060588313290    -0.389008388866    -0.419530646903
    H           -1.149170696283     0.482481474606    -1.061532345635
    H           -1.914813257696    -0.409724376292     0.248855467682
    H           -1.085220480381    -1.276579581913    -1.042813785535

  Mulliken Charges: (a.u.)
   Center  Symbol    Alpha    Beta     Spin     Total
       1     H     0.41277  0.41277  0.00000  0.17446
       2     C     3.07876  3.07876  0.00000 -0.15752
       3     O     4.30060  4.30060  0.00000 -0.60120
       4     H     0.43008  0.43008  0.00000  0.13984
       5     H     0.43008  0.43008  0.00000  0.13984
       6     C     3.07741  3.07741  0.00000 -0.15481
       7     H     0.43008  0.43008  0.00000  0.13984
       8     H     0.42011  0.42011  0.00000  0.15978
       9     H     0.42012  0.42012  0.00000  0.15977

   Total alpha = 13.00000, Total beta = 13.00000, Total charge = -0.00000
