                              Psi4 1.0.54 Driver

  ==> Input File <==

--------------------------------------------------------------------------
set {
	reference rhf
	basis cc-pvtz
}

set_num_threads( 4 )
memory 2 gb

molecule MOL {
0 1

H	 1.166964	 -1.062386	 0.758429
O	 1.324748	 -0.612467	 -0.052206
C	 0.706474	 0.636793	 -0.025501
C	 1.639124	 1.800650	 -0.207795
H	 0.219785	 0.717561	 0.939338
H	 -0.080344	 0.696201	 -0.775226
C	 2.950039	 1.731999	 -0.279172
H	 1.152036	 2.759154	 -0.280355
H	 3.472406	 0.798267	 -0.194028
H	 3.544888	 2.615405	 -0.412622

	symmetry c1
}
set optking {
	frozen_dihedral = ("
		5 3 2 1
	")
}

ee,wfn = optimize('scf', return_wfn=True)
oeprop( wfn, 'DIPOLE', 'QUADRUPOLE', 'MULLIKEN_CHARGES')
f=open( 'psi4out.xyz', 'w' )
f.write( "10  " )
f.write( str(ee) + "\n" )
f.write( MOL.save_string_xyz() )
f.close()
--------------------------------------------------------------------------

    Molecular point group: c1
  Charge       = 0
  Multiplicity = 1
  Basis Set: CC-PVTZ
  Basis Set:
  @DF-RHF Final Energy:  -191.99552572623026
    Total Energy =                       -191.9955257262301984
    Molecular point group: c1
  Basis Set: CC-PVTZ
  Basis Set:
  Basis Set: CC-PVTZ
  Basis Set:
  @DF-RHF Final Energy:  -191.95517308280040
    Total Energy =                       -191.9551730828002860
  Basis Set: CC-PVTZ
  Basis Set:
  Basis Set: CC-PVTZ
  Basis Set:
  @DF-RHF Final Energy:  -191.99548572449368
    Total Energy =                       -191.9954857244937045
  Basis Set: CC-PVTZ
  Basis Set:
  Basis Set: CC-PVTZ
  Basis Set:
  @DF-RHF Final Energy:  -191.99681484974764
    Total Energy =                       -191.9968148497475227
  Basis Set: CC-PVTZ
  Basis Set:
  Basis Set: CC-PVTZ
  Basis Set:
  @DF-RHF Final Energy:  -191.99685144641984
    Total Energy =                       -191.9968514464197256
  Basis Set: CC-PVTZ
  Basis Set:
  Basis Set: CC-PVTZ
  Basis Set:
  @DF-RHF Final Energy:  -191.99685517826398
    Total Energy =                       -191.9968551782639281
  Basis Set: CC-PVTZ
  Basis Set:
  Charge       = 0
  Multiplicity = 1
  Basis Set: CC-PVTZ
  Basis Set:

    Orbital Energies (a.u.)
    -----------------------

    Doubly Occupied:

       1A    -20.553321     2A    -11.278559     3A    -11.223795
       4A    -11.208712     5A     -1.373133     6A     -1.058386
       7A     -0.927713     8A     -0.760288     9A     -0.708606
      10A     -0.652879    11A     -0.615375    12A     -0.582465
      13A     -0.513201    14A     -0.506800    15A     -0.451262
      16A     -0.361842

  @DF-RHF Final Energy:  -191.99685522005825

   => Energetics <=

    Nuclear Repulsion Energy =            119.4346304484332819
    One-Electron Energy =                -497.3102996360766497
    Two-Electron Energy =                 185.8788139675851312
    DFT Exchange-Correlation Energy =       0.0000000000000000
    Empirical Dispersion Energy =           0.0000000000000000
    PCM Polarization Energy =               0.0000000000000000
    EFP Energy =                            0.0000000000000000
    Total Energy =                       -191.9968552200582508
    Molecular point group: c1
  Basis Set: CC-PVTZ
  Basis Set:

  -Total Gradient:
     Atom            X                  Y                   Z
    ------   -----------------  -----------------  -----------------
       1       -0.000178268973    -0.000156108605    -0.000252335250
       2        0.000269877947     0.000200883253     0.000364678983
       3       -0.000251095233    -0.000196509986    -0.000301571316
       4        0.000009352869     0.000011611575    -0.000050919500
       5        0.000145805847     0.000126321273     0.000215470589
       6        0.000013649741     0.000007295080     0.000007650700
       7       -0.000003234178     0.000001581711    -0.000034492579
       8        0.000000952530     0.000005384709     0.000016968098
       9       -0.000001901206     0.000000734532     0.000013038326
      10       -0.000005139344    -0.000001193541     0.000021511949

  **** Optimization is complete! (in 7 steps) ****
    Final optimized geometry and variables:
    Molecular point group: c1

    Geometry (in Angstrom), charge = 0, multiplicity = 1:

    H           -0.358411957463    -2.040123350019     0.416517654538
    O           -0.023744263070    -1.416534659838    -0.198255022166
    C           -0.862179363256    -0.298835553301    -0.268280108837
    C           -0.148137156312     0.980530705494     0.056941313761
    H           -1.709871574435    -0.405506391379     0.403967563004
    H           -1.270701458814    -0.227334355368    -1.272477930550
    C            1.109924078701     1.084186190218     0.420459082638
    H           -0.754937950418     1.866486558761    -0.034337919552
    H            1.738306827144     0.220044235795     0.510433346688
    H            1.546444657488     2.041819687884     0.632388919500

  Mulliken Charges: (a.u.)
   Center  Symbol    Alpha    Beta     Spin     Total
       1     H     0.38962  0.38962  0.00000  0.22075
       2     O     4.19882  4.19882  0.00000 -0.39764
       3     C     2.94653  2.94653  0.00000  0.10694
       4     C     3.07951  3.07951  0.00000 -0.15903
       5     H     0.47258  0.47258  0.00000  0.05484
       6     H     0.46436  0.46436  0.00000  0.07129
       7     C     3.17417  3.17417  0.00000 -0.34834
       8     H     0.42430  0.42430  0.00000  0.15140
       9     H     0.42036  0.42036  0.00000  0.15928
      10     H     0.42974  0.42974  0.00000  0.14051

   Total alpha = 16.00000, Total beta = 16.00000, Total charge = -0.00000

*** Psi4 exiting successfully. Buy a developer a beer!
