  ==> Input File <==

--------------------------------------------------------------------------
set {
	reference rhf
	basis cc-pvtz
}

set_num_threads( 4 )
memory 2 gb

molecule MOL {
0 1

H	 -1.752232	 -2.214755	 -0.011938
C	 -1.343852	 -1.221619	 -0.018179
N	 -0.058800	 -1.097635	 -0.261688
C	 -2.148159	 -0.124236	 0.219734
C	 0.449026	 0.119242	 -0.273393
H	 -3.196988	 -0.237571	 0.417076
N	 -1.655094	 1.094230	 0.209506
C	 -0.370318	 1.215445	 -0.035100
C	 1.924033	 0.265863	 -0.538106
H	 0.033214	 2.210441	 -0.046812
C	 2.242841	 1.442291	 -1.462134
H	 2.425040	 0.408532	 0.411842
H	 2.305125	 -0.653036	 -0.967766
H	 3.313272	 1.536022	 -1.601157
H	 1.871796	 2.367983	 -1.042138
H	 1.787972	 1.307242	 -2.437020

	symmetry c1
}
set optking {
	frozen_dihedral = ("
		12 9 5 3
	")
}

ee = optimize('scf')
oeprop('DIPOLE', 'QUADRUPOLE', 'MULLIKEN_CHARGES')
f=open( 'psi4out.xyz', 'w' )
f.write( "16  " )
f.write( str(ee) + "\n" )
f.write( MOL.save_string_xyz() )
f.close()
--------------------------------------------------------------------------

    Molecular point group: c1
  Charge       = 0
  Multiplicity = 1
  Basis Set: CC-PVTZ
  Basis Set:
  @DF-RHF Final Energy:  -340.86913217228499
    Total Energy =                       -340.8691321722850489
    Molecular point group: c1
  Basis Set: CC-PVTZ
  Basis Set:
  Basis Set: CC-PVTZ
  Basis Set:
  @DF-RHF Final Energy:  -340.86987482215721
    Total Energy =                       -340.8698748221575556
  Basis Set: CC-PVTZ
  Basis Set:
  Basis Set: CC-PVTZ
  Basis Set:
  @DF-RHF Final Energy:  -340.87017571932051
    Total Energy =                       -340.8701757193209687
  Basis Set: CC-PVTZ
  Basis Set:
  Basis Set: CC-PVTZ
  Basis Set:
  @DF-RHF Final Energy:  -340.87020450193819
    Total Energy =                       -340.8702045019385878
  Basis Set: CC-PVTZ
  Basis Set:
  Basis Set: CC-PVTZ
  Basis Set:
  @DF-RHF Final Energy:  -340.87021099551805
    Total Energy =                       -340.8702109955177662
  Basis Set: CC-PVTZ
  Basis Set:
  Basis Set: CC-PVTZ
  Basis Set:
  @DF-RHF Final Energy:  -340.87021267771757
    Total Energy =                       -340.8702126777174044
  Basis Set: CC-PVTZ
  Basis Set:
  Charge       = 0
  Multiplicity = 1
  Basis Set: CC-PVTZ
  Basis Set:

    Orbital Energies (a.u.)
    -----------------------

    Doubly Occupied:

       1A    -15.580162     2A    -15.575218     3A    -11.279337
       4A    -11.270960     5A    -11.268539     6A    -11.266749
       7A    -11.231630     8A    -11.221718     9A     -1.315370
      10A     -1.223220    11A     -1.086487    12A     -1.016548
      13A     -0.907831    14A     -0.895313    15A     -0.831820
      16A     -0.716654    17A     -0.713371    18A     -0.655931
      19A     -0.622024    20A     -0.609065    21A     -0.577925
      22A     -0.565952    23A     -0.523288    24A     -0.512319
      25A     -0.505991    26A     -0.483358    27A     -0.433235
      28A     -0.397405    29A     -0.346370

  @DF-RHF Final Energy:  -340.87021343836750

   => Energetics <=

    Nuclear Repulsion Energy =            349.9440065738024259
    One-Electron Energy =               -1154.3608585718695849
    Two-Electron Energy =                 463.5466385596996588
    DFT Exchange-Correlation Energy =       0.0000000000000000
    Empirical Dispersion Energy =           0.0000000000000000
    PCM Polarization Energy =               0.0000000000000000
    EFP Energy =                            0.0000000000000000
    Total Energy =                       -340.8702134383675002
    Molecular point group: c1
  Basis Set: CC-PVTZ
  Basis Set:

  -Total Gradient:
     Atom            X                  Y                   Z
    ------   -----------------  -----------------  -----------------
       1        0.000001532917    -0.000001510376     0.000012123445
       2        0.000069995669    -0.000017498387    -0.000010326267
       3        0.000077688181    -0.000077663207     0.000638291078
       4        0.000007675603     0.000063635367    -0.000018552832
       5       -0.000164652949    -0.000095788264    -0.000882055064
       6        0.000000272405    -0.000009265835     0.000002185002
       7       -0.000037067446    -0.000030470131     0.000005177688
       8        0.000080007460     0.000015771952     0.000008946699
       9       -0.000037943711     0.000932430228     0.000172653654
      10       -0.000016456787     0.000000580330    -0.000021140900
      11       -0.000031630704    -0.000016498975     0.000021140878
      12        0.000086160832    -0.000781840804     0.000068931544
      13       -0.000029909683    -0.000012107300     0.000015793553
      14       -0.000011289148     0.000000521504     0.000000614713
      15        0.000002526639     0.000026033013    -0.000004573280
      16        0.000003090720     0.000003670887    -0.000009209912

  **** Optimization is complete! (in 7 steps) ****
    Final optimized geometry and variables:
    Molecular point group: c1

    Geometry (in Angstrom), charge = 0, multiplicity = 1:

    H           -1.648958393255    -2.465099203117     0.251446373694
    C           -1.260535993597    -1.464247482521     0.258206383579
    N            0.024083629744    -1.313502295166     0.008166922865
    C           -2.079552320709    -0.388418900397     0.518158209134
    C            0.512980604345    -0.091870855006     0.010728388908
    H           -3.125054403026    -0.520340277898     0.720403374794
    N           -1.604024440052     0.840451794311     0.528301786550
    C           -0.326290321682     0.987945958372     0.278252987766
    C            1.992589834950     0.068995252512    -0.244924263229
    H            0.055049526107     1.990416995264     0.290363765428
    C            2.370607320412     1.203763251669    -1.195488974301
    H            2.494500736138     0.208997091566     0.708394818205
    H            2.345510789803    -0.873789710924    -0.638720508183
    H            3.439755568714     1.200236106074    -1.368642452279
    H            2.110164384179     2.176743377041    -0.797839367535
    H            1.876411905179     1.091015996412    -2.153428454085

  Mulliken Charges: (a.u.)
   Center  Symbol    Alpha    Beta     Spin     Total
       1     H     0.41388  0.41388  0.00000  0.17224
       2     C     3.04126  3.04126  0.00000 -0.08251
       3     N     3.59002  3.59002  0.00000 -0.18003
       4     C     3.04799  3.04799  0.00000 -0.09598
       5     C     2.95300  2.95300  0.00000  0.09400
       6     H     0.41368  0.41368  0.00000  0.17263
       7     N     3.58804  3.58804  0.00000 -0.17609
       8     C     3.07369  3.07369  0.00000 -0.14738
       9     C     3.07706  3.07706  0.00000 -0.15413
      10     H     0.41442  0.41442  0.00000  0.17116
      11     C     3.15042  3.15042  0.00000 -0.30085
      12     H     0.44686  0.44686  0.00000  0.10628
      13     H     0.44070  0.44070  0.00000  0.11860
      14     H     0.44593  0.44593  0.00000  0.10813
      15     H     0.45498  0.45498  0.00000  0.09004
      16     H     0.44806  0.44806  0.00000  0.10387

   Total alpha = 29.00000, Total beta = 29.00000, Total charge = -0.00000
