  ==> Input File <==

--------------------------------------------------------------------------
set {
	reference rhf
	basis 6-31G*
}

set_num_threads( 1 )
memory 2 gb

molecule MOL {
0 1

H	 -3.420663	 1.227371	 -1.044276
O	 -3.452007	 0.283848	 -0.965577
C	 -3.181085	 -0.079926	 0.364119
C	 -1.765924	 0.277073	 0.805136
H	 -3.327791	 -1.152017	 0.410903
H	 -3.905698	 0.375695	 1.036898
C	 -0.677594	 -0.417312	 -0.014550
H	 -1.637766	 1.358238	 0.744969
H	 -1.659588	 0.017670	 1.857098
C	 0.713049	 -0.300499	 0.612862
H	 -0.664106	 0.001142	 -1.016261
H	 -0.935475	 -1.469113	 -0.126825
C	 1.796149	 -1.003011	 -0.210215
H	 0.960333	 0.751765	 0.731220
H	 0.694493	 -0.724459	 1.616116
C	 3.192432	 -0.989892	 0.422538
H	 1.846623	 -0.550162	 -1.199193
H	 1.498060	 -2.037706	 -0.366312
C	 3.825836	 0.397974	 0.536700
H	 3.846066	 -1.622816	 -0.172829
H	 3.144589	 -1.447229	 1.408822
H	 3.875374	 0.885040	 -0.433584
H	 4.838304	 0.329066	 0.922703
H	 3.267460	 1.046027	 1.204088

	symmetry c1
}
set optking {
	frozen_dihedral = ("
		20 16 13 17,
		17 13 10 7,
		13 10 7 11,
		1 2 3 5,
		7 4 3 2
	")
}

ee = energy('scf')
oeprop('DIPOLE', 'QUADRUPOLE', 'MULLIKEN_CHARGES')
f=open( 'psi4out.xyz', 'w' )
f.write( "24  " )
f.write( str(ee) + "\n" )
f.write( MOL.save_string_xyz() )
f.close()
--------------------------------------------------------------------------

    Molecular point group: c1

    Geometry (in Angstrom), charge = 0, multiplicity = 1:

       Center              X                  Y                   Z               Mass
    ------------   -----------------  -----------------  -----------------  -----------------
           H         -3.421575005824     1.433037730850    -1.219714238318     1.007825032070
           O         -3.452919005824     0.489514730850    -1.141015238318    15.994914619560
           C         -3.181997005824     0.125740730850     0.188680761682    12.000000000000
           C         -1.766836005824     0.482739730850     0.629697761682    12.000000000000
           H         -3.328703005824    -0.946350269150     0.235464761682     1.007825032070
           H         -3.906610005824     0.581361730850     0.861459761682     1.007825032070
           C         -0.678506005824    -0.211645269150    -0.189988238318    12.000000000000
           H         -1.638678005824     1.563904730850     0.569530761682     1.007825032070
           H         -1.660500005824     0.223336730850     1.681659761682     1.007825032070
           C          0.712136994176    -0.094832269150     0.437423761682    12.000000000000
           H         -0.665018005824     0.206808730850    -1.191699238318     1.007825032070
           H         -0.936387005824    -1.263446269150    -0.302263238318     1.007825032070
           C          1.795236994176    -0.797344269150    -0.385653238318    12.000000000000
           H          0.959420994176     0.957431730850     0.555781761682     1.007825032070
           H          0.693580994176    -0.518792269150     1.440677761682     1.007825032070
           C          3.191519994176    -0.784225269150     0.247099761682    12.000000000000
           H          1.845710994176    -0.344495269150    -1.374631238318     1.007825032070
           H          1.497147994176    -1.832039269150    -0.541750238318     1.007825032070
           C          3.824923994176     0.603640730850     0.361261761682    12.000000000000
           H          3.845153994176    -1.417149269150    -0.348267238318     1.007825032070
           H          3.143676994176    -1.241562269150     1.233383761682     1.007825032070
           H          3.874461994176     1.090706730850    -0.609022238318     1.007825032070
           H          4.837391994176     0.534732730850     0.747264761682     1.007825032070
           H          3.266547994176     1.251693730850     1.028649761682     1.007825032070

  Charge       = 0
  Multiplicity = 1
  Basis Set: 6-31G*
  Basis Set:

    Orbital Energies (a.u.)
    -----------------------

    Doubly Occupied:

       1A    -20.553207     2A    -11.267622     3A    -11.217371
       4A    -11.214150     5A    -11.212628     6A    -11.211731
       7A    -11.211512     8A    -11.207436     9A     -1.359806
      10A     -1.088756    11A     -1.048410    12A     -0.985612
      13A     -0.915013    14A     -0.850694    15A     -0.800761
      16A     -0.776439    17A     -0.678723    18A     -0.653400
      19A     -0.626922    20A     -0.618208    21A     -0.598590
      22A     -0.583152    23A     -0.556247    24A     -0.543085
      25A     -0.516037    26A     -0.504987    27A     -0.500686
      28A     -0.474254    29A     -0.468088    30A     -0.460109
      31A     -0.455239    32A     -0.450107    33A     -0.418631

  @DF-RHF Final Energy:  -349.24701342314734

   => Energetics <=

    Nuclear Repulsion Energy =            384.1088400895537234
    One-Electron Energy =               -1234.6563189108153438
    Two-Electron Energy =                 501.3004653981129195
    DFT Exchange-Correlation Energy =       0.0000000000000000
    Empirical Dispersion Energy =           0.0000000000000000
    PCM Polarization Energy =               0.0000000000000000
    EFP Energy =                            0.0000000000000000
    Total Energy =                       -349.2470134231487009

  Mulliken Charges: (a.u.)
   Center  Symbol    Alpha    Beta     Spin     Total
       1     H     0.28343  0.28343  0.00000  0.43313
       2     O     4.36856  4.36856  0.00000 -0.73712
       3     C     2.99647  2.99647  0.00000  0.00706
       4     C     3.16941  3.16941  0.00000 -0.33882
       5     H     0.41621  0.41621  0.00000  0.16757
       6     H     0.42844  0.42844  0.00000  0.14311
       7     C     3.14881  3.14881  0.00000 -0.29762
       8     H     0.42764  0.42764  0.00000  0.14473
       9     H     0.42241  0.42241  0.00000  0.15517
      10     C     3.15422  3.15422  0.00000 -0.30845
      11     H     0.41520  0.41520  0.00000  0.16960
      12     H     0.42260  0.42260  0.00000  0.15481
      13     C     3.15230  3.15230  0.00000 -0.30460
      14     H     0.42282  0.42282  0.00000  0.15437
      15     H     0.42525  0.42525  0.00000  0.14949
      16     C     3.15233  3.15233  0.00000 -0.30465
      17     H     0.42384  0.42384  0.00000  0.15232
      18     H     0.42184  0.42184  0.00000  0.15632
      19     C     3.24103  3.24103  0.00000 -0.48206
      20     H     0.42103  0.42103  0.00000  0.15794
      21     H     0.42376  0.42376  0.00000  0.15248
      22     H     0.42236  0.42236  0.00000  0.15528
      23     H     0.41952  0.41952  0.00000  0.16096
      24     H     0.42051  0.42051  0.00000  0.15898

   Total alpha = 33.00000, Total beta = 33.00000, Total charge =  0.00000
