  ==> Input File <==

--------------------------------------------------------------------------
set {
	reference rhf
	basis 6-31G*
}

set_num_threads( 1 )
memory 2 gb

molecule MOL {
0 1

O	 -0.291628	 1.323815	 -0.000732
C	 -0.449655	 0.146360	 0.000961
C	 -1.783294	 -0.549321	 -0.000296
O	 0.550821	 -0.724572	 0.000672
H	 -1.863538	 -1.185371	 -0.874187
H	 -2.574672	 0.185258	 -0.002793
H	 -1.866414	 -1.182381	 0.875436
C	 1.180558	 -0.979012	 1.243642
H	 1.610452	 -0.072196	 1.643932
H	 1.954852	 -1.701829	 1.039305
H	 0.471248	 -1.379854	 1.953253

	symmetry c1
}
set optking {
	frozen_dihedral = ("
		2 4 8 9
	")
}

ee = energy('scf')
oeprop('DIPOLE', 'QUADRUPOLE', 'MULLIKEN_CHARGES')
f=open( 'psi4out.xyz', 'w' )
f.write( "11  " )
f.write( str(ee) + "\n" )
f.write( MOL.save_string_xyz() )
f.close()
--------------------------------------------------------------------------

    Molecular point group: c1

    Geometry (in Angstrom), charge = 0, multiplicity = 1:

       Center              X                  Y                   Z               Mass
    ------------   -----------------  -----------------  -----------------  -----------------
           O         -0.146176753824     1.490988204501    -0.265491475719    15.994914619560
           C         -0.304203753824     0.313533204501    -0.263798475719    12.000000000000
           C         -1.637842753824    -0.382147795499    -0.265055475719    12.000000000000
           O          0.696272246176    -0.557398795499    -0.264087475719    15.994914619560
           H         -1.718086753824    -1.018197795499    -1.138946475719     1.007825032070
           H         -2.429220753824     0.352431204501    -0.267552475719     1.007825032070
           H         -1.720962753824    -1.015207795499     0.610676524281     1.007825032070
           C          1.326009246176    -0.811838795499     0.978882524281    12.000000000000
           H          1.755903246176     0.094977204501     1.379172524281     1.007825032070
           H          2.100303246176    -1.534655795499     0.774545524281     1.007825032070
           H          0.616699246176    -1.212680795499     1.688493524281     1.007825032070

  Charge       = 0
  Multiplicity = 1
  Basis Set: 6-31G*
  Basis Set:

    Orbital Energies (a.u.)
    -----------------------

    Doubly Occupied:

       1A    -20.589162     2A    -20.555696     3A    -11.377671
       4A    -11.295485     5A    -11.235624     6A     -1.466134
       7A     -1.368338     8A     -1.028782     9A     -0.967066
      10A     -0.781525    11A     -0.694796    12A     -0.684930
      13A     -0.672867    14A     -0.610919    15A     -0.590622
      16A     -0.574786    17A     -0.544377    18A     -0.493240
      19A     -0.460199    20A     -0.441036

  @DF-RHF Final Energy:  -266.81610558787128

   => Energetics <=

    Nuclear Repulsion Energy =            183.1327462965689392
    One-Electron Energy =                -727.0311315830714420
    Two-Electron Energy =                 277.0822796986319645
    DFT Exchange-Correlation Energy =       0.0000000000000000
    Empirical Dispersion Energy =           0.0000000000000000
    PCM Polarization Energy =               0.0000000000000000
    EFP Energy =                            0.0000000000000000
    Total Energy =                       -266.8161055878705383

  Mulliken Charges: (a.u.)
   Center  Symbol    Alpha    Beta     Spin     Total
       1     O     4.25639  4.25639  0.00000 -0.51278
       2     C     2.63138  2.63138  0.00000  0.73723
       3     C     3.28449  3.28449  0.00000 -0.56899
       4     O     4.30350  4.30350  0.00000 -0.60700
       5     H     0.39806  0.39806  0.00000  0.20388
       6     H     0.39842  0.39842  0.00000  0.20317
       7     H     0.40722  0.40722  0.00000  0.18557
       8     C     3.09278  3.09278  0.00000 -0.18556
       9     H     0.40540  0.40540  0.00000  0.18920
      10     H     0.40159  0.40159  0.00000  0.19682
      11     H     0.42077  0.42077  0.00000  0.15846

   Total alpha = 20.00000, Total beta = 20.00000, Total charge =  0.00000
