  ==> Input File <==

--------------------------------------------------------------------------
set {
	reference rhf
	basis 6-31G*
}

set_num_threads( 1 )
memory 2 gb

molecule MOL {
0 1

O	 3.225979	 0.970355	 -0.599647
C	 2.701189	 0.057885	 -0.047330
C	 1.245376	 -0.013843	 0.345420
O	 3.347903	 -1.046386	 0.304773
C	 0.455112	 1.231400	 -0.050772
H	 0.838542	 -0.913825	 -0.103701
H	 1.208210	 -0.175333	 1.419774
C	 -0.998893	 1.219485	 0.433193
H	 0.482531	 1.345121	 -1.130325
H	 0.957290	 2.103070	 0.354729
C	 -1.573803	 2.594970	 0.783376
H	 -1.055307	 0.584818	 1.314521
H	 -1.627709	 0.746315	 -0.319610
C	 -2.987194	 2.518692	 1.364330
H	 -0.916626	 3.085456	 1.499867
H	 -1.591016	 3.229729	 -0.099663
C	 -3.573851	 3.887742	 1.713135
H	 -2.976119	 1.895450	 2.256900
H	 -3.642497	 2.018714	 0.652783
C	 -4.983964	 3.802494	 2.296240
H	 -2.919732	 4.389152	 2.423317
H	 -3.589779	 4.510679	 0.821240
H	 -5.372378	 4.788208	 2.533115
H	 -4.995616	 3.214281	 3.209513
H	 -5.670597	 3.336181	 1.595268
C	 4.728119	 -1.109107	 -0.004993
H	 4.882018	 -1.033965	 -1.071845
H	 5.068212	 -2.067527	 0.355250
H	 5.265056	 -0.311663	 0.488280

	symmetry c1
}
set optking {
	frozen_dihedral = ("
		21 17 14 11,
		17 14 11 15,
		15 11 8 5,
		6 3 5 9,
		2 4 26 27,
		1 2 4 26,
		6 3 2 1
	")
}

ee = energy('scf')
oeprop('DIPOLE', 'QUADRUPOLE', 'MULLIKEN_CHARGES')
f=open( 'psi4out.xyz', 'w' )
f.write( "29  " )
f.write( str(ee) + "\n" )
f.write( MOL.save_string_xyz() )
f.close()
--------------------------------------------------------------------------

    Molecular point group: c1

    Geometry (in Angstrom), charge = 0, multiplicity = 1:

       Center              X                  Y                   Z               Mass
    ------------   -----------------  -----------------  -----------------  -----------------
           O          3.039324826245    -0.294712268427    -1.191568046450    15.994914619560
           C          2.514534826245    -1.207182268427    -0.639251046450    12.000000000000
           C          1.058721826245    -1.278910268427    -0.246501046450    12.000000000000
           O          3.161248826245    -2.311453268427    -0.287148046450    15.994914619560
           C          0.268457826245    -0.033667268427    -0.642693046450    12.000000000000
           H          0.651887826245    -2.178892268427    -0.695622046450     1.007825032070
           H          1.021555826245    -1.440400268427     0.827852953550     1.007825032070
           C         -1.185547173755    -0.045582268427    -0.158728046450    12.000000000000
           H          0.295876826245     0.080053731573    -1.722246046450     1.007825032070
           H          0.770635826245     0.838002731573    -0.237192046450     1.007825032070
           C         -1.760457173755     1.329902731573     0.191454953550    12.000000000000
           H         -1.241961173755    -0.680249268427     0.722599953550     1.007825032070
           H         -1.814363173755    -0.518752268427    -0.911531046450     1.007825032070
           C         -3.173848173755     1.253624731573     0.772408953550    12.000000000000
           H         -1.103280173755     1.820388731573     0.907945953550     1.007825032070
           H         -1.777670173755     1.964661731573    -0.691584046450     1.007825032070
           C         -3.760505173755     2.622674731573     1.121213953550    12.000000000000
           H         -3.162773173755     0.630382731573     1.664978953550     1.007825032070
           H         -3.829151173755     0.753646731573     0.060861953550     1.007825032070
           C         -5.170618173755     2.537426731573     1.704318953550    12.000000000000
           H         -3.106386173755     3.124084731573     1.831395953550     1.007825032070
           H         -3.776433173755     3.245611731573     0.229318953550     1.007825032070
           H         -5.559032173755     3.523140731573     1.941193953550     1.007825032070
           H         -5.182270173755     1.949213731573     2.617591953550     1.007825032070
           H         -5.857251173755     2.071113731573     1.003346953550     1.007825032070
           C          4.541464826245    -2.374174268427    -0.596914046450    12.000000000000
           H          4.695363826245    -2.299032268427    -1.663766046450     1.007825032070
           H          4.881557826245    -3.332594268427    -0.236671046450     1.007825032070
           H          5.078401826245    -1.576730268427    -0.103641046450     1.007825032070

  Charge       = 0
  Multiplicity = 1
  Basis Set: 6-31G*
  Basis Set:

    Orbital Energies (a.u.)
    -----------------------

    Doubly Occupied:

       1A    -20.603583     2A    -20.545381     3A    -11.372210
       4A    -11.280819     5A    -11.236003     6A    -11.218117
       7A    -11.216722     8A    -11.214892     9A    -11.214720
      10A    -11.213232    11A    -11.208233    12A     -1.469280
      13A     -1.362690    14A     -1.096274    15A     -1.067147
      16A     -1.020157    17A     -0.977535    18A     -0.927172
      19A     -0.856496    20A     -0.800602    21A     -0.790072
      22A     -0.766782    23A     -0.697497    24A     -0.683443
      25A     -0.671796    26A     -0.655551    27A     -0.629847
      28A     -0.597432    29A     -0.593348    30A     -0.583525
      31A     -0.566025    32A     -0.550228    33A     -0.530245
      34A     -0.525278    35A     -0.515390    36A     -0.514059
      37A     -0.492773    38A     -0.477073    39A     -0.468289
      40A     -0.461390    41A     -0.460167    42A     -0.455829
      43A     -0.445038    44A     -0.432274

  @DF-RHF Final Energy:  -501.04198083154665

   => Energetics <=

    Nuclear Repulsion Energy =            602.4305908178064328
    One-Electron Energy =               -1876.0161079885720028
    Two-Electron Energy =                 772.5435363392193722
    DFT Exchange-Correlation Energy =       0.0000000000000000
    Empirical Dispersion Energy =           0.0000000000000000
    PCM Polarization Energy =               0.0000000000000000
    EFP Energy =                            0.0000000000000000
    Total Energy =                       -501.0419808315461978

  Mulliken Charges: (a.u.)
   Center  Symbol    Alpha    Beta     Spin     Total
       1     O     4.28577  4.28577  0.00000 -0.57155
       2     C     2.60533  2.60533  0.00000  0.78933
       3     C     3.20942  3.20942  0.00000 -0.41885
       4     O     4.30759  4.30759  0.00000 -0.61518
       5     C     3.15403  3.15403  0.00000 -0.30806
       6     H     0.40006  0.40006  0.00000  0.19988
       7     H     0.40067  0.40067  0.00000  0.19865
       8     C     3.15570  3.15570  0.00000 -0.31139
       9     H     0.41149  0.41149  0.00000  0.17702
      10     H     0.40974  0.40974  0.00000  0.18052
      11     C     3.15288  3.15288  0.00000 -0.30576
      12     H     0.42447  0.42447  0.00000  0.15105
      13     H     0.42079  0.42079  0.00000  0.15841
      14     C     3.15139  3.15139  0.00000 -0.30278
      15     H     0.42270  0.42270  0.00000  0.15460
      16     H     0.42127  0.42127  0.00000  0.15746
      17     C     3.15152  3.15152  0.00000 -0.30303
      18     H     0.42426  0.42426  0.00000  0.15147
      19     H     0.42398  0.42398  0.00000  0.15204
      20     C     3.23925  3.23925  0.00000 -0.47849
      21     H     0.42288  0.42288  0.00000  0.15425
      22     H     0.42268  0.42268  0.00000  0.15464
      23     H     0.41923  0.41923  0.00000  0.16155
      24     H     0.42199  0.42199  0.00000  0.15601
      25     H     0.42186  0.42186  0.00000  0.15629
      26     C     3.09243  3.09243  0.00000 -0.18485
      27     H     0.40904  0.40904  0.00000  0.18192
      28     H     0.40847  0.40847  0.00000  0.18307
      29     H     0.40911  0.40911  0.00000  0.18179

   Total alpha = 44.00000, Total beta = 44.00000, Total charge = -0.00000
