                              Psi4 1.0.54 Driver

  ==> Input File <==

--------------------------------------------------------------------------
set {
	reference rhf
	basis cc-pvtz
}

set_num_threads( 4 )
memory 2 gb

molecule MOL {
0 1

H	 2.190573	 -0.629143	 -0.208718
O	 1.355408	 -0.529451	 0.208662
C	 0.700177	 0.619554	 -0.266242
C	 -0.713111	 0.588314	 0.266177
H	 0.678680	 0.627133	 -1.351786
H	 1.199747	 1.521489	 0.077736
O	 -1.421673	 -0.521378	 -0.196983
H	 -1.244794	 1.469161	 -0.069059
H	 -0.685100	 0.604721	 1.352683
H	 -2.342359	 -0.347645	 -0.106545

	symmetry c1
}
set optking {
	frozen_dihedral = ("
		10 7 4 3
	")
}

ee,wfn = optimize('scf', return_wfn=True)
oeprop( wfn, 'DIPOLE', 'QUADRUPOLE', 'MULLIKEN_CHARGES')
f=open( 'psi4out.xyz', 'w' )
f.write( "10  " )
f.write( str(ee) + "\n" )
f.write( MOL.save_string_xyz() )
f.close()
--------------------------------------------------------------------------

    Molecular point group: c1
  Charge       = 0
  Multiplicity = 1
  Basis Set: CC-PVTZ
  Basis Set:
  @DF-RHF Final Energy:  -229.02172302178266
    Total Energy =                       -229.0217230217826341
    Molecular point group: c1
  Basis Set: CC-PVTZ
  Basis Set:
  Basis Set: CC-PVTZ
  Basis Set:
  @DF-RHF Final Energy:  -228.67997192412702
    Total Energy =                       -228.6799719241270736
  Basis Set: CC-PVTZ
  Basis Set:
  Basis Set: CC-PVTZ
  Basis Set:
  @DF-RHF Final Energy:  -228.82599569594555
    Total Energy =                       -228.8259956959456076
  Basis Set: CC-PVTZ
  Basis Set:
  Basis Set: CC-PVTZ
  Basis Set:
  @DF-RHF Final Energy:  -228.99495817891901
    Total Energy =                       -228.9949581789190347
  Basis Set: CC-PVTZ
  Basis Set:
  @DF-RHF Final Energy:  -229.02006884936844
    Total Energy =                       -229.0200688493683288
  @DF-RHF Final Energy:  -229.02323828381179
    Total Energy =                       -229.0232382838117928
  Basis Set: CC-PVTZ
  Basis Set:
  @DF-RHF Final Energy:  -229.02335079338937
    Total Energy =                       -229.0233507933894543
  Basis Set: CC-PVTZ
  Basis Set:
  Basis Set: CC-PVTZ
  Basis Set:
  @DF-RHF Final Energy:  -229.02338371145427
    Total Energy =                       -229.0233837114543292
  Basis Set: CC-PVTZ
  Basis Set:
  Basis Set: CC-PVTZ
  Basis Set:
  @DF-RHF Final Energy:  -229.02338584997787
    Total Energy =                       -229.0233858499779274
  Basis Set: CC-PVTZ
  Basis Set:
  Charge       = 0
  Multiplicity = 1
  Basis Set: CC-PVTZ
  Basis Set:

    Orbital Energies (a.u.)
    -----------------------

    Doubly Occupied:

       1A    -20.545981     2A    -20.545527     3A    -11.268666
       4A    -11.267933     5A     -1.374873     6A     -1.355181
       7A     -1.003909     8A     -0.832005     9A     -0.720862
      10A     -0.705000    11A     -0.624117    12A     -0.602076
      13A     -0.586361    14A     -0.525165    15A     -0.481360
      16A     -0.447281    17A     -0.437724

  @DF-RHF Final Energy:  -229.02338674800222

   => Energetics <=

    Nuclear Repulsion Energy =            133.4526372294230327
    One-Electron Energy =                -578.3040060634818929
    Two-Electron Energy =                 215.8279820860566929
    DFT Exchange-Correlation Energy =       0.0000000000000000
    Empirical Dispersion Energy =           0.0000000000000000
    PCM Polarization Energy =               0.0000000000000000
    EFP Energy =                            0.0000000000000000
    Total Energy =                       -229.0233867480021672
    Molecular point group: c1
  Basis Set: CC-PVTZ
  Basis Set:

  -Total Gradient:
     Atom            X                  Y                   Z
    ------   -----------------  -----------------  -----------------
       1       -0.000018189626     0.000045981782     0.000022183263
       2       -0.000041767039     0.000040825296    -0.000034181005
       3       -0.000529656437     0.000194648693    -0.000713516895
       4        0.000712567924    -0.000259864035     0.000638155730
       5       -0.000032866400     0.000009327090    -0.000014304550
       6       -0.000015044622    -0.000033630558     0.000013787259
       7        0.000647952649     0.000070458364     0.001463987688
       8        0.000015670756    -0.000032022836     0.000011099444
       9        0.000025307184     0.000005613203     0.000001269913
      10       -0.000763974390    -0.000041337001    -0.001388480846

  **** Optimization is complete! (in 10 steps) ****
    Final optimized geometry and variables:
    Molecular point group: c1

    Geometry (in Angstrom), charge = 0, multiplicity = 1:

    H            1.656789795948    -1.449285455924    -0.737540844237
    O            1.277266354705    -0.837510391508    -0.134920548024
    C            0.459722702612     0.069688784058    -0.817188417421
    C           -0.366856938689     0.843434552965     0.179494747545
    H           -0.208905738720    -0.442134491481    -1.502620184901
    H            1.061905219634     0.773944380202    -1.387646869883
    O           -1.342777663534     0.006069499015     0.733813290482
    H           -0.826949963790     1.679740477233    -0.341244979596
    H            0.285892279329     1.241395196371     0.950959779045
    H           -2.034756322510     0.519507078243     1.106139950892

  Mulliken Charges: (a.u.)
   Center  Symbol    Alpha    Beta     Spin     Total
       1     H     0.39493  0.39493  0.00000  0.21013
       2     O     4.19493  4.19493  0.00000 -0.38986
       3     C     2.96021  2.96021  0.00000  0.07958
       4     C     2.96126  2.96126  0.00000  0.07749
       5     H     0.47187  0.47187  0.00000  0.05626
       6     H     0.47802  0.47802  0.00000  0.04396
       7     O     4.19475  4.19475  0.00000 -0.38949
       8     H     0.47815  0.47815  0.00000  0.04371
       9     H     0.47063  0.47063  0.00000  0.05874
      10     H     0.39525  0.39525  0.00000  0.20949

   Total alpha = 17.00000, Total beta = 17.00000, Total charge = -0.00000

*** Psi4 exiting successfully. Buy a developer a beer!
