  ==> Input File <==

--------------------------------------------------------------------------
set {
	reference rhf
	basis 6-31G*
}

set_num_threads( 4 )
memory 2 gb

molecule MOL {
0 1

H	 -0.944757	 -0.000069	 1.678017
O	 -0.042387	 -0.000390	 1.388199
C	 -0.001487	 0.000018	 -0.026623
C	 1.432614	 0.249857	 -0.497340
C	 -0.522548	 -1.338125	 -0.554365
C	 -0.917081	 1.142591	 -0.451638
H	 1.491418	 0.297874	 -1.579992
H	 2.092612	 -0.548543	 -0.165882
H	 1.804045	 1.183549	 -0.089570
H	 -0.541417	 -1.355641	 -1.639458
H	 0.110757	 -2.157441	 -0.221833
H	 -1.526985	 -1.520265	 -0.188566
H	 -0.954998	 1.228957	 -1.532770
H	 -0.560246	 2.080781	 -0.041814
H	 -1.922418	 0.974049	 -0.082473

	symmetry c1
}
set optking {
	frozen_dihedral = ("
		4 3 2 1
	")
}

ee = optimize('scf')
oeprop('DIPOLE', 'QUADRUPOLE', 'MULLIKEN_CHARGES')
f=open( 'psi4out.xyz', 'w' )
f.write( "15  " )
f.write( str(ee) + "\n" )
f.write( MOL.save_string_xyz() )
f.close()
--------------------------------------------------------------------------

    Molecular point group: c1
  Charge       = 0
  Multiplicity = 1
  Basis Set: 6-31G*
  Basis Set:
  @DF-RHF Final Energy:  -232.15085630566199
    Total Energy =                       -232.1508563056617618
    Molecular point group: c1
  Basis Set: 6-31G*
  Basis Set:
  Basis Set: 6-31G*
  Basis Set:
  @DF-RHF Final Energy:  -232.15273347165970
    Total Energy =                       -232.1527334716597011
  Basis Set: 6-31G*
  Basis Set:
  Basis Set: 6-31G*
  Basis Set:
  @DF-RHF Final Energy:  -232.15318651022415
    Total Energy =                       -232.1531865102242591
  Basis Set: 6-31G*
  Basis Set:
  Basis Set: 6-31G*
  Basis Set:
  @DF-RHF Final Energy:  -232.15316345336029
    Total Energy =                       -232.1531634533601505
  Basis Set: 6-31G*
  Basis Set:
  Basis Set: 6-31G*
  Basis Set:
  @DF-RHF Final Energy:  -232.15320031606223
    Total Energy =                       -232.1532003160623390
  Basis Set: 6-31G*
  Basis Set:
  Charge       = 0
  Multiplicity = 1
  Basis Set: 6-31G*
  Basis Set:

    Orbital Energies (a.u.)
    -----------------------

    Doubly Occupied:

       1A    -20.549012     2A    -11.281823     3A    -11.212895
       4A    -11.209331     5A    -11.205170     6A     -1.360534
       7A     -1.063315     8A     -0.941902     9A     -0.938894
      10A     -0.775608    11A     -0.670138    12A     -0.622498
      13A     -0.621126    14A     -0.574734    15A     -0.556785
      16A     -0.531506    17A     -0.516807    18A     -0.508954
      19A     -0.502964    20A     -0.457129    21A     -0.425148

  @DF-RHF Final Energy:  -232.15320085213258

   => Energetics <=

    Nuclear Repulsion Energy =            200.3559685488445723
    One-Electron Energy =                -711.9657958600213306
    Two-Electron Energy =                 279.4566264590438891
    DFT Exchange-Correlation Energy =       0.0000000000000000
    Empirical Dispersion Energy =           0.0000000000000000
    PCM Polarization Energy =               0.0000000000000000
    EFP Energy =                            0.0000000000000000
    Total Energy =                       -232.1532008521328976
    Molecular point group: c1
  Basis Set: 6-31G*
  Basis Set:

  -Total Gradient:
     Atom            X                  Y                   Z
    ------   -----------------  -----------------  -----------------
       1        0.000025939081     0.001087906312     0.000034973740
       2       -0.000072746457    -0.001130872703     0.000028076647
       3        0.000142026778    -0.000620526769     0.000040691210
       4       -0.000119539243     0.000672859106    -0.000031012012
       5       -0.000012022135     0.000020902190    -0.000032651731
       6        0.000027235271     0.000001853009    -0.000017585217
       7        0.000012591328     0.000000613890     0.000001142970
       8       -0.000011718437    -0.000013261069    -0.000002026085
       9       -0.000004754313     0.000002808172     0.000006754899
      10       -0.000008555380    -0.000017510870    -0.000006681846
      11        0.000008154109     0.000015167493    -0.000005879779
      12       -0.000000129480    -0.000000952749     0.000005687756
      13       -0.000002479085     0.000014430982    -0.000027237467
      14       -0.000015637544    -0.000015919392     0.000005042376
      15        0.000031635507    -0.000017497600     0.000000704540

  **** Optimization is complete! (in 6 steps) ****
    Final optimized geometry and variables:
    Molecular point group: c1

    Geometry (in Angstrom), charge = 0, multiplicity = 1:

    H           -0.830172160571    -0.042120795619     1.738112804534
    O            0.050325295540    -0.044941581017     1.387713851140
    C           -0.002753828231    -0.002025694767    -0.026377694507
    C            1.433659009545     0.245278755959    -0.473980858928
    C           -0.517880557136    -1.341099585299    -0.556874158476
    C           -0.910570747741     1.145765668428    -0.472872433763
    H            1.503503278082     0.280681144341    -1.556430091611
    H            2.079973310342    -0.546747217267    -0.112380927128
    H            1.794844698117     1.185052134160    -0.071865603685
    H           -0.538768061674    -1.356888606814    -1.642176288119
    H            0.117170532942    -2.149307057340    -0.211622238786
    H           -1.527607818476    -1.532538679717    -0.202097693100
    H           -0.936618936223     1.231164701974    -1.554383459313
    H           -0.559037487356     2.085739560187    -0.061479970177
    H           -1.931204201917     0.987655278043    -0.131002551751

  Mulliken Charges: (a.u.)
   Center  Symbol    Alpha    Beta     Spin     Total
       1     H     0.28368  0.28368  0.00000  0.43264
       2     O     4.37627  4.37627  0.00000 -0.75254
       3     C     2.85301  2.85301  0.00000  0.29397
       4     C     3.23359  3.23359  0.00000 -0.46717
       5     C     3.23785  3.23785  0.00000 -0.47571
       6     C     3.24532  3.24532  0.00000 -0.49064
       7     H     0.42412  0.42412  0.00000  0.15175
       8     H     0.41302  0.41302  0.00000  0.17395
       9     H     0.41393  0.41393  0.00000  0.17214
      10     H     0.42243  0.42243  0.00000  0.15515
      11     H     0.41240  0.41240  0.00000  0.17519
      12     H     0.42631  0.42631  0.00000  0.14738
      13     H     0.41939  0.41939  0.00000  0.16123
      14     H     0.41222  0.41222  0.00000  0.17556
      15     H     0.42646  0.42646  0.00000  0.14709

   Total alpha = 21.00000, Total beta = 21.00000, Total charge =  0.00000
