  ==> Input File <==

--------------------------------------------------------------------------
set {
	reference rhf
	basis 6-31G*
}

set_num_threads( 4 )
memory 2 gb

molecule MOL {
0 1

H	 2.372702	 -1.886292	 0.601856
N	 1.386613	 -1.716537	 0.615048
C	 0.848955	 -1.743259	 -0.732884
C	 1.097149	 -0.457734	 1.277120
H	 1.071970	 -2.705333	 -1.181712
H	 1.278586	 -0.966277	 -1.369560
C	 -0.658279	 -1.545800	 -0.672172
H	 1.499902	 -0.488859	 2.283892
H	 1.541813	 0.397108	 0.762183
C	 -0.410238	 -0.261071	 1.336586
H	 -1.110294	 -2.402878	 -0.164041
H	 -1.060491	 -1.508652	 -1.679343
N	 -0.975995	 -0.298722	 0.000000
H	 -0.633323	 0.703864	 1.780073
H	 -0.845635	 -1.032077	 1.979297
C	 -2.393863	 -0.024976	 0.000000
H	 -2.854032	 -0.467193	 -0.876721
H	 -2.854032	 -0.467193	 0.876721
H	 -2.623281	 1.044943	 0.000000

	symmetry c1
}
set optking {
	frozen_dihedral = ("
		7 13 16 19
	")
}

ee = optimize('scf')
oeprop('DIPOLE', 'QUADRUPOLE', 'MULLIKEN_CHARGES')
f=open( 'psi4out.xyz', 'w' )
f.write( "19  " )
f.write( str(ee) + "\n" )
f.write( MOL.save_string_xyz() )
f.close()
--------------------------------------------------------------------------

    Molecular point group: c1
  Charge       = 0
  Multiplicity = 1
  Basis Set: 6-31G*
  Basis Set:
  @DF-RHF Final Energy:  -305.19620785984205
    Total Energy =                       -305.1962078598420476
    Molecular point group: c1
  Basis Set: 6-31G*
  Basis Set:
  Basis Set: 6-31G*
  Basis Set:
  @DF-RHF Final Energy:  -305.19726161694200
    Total Energy =                       -305.1972616169420007
  Basis Set: 6-31G*
  Basis Set:
  Basis Set: 6-31G*
  Basis Set:
  @DF-RHF Final Energy:  -305.19737719804323
    Total Energy =                       -305.1973771980431138
  Basis Set: 6-31G*
  Basis Set:
  Basis Set: 6-31G*
  Basis Set:
  @DF-RHF Final Energy:  -305.19738096978233
    Total Energy =                       -305.1973809697823867
  Basis Set: 6-31G*
  Basis Set:
  Charge       = 0
  Multiplicity = 1
  Basis Set: 6-31G*
  Basis Set:

    Orbital Energies (a.u.)
    -----------------------

    Doubly Occupied:

       1A    -15.538523     2A    -15.536394     3A    -11.238211
       4A    -11.238190     5A    -11.237244     6A    -11.236937
       7A    -11.234772     8A     -1.245822     9A     -1.184327
      10A     -1.023026    11A     -0.964480    12A     -0.860973
      13A     -0.857220    14A     -0.755814    15A     -0.690729
      16A     -0.633137    17A     -0.625381    18A     -0.606649
      19A     -0.602731    20A     -0.580454    21A     -0.543464
      22A     -0.532360    23A     -0.510380    24A     -0.489374
      25A     -0.467035    26A     -0.457039    27A     -0.363230
      28A     -0.339861

  @DF-RHF Final Energy:  -305.19738127562596

   => Energetics <=

    Nuclear Repulsion Energy =            339.5520010907396227
    One-Electron Energy =               -1086.3112523731522288
    Two-Electron Energy =                 441.5618700067868190
    DFT Exchange-Correlation Energy =       0.0000000000000000
    Empirical Dispersion Energy =           0.0000000000000000
    PCM Polarization Energy =               0.0000000000000000
    EFP Energy =                            0.0000000000000000
    Total Energy =                       -305.1973812756257871
    Molecular point group: c1
  Basis Set: 6-31G*
  Basis Set:

  -Total Gradient:
     Atom            X                  Y                   Z
    ------   -----------------  -----------------  -----------------
       1        0.000003196453    -0.000009366814    -0.000004877505
       2       -0.000008288413    -0.000000081620    -0.000015654657
       3        0.000005902503     0.000014038785    -0.000013391424
       4       -0.000009575533    -0.000003173885     0.000040370508
       5       -0.000000357721     0.000000967339    -0.000000884478
       6        0.000006098894     0.000002627980    -0.000001020283
       7        0.000391983854     0.001782600439    -0.002967118639
       8        0.000012877296    -0.000000237807     0.000003303581
       9       -0.000013168249    -0.000002591341     0.000002506132
      10        0.000003859590     0.000024064317    -0.000026947418
      11       -0.000008076197     0.000004007806     0.000000935270
      12       -0.000000064138     0.000002532283     0.000006156255
      13       -0.000551201072    -0.002485593802     0.003026652072
      14       -0.000006210584    -0.000002078464    -0.000002070557
      15        0.000007639977     0.000000654281     0.000000638016
      16        0.000110077778     0.000576010542     0.004552568301
      17       -0.000013933212    -0.000005660505    -0.000011444942
      18        0.000005371992     0.000006968220    -0.000024225515
      19        0.000063866783     0.000094312245    -0.004565494716

  **** Optimization is complete! (in 5 steps) ****
    Final optimized geometry and variables:
    Molecular point group: c1

    Geometry (in Angstrom), charge = 0, multiplicity = 1:

    H            2.550669505594    -0.998257628377     0.328795108202
    N            1.563321666553    -0.836573302757     0.347028826143
    C            1.018915717109    -0.873515424692    -0.998075025848
    C            1.267645577550     0.422852778899     1.005331675538
    H            1.258656357489    -1.830753670057    -1.448755576883
    H            1.430643557286    -0.087576207286    -1.635777732807
    C           -0.491845870274    -0.704765519993    -0.931826353698
    H            1.681774989409     0.402150506276     2.007810057272
    H            1.697803158662     1.278967058497     0.480226234542
    C           -0.241128168014     0.602382017063     1.078899765266
    H           -0.924605630157    -1.579627066119    -0.436777597483
    H           -0.893986033742    -0.660502446936    -1.938006181099
    N           -0.823745208601     0.529089514723    -0.245506115744
    H           -0.472077850896     1.573705381436     1.505133277593
    H           -0.659675822809    -0.159333311782     1.743746603795
    C           -2.234106174060     0.848358510143    -0.253679226889
    H           -2.681451133748     0.497263065304    -1.176674636351
    H           -2.784462905287     0.395629784756     0.573647722765
    H           -2.376400379862     1.924388291456    -0.231025882976

  Mulliken Charges: (a.u.)
   Center  Symbol    Alpha    Beta     Spin     Total
       1     H     0.32946  0.32946  0.00000  0.34108
       2     N     3.85435  3.85435  0.00000 -0.70870
       3     C     3.06405  3.06405  0.00000 -0.12810
       4     C     3.06361  3.06361  0.00000 -0.12723
       5     H     0.41782  0.41782  0.00000  0.16436
       6     H     0.42804  0.42804  0.00000  0.14392
       7     C     3.05157  3.05157  0.00000 -0.10315
       8     H     0.41777  0.41777  0.00000  0.16445
       9     H     0.42806  0.42806  0.00000  0.14388
      10     C     3.05212  3.05212  0.00000 -0.10424
      11     H     0.42890  0.42890  0.00000  0.14220
      12     H     0.41891  0.41891  0.00000  0.16217
      13     N     3.79290  3.79290  0.00000 -0.58581
      14     H     0.41883  0.41883  0.00000  0.16234
      15     H     0.42830  0.42830  0.00000  0.14339
      16     C     3.13821  3.13821  0.00000 -0.27642
      17     H     0.41965  0.41965  0.00000  0.16069
      18     H     0.43089  0.43089  0.00000  0.13821
      19     H     0.41653  0.41653  0.00000  0.16693

   Total alpha = 28.00000, Total beta = 28.00000, Total charge =  0.00000
