                              Psi4 1.0.54 Driver

  ==> Input File <==

--------------------------------------------------------------------------
set {
	reference rhf
	basis cc-pvtz
}

set_num_threads( 4 )
memory 2 gb

molecule MOL {
0 1

H	 -1.088256	 -1.364742	 0.152233
O	 -1.432053	 -0.565244	 -0.200812
C	 -0.727158	 0.534527	 0.310686
C	 0.680222	 0.664433	 -0.252229
H	 -1.306802	 1.408001	 0.044211
H	 -0.690821	 0.490158	 1.397609
C	 0.753975	 0.530133	 -1.770310
H	 1.087399	 1.623282	 0.051162
H	 1.297358	 -0.102041	 0.208542
H	 0.197075	 1.316912	 -2.267268
H	 1.778324	 0.596497	 -2.116513
H	 0.356016	 -0.424557	 -2.100689

	symmetry c1
}
set optking {
	frozen_dihedral = ("
		8 4 3 2
	")
}

ee,wfn = optimize('scf', return_wfn=True)
oeprop( wfn, 'DIPOLE', 'QUADRUPOLE', 'MULLIKEN_CHARGES')
f=open( 'psi4out.xyz', 'w' )
f.write( "12  " )
f.write( str(ee) + "\n" )
f.write( MOL.save_string_xyz() )
f.close()
--------------------------------------------------------------------------

    Molecular point group: c1
  Charge       = 0
  Multiplicity = 1
  Basis Set: CC-PVTZ
  Basis Set:
  @DF-RHF Final Energy:  -193.18979338282455
    Total Energy =                       -193.1897933828245755
    Molecular point group: c1
  Basis Set: CC-PVTZ
  Basis Set:
  Basis Set: CC-PVTZ
  Basis Set:
  @DF-RHF Final Energy:  -193.19010396588541
    Total Energy =                       -193.1901039658853847
  Basis Set: CC-PVTZ
  Basis Set:
  Basis Set: CC-PVTZ
  Basis Set:
  @DF-RHF Final Energy:  -193.19016140381385
    Total Energy =                       -193.1901614038139314
  Basis Set: CC-PVTZ
  Basis Set:
  Basis Set: CC-PVTZ
  Basis Set:
  @DF-RHF Final Energy:  -193.19016405271577
    Total Energy =                       -193.1901640527157724
  Basis Set: CC-PVTZ
  Basis Set:
  Charge       = 0
  Multiplicity = 1
  Basis Set: CC-PVTZ
  Basis Set:

    Orbital Energies (a.u.)
    -----------------------

    Doubly Occupied:

       1A    -20.547197     2A    -11.266200     3A    -11.217715
       4A    -11.205531     5A     -1.364977     6A     -1.048983
       7A     -0.923008     8A     -0.812799     9A     -0.683161
      10A     -0.640453    11A     -0.626100    12A     -0.568698
      13A     -0.529397    14A     -0.518166    15A     -0.485561
      16A     -0.467260    17A     -0.433922

  @DF-RHF Final Energy:  -193.19016427297370

   => Energetics <=

    Nuclear Repulsion Energy =            133.4418942027549804
    One-Electron Energy =                -526.5858618601043872
    Two-Electron Energy =                 199.9538033843758740
    DFT Exchange-Correlation Energy =       0.0000000000000000
    Empirical Dispersion Energy =           0.0000000000000000
    PCM Polarization Energy =               0.0000000000000000
    EFP Energy =                            0.0000000000000000
    Total Energy =                       -193.1901642729735613
    Molecular point group: c1
  Basis Set: CC-PVTZ
  Basis Set:

  -Total Gradient:
     Atom            X                  Y                   Z
    ------   -----------------  -----------------  -----------------
       1        0.000000065083    -0.000005517147    -0.000001637118
       2       -0.000952096120     0.001558182928    -0.002048470182
       3        0.001029561338    -0.001836641828     0.002186913981
       4        0.001167504834    -0.001182735592     0.002697903298
       5        0.000003850110     0.000009678481     0.000003617836
       6        0.000002320334     0.000001213206    -0.000006356772
       7        0.000015149480     0.000015294140    -0.000021059842
       8       -0.001245578208     0.001441411494    -0.002829146142
       9        0.000005183372     0.000003551166    -0.000000971393
      10       -0.000002555011     0.000007201310    -0.000002798875
      11       -0.000018032726    -0.000000534299     0.000010053217
      12       -0.000005372490    -0.000011103861     0.000011951992

  **** Optimization is complete! (in 5 steps) ****
    Final optimized geometry and variables:
    Molecular point group: c1

    Geometry (in Angstrom), charge = 0, multiplicity = 1:

    H           -0.847750713105    -1.630058624782     0.573624517827
    O           -1.229395132215    -0.823175257271     0.278150182367
    C           -0.506541753816     0.266571961718     0.785648632952
    C            0.904070638436     0.384854826074     0.222304947016
    H           -1.079130794636     1.143566392091     0.510798330369
    H           -0.471270179075     0.231967390153     1.871373567309
    C            0.958674685075     0.311543535319    -1.301188131883
    H            1.303243209234     1.344891169303     0.537449979633
    H            1.541440282136    -0.383936069839     0.652161597888
    H            0.348190904615     1.089133972278    -1.748116139616
    H            1.974860032143     0.442156260066    -1.654805216891
    H            0.593726592428    -0.639254457584    -1.665438305505

  Mulliken Charges: (a.u.)
   Center  Symbol    Alpha    Beta     Spin     Total
       1     H     0.39468  0.39468  0.00000  0.21064
       2     O     4.20266  4.20266  0.00000 -0.40532
       3     C     2.97680  2.97680  0.00000  0.04639
       4     C     3.09698  3.09698  0.00000 -0.19397
       5     H     0.45817  0.45817  0.00000  0.08366
       6     H     0.46166  0.46166  0.00000  0.07668
       7     C     3.14033  3.14033  0.00000 -0.28067
       8     H     0.45445  0.45445  0.00000  0.09110
       9     H     0.45653  0.45653  0.00000  0.08693
      10     H     0.45578  0.45578  0.00000  0.08844
      11     H     0.45083  0.45083  0.00000  0.09833
      12     H     0.45111  0.45111  0.00000  0.09777

   Total alpha = 17.00000, Total beta = 17.00000, Total charge = -0.00000

*** Psi4 exiting successfully. Buy a developer a beer!
