  ==> Input File <==

--------------------------------------------------------------------------
set {
	reference rhf
	basis 6-31G*
}

set_num_threads( 4 )
memory 2 gb

molecule MOL {
0 1

H	 4.428153	 -2.513590	 -0.094687
C	 3.933147	 -1.958356	 -0.885386
C	 2.495386	 -1.612099	 -0.500518
H	 4.513504	 -1.059563	 -1.071663
H	 3.964668	 -2.565742	 -1.785879
C	 1.765447	 -0.833970	 -1.597568
H	 2.499964	 -1.028974	 0.414657
H	 1.949612	 -2.529713	 -0.286491
C	 0.317690	 -0.488750	 -1.248153
H	 2.303801	 0.082152	 -1.813298
H	 1.765119	 -1.423920	 -2.511351
C	 0.169600	 0.576866	 -0.172154
H	 -0.193244	 -0.109773	 -2.131949
H	 -0.232688	 -1.378120	 -0.949353
C	 -1.181045	 0.701995	 0.511084
O	 1.072000	 1.303878	 0.116867
C	 -2.285934	 -0.139295	 -0.145128
H	 -1.449051	 1.751551	 0.493206
H	 -1.071135	 0.403303	 1.551943
C	 -3.651768	 0.085446	 0.506485
H	 -2.346596	 0.110469	 -1.202272
H	 -2.034737	 -1.195320	 -0.088721
C	 -4.759797	 -0.746382	 -0.137905
H	 -3.908762	 1.140117	 0.445781
H	 -3.588286	 -0.154158	 1.565709
H	 -4.868882	 -0.505166	 -1.191300
H	 -4.548009	 -1.809175	 -0.062213
H	 -5.715422	 -0.564821	 0.343442

	symmetry c1
}
set optking {
	frozen_dihedral = ("
		16 12 15 17
	")
}

ee = optimize('scf')
oeprop('DIPOLE', 'QUADRUPOLE', 'MULLIKEN_CHARGES')
f=open( 'psi4out.xyz', 'w' )
f.write( "28  " )
f.write( str(ee) + "\n" )
f.write( MOL.save_string_xyz() )
f.close()
--------------------------------------------------------------------------

    Molecular point group: c1
  Charge       = 0
  Multiplicity = 1
  Basis Set: 6-31G*
  Basis Set:
  @DF-RHF Final Energy:  -426.16373032747310
    Total Energy =                       -426.1637303274725355
    Molecular point group: c1
  Basis Set: 6-31G*
  Basis Set:
  Basis Set: 6-31G*
  Basis Set:
  @DF-RHF Final Energy:  -426.16511771112403
    Total Energy =                       -426.1651177111243669
  Basis Set: 6-31G*
  Basis Set:
  Basis Set: 6-31G*
  Basis Set:
  @DF-RHF Final Energy:  -426.16661287630416
    Total Energy =                       -426.1666128763047254
  Basis Set: 6-31G*
  Basis Set:
  Basis Set: 6-31G*
  Basis Set:
  @DF-RHF Final Energy:  -426.16661518447279
    Total Energy =                       -426.1666151844729029
  Basis Set: 6-31G*
  Basis Set:
  @DF-RHF Final Energy:  -426.16666046778255
    Total Energy =                       -426.1666604677828900
  @DF-RHF Final Energy:  -426.16688958193095
    Total Energy =                       -426.1668895819309455
  @DF-RHF Final Energy:  -426.16681619484393
    Total Energy =                       -426.1668161948438183
  Basis Set: 6-31G*
  Basis Set:
  @DF-RHF Final Energy:  -426.16685578584759
    Total Energy =                       -426.1668557858477016
  Basis Set: 6-31G*
  Basis Set:
  Basis Set: 6-31G*
  Basis Set:
  @DF-RHF Final Energy:  -426.16690070629443
    Total Energy =                       -426.1669007062939727
  Basis Set: 6-31G*
  Basis Set:
  Basis Set: 6-31G*
  Basis Set:
  @DF-RHF Final Energy:  -426.16690778750376
    Total Energy =                       -426.1669077875036464
  Basis Set: 6-31G*
  Basis Set:
  Charge       = 0
  Multiplicity = 1
  Basis Set: 6-31G*
  Basis Set:

    Orbital Energies (a.u.)
    -----------------------

    Doubly Occupied:

       1A    -20.545270     2A    -11.324201     3A    -11.230540
       4A    -11.230507     5A    -11.229915     6A    -11.226262
       7A    -11.216788     8A    -11.215707     9A    -11.210206
      10A    -11.204460    11A     -1.392561    12A     -1.094996
      13A     -1.076454    14A     -1.021190    15A     -0.990631
      16A     -0.906120    17A     -0.875865    18A     -0.809766
      19A     -0.799532    20A     -0.720725    21A     -0.663077
      22A     -0.661362    23A     -0.628349    24A     -0.617175
      25A     -0.607704    26A     -0.585165    27A     -0.583339
      28A     -0.571437    29A     -0.540492    30A     -0.532227
      31A     -0.520490    32A     -0.514294    33A     -0.489922
      34A     -0.487417    35A     -0.481352    36A     -0.474583
      37A     -0.468012    38A     -0.464553    39A     -0.453837
      40A     -0.391815

  @DF-RHF Final Energy:  -426.16690828460094

   => Energetics <=

    Nuclear Repulsion Energy =            531.5235539619504834
    One-Electron Energy =               -1631.2643238439820834
    Two-Electron Energy =                 673.5738615974310051
    DFT Exchange-Correlation Energy =       0.0000000000000000
    Empirical Dispersion Energy =           0.0000000000000000
    PCM Polarization Energy =               0.0000000000000000
    EFP Energy =                            0.0000000000000000
    Total Energy =                       -426.1669082846005949
    Molecular point group: c1
  Basis Set: 6-31G*
  Basis Set:

  -Total Gradient:
     Atom            X                  Y                   Z
    ------   -----------------  -----------------  -----------------
       1        0.000002384787    -0.000001910722    -0.000000242957
       2        0.000002199400    -0.000002145859     0.000008621563
       3       -0.000005329079    -0.000003121324    -0.000020422828
       4       -0.000003245824     0.000000397326     0.000001597109
       5       -0.000004814042     0.000001065651     0.000001523601
       6        0.000009266786     0.000004569241    -0.000021048686
       7        0.000005175608     0.000004065689     0.000006073785
       8        0.000002648064    -0.000001723330     0.000003246624
       9        0.000004748479    -0.000012220179     0.000020992071
      10       -0.000007945822    -0.000013037262     0.000001695167
      11        0.000016005088    -0.000004076378    -0.000001720506
      12       -0.000281159741     0.000694479317    -0.000859928988
      13       -0.000015622195     0.000002439145    -0.000008969281
      14        0.000000037463     0.000008884370    -0.000013745829
      15       -0.000108037544     0.000760554139    -0.000510084933
      16        0.000235577004    -0.000740963018     0.000828923186
      17        0.000146618715    -0.000701634960     0.000556725689
      18       -0.000004420478     0.000012383045     0.000009950583
      19       -0.000006414854    -0.000000459301    -0.000009129246
      20       -0.000000172479    -0.000011194475     0.000011995320
      21        0.000004051693     0.000000506025     0.000011372455
      22        0.000006311569    -0.000013580191    -0.000004760263
      23        0.000001365427     0.000011141621    -0.000009958132
      24       -0.000001302628    -0.000001293621    -0.000000885535
      25        0.000002275971     0.000002261356     0.000003109085
      26       -0.000004450509    -0.000003923959    -0.000007023017
      27        0.000002841873     0.000004621150     0.000004285665
      28        0.000001407262     0.000003916503    -0.000002191701

  **** Optimization is complete! (in 11 steps) ****
    Final optimized geometry and variables:
    Molecular point group: c1

    Geometry (in Angstrom), charge = 0, multiplicity = 1:

    H            4.927584916077    -1.947520645749     0.145457191844
    C            4.348140055687    -1.436186156311    -0.617018666790
    C            2.897516855534    -1.248447547355    -0.174783168064
    H            4.824183510420    -0.478758476279    -0.807135299414
    H            4.409915495946    -2.023932217328    -1.529032369694
    C            2.049389980167    -0.540010291625    -1.233583006918
    H            2.873215052914    -0.679295660118     0.747776728419
    H            2.459825073530    -2.221718489549     0.042306720727
    C            0.587470793475    -0.349400657846    -0.829254189158
    H            2.484490626242     0.427168165830    -1.460405485079
    H            2.074405991380    -1.121091239629    -2.152825360560
    C            0.360274952303     0.728355288700     0.216508081737
    H           -0.011546553574    -0.081259732757    -1.697883752158
    H            0.165723806885    -1.283708320110    -0.465702642620
    C           -1.033962681017     0.926977312717     0.805798894628
    O            1.251043953166     1.424139285026     0.602908597239
    C           -2.215946120657     0.205389482011     0.155053409662
    H           -1.204882071196     1.998883332151     0.819733342841
    H           -0.954641018835     0.628869862969     1.849433095017
    C           -3.539475996689     0.531465215309     0.851371978415
    H           -2.291799912123     0.482881294852    -0.893905545621
    H           -2.061408148389    -0.869992122363     0.179024925047
    C           -4.734416882308    -0.179519805550     0.217894616342
    H           -3.703622981901     1.606271349525     0.827005289253
    H           -3.470423065224     0.257046387304     1.901666562139
    H           -4.850088301788     0.100694041498    -0.825221844958
    H           -4.616293704746    -1.258590927912     0.258975886629
    H           -5.656858889317     0.071614089301     0.731630918745

  Mulliken Charges: (a.u.)
   Center  Symbol    Alpha    Beta     Spin     Total
       1     H     0.41954  0.41954  0.00000  0.16091
       2     C     3.24029  3.24029  0.00000 -0.48059
       3     C     3.15607  3.15607  0.00000 -0.31215
       4     H     0.41855  0.41855  0.00000  0.16290
       5     H     0.42414  0.42414  0.00000  0.15172
       6     C     3.14784  3.14784  0.00000 -0.29568
       7     H     0.40730  0.40730  0.00000  0.18539
       8     H     0.42857  0.42857  0.00000  0.14286
       9     C     3.21486  3.21486  0.00000 -0.42971
      10     H     0.40830  0.40830  0.00000  0.18339
      11     H     0.42230  0.42230  0.00000  0.15540
      12     C     2.73475  2.73475  0.00000  0.53050
      13     H     0.40490  0.40490  0.00000  0.19020
      14     H     0.40903  0.40903  0.00000  0.18195
      15     C     3.20191  3.20191  0.00000 -0.40382
      16     O     4.26892  4.26892  0.00000 -0.53785
      17     C     3.16036  3.16036  0.00000 -0.32072
      18     H     0.39970  0.39970  0.00000  0.20060
      19     H     0.40212  0.40212  0.00000  0.19577
      20     C     3.15237  3.15237  0.00000 -0.30473
      21     H     0.41979  0.41979  0.00000  0.16042
      22     H     0.41961  0.41961  0.00000  0.16077
      23     C     3.23983  3.23983  0.00000 -0.47967
      24     H     0.41991  0.41991  0.00000  0.16019
      25     H     0.42065  0.42065  0.00000  0.15871
      26     H     0.42069  0.42069  0.00000  0.15862
      27     H     0.42095  0.42095  0.00000  0.15809
      28     H     0.41674  0.41674  0.00000  0.16652

   Total alpha = 40.00000, Total beta = 40.00000, Total charge =  0.00000
