  ==> Input File <==

--------------------------------------------------------------------------
set {
	reference rhf
	basis 6-31G*
}

set_num_threads( 4 )
memory 2 gb

molecule MOL {
0 1

H	 -3.420663	 1.227371	 -1.044276
O	 -3.452007	 0.283848	 -0.965577
C	 -3.181085	 -0.079926	 0.364119
C	 -1.765924	 0.277073	 0.805136
H	 -3.327791	 -1.152017	 0.410903
H	 -3.905698	 0.375695	 1.036898
C	 -1.713137	 1.036939	 2.131158
H	 -1.177017	 -0.637395	 0.881936
H	 -1.302072	 0.870791	 0.019285
C	 -0.287521	 1.370407	 2.575676
H	 -2.208469	 0.449882	 2.898439
H	 -2.285648	 1.957981	 2.034689
C	 -0.243064	 2.136151	 3.900721
H	 0.281381	 0.447608	 2.660597
H	 0.203496	 1.961824	 1.803839
C	 1.158678	 2.570815	 4.343827
H	 -0.693533	 1.527379	 4.683134
H	 -0.866799	 3.023119	 3.810946
C	 2.102438	 1.417511	 4.689675
H	 1.060315	 3.213317	 5.215496
H	 1.607979	 3.183967	 3.565126
H	 1.673398	 0.779467	 5.457765
H	 3.049327	 1.793553	 5.064948
H	 2.318906	 0.796602	 3.826670

	symmetry c1
}
set optking {
	frozen_dihedral = ("
		7 4 3 2
	")
}

ee = optimize('scf')
oeprop('DIPOLE', 'QUADRUPOLE', 'MULLIKEN_CHARGES')
f=open( 'psi4out.xyz', 'w' )
f.write( "24  " )
f.write( str(ee) + "\n" )
f.write( MOL.save_string_xyz() )
f.close()
--------------------------------------------------------------------------

    Molecular point group: c1
  Charge       = 0
  Multiplicity = 1
  Basis Set: 6-31G*
  Basis Set:
  @DF-RHF Final Energy:  -349.24112652966954
    Total Energy =                       -349.2411265296693728
    Molecular point group: c1
  Basis Set: 6-31G*
  Basis Set:
  Basis Set: 6-31G*
  Basis Set:
  @DF-RHF Final Energy:  -349.24139515490310
    Total Energy =                       -349.2413951549033300
  Basis Set: 6-31G*
  Basis Set:
  Basis Set: 6-31G*
  Basis Set:
  @DF-RHF Final Energy:  -349.24145903324927
    Total Energy =                       -349.2414590332493844
  Basis Set: 6-31G*
  Basis Set:
  Charge       = 0
  Multiplicity = 1
  Basis Set: 6-31G*
  Basis Set:

    Orbital Energies (a.u.)
    -----------------------

    Doubly Occupied:

       1A    -20.551199     2A    -11.267025     3A    -11.220303
       4A    -11.217014     5A    -11.216587     6A    -11.216242
       7A    -11.215672     8A    -11.209480     9A     -1.357960
      10A     -1.092782    11A     -1.050367    12A     -0.985471
      13A     -0.915320    14A     -0.852575    15A     -0.804699
      16A     -0.780120    17A     -0.686899    18A     -0.656644
      19A     -0.622897    20A     -0.613957    21A     -0.597855
      22A     -0.585539    23A     -0.557257    24A     -0.540564
      25A     -0.532268    26A     -0.508425    27A     -0.491902
      28A     -0.484925    29A     -0.474205    30A     -0.462333
      31A     -0.456876    32A     -0.443553    33A     -0.421499

  @DF-RHF Final Energy:  -349.24145829910782

   => Energetics <=

    Nuclear Repulsion Energy =            380.1550290920254724
    One-Electron Energy =               -1226.6121486358047150
    Two-Electron Energy =                 497.2156612446712529
    DFT Exchange-Correlation Energy =       0.0000000000000000
    Empirical Dispersion Energy =           0.0000000000000000
    PCM Polarization Energy =               0.0000000000000000
    EFP Energy =                            0.0000000000000000
    Total Energy =                       -349.2414582991080465
    Molecular point group: c1
  Basis Set: 6-31G*
  Basis Set:

  -Total Gradient:
     Atom            X                  Y                   Z
    ------   -----------------  -----------------  -----------------
       1        0.000010016167    -0.000029656421     0.000063102234
       2       -0.000547667595     0.001479619180     0.000468051016
       3        0.000685713537    -0.001401762152    -0.001021668426
       4       -0.000037229766    -0.001421142768     0.001270523340
       5        0.000014127112     0.000031186550    -0.000048003540
       6        0.000001227070     0.000008880652     0.000020370924
       7       -0.000092306240     0.001336586407    -0.000783730668
       8       -0.000038433852     0.000017584534     0.000014305355
       9        0.000012368953    -0.000008350719    -0.000003128678
      10        0.000003294120     0.000022914467    -0.000029355671
      11        0.000004152567    -0.000049054853     0.000032013344
      12       -0.000035908500    -0.000036050244     0.000021448163
      13        0.000005691422     0.000039927356    -0.000028496041
      14       -0.000014206225     0.000007244358     0.000018964107
      15        0.000029022502    -0.000010702611    -0.000003010092
      16       -0.000003843487     0.000012818638     0.000015060100
      17        0.000004078360    -0.000001725728    -0.000011254445
      18       -0.000004956557     0.000003605494     0.000004516864
      19       -0.000001392036    -0.000000369024    -0.000005903272
      20        0.000010106527     0.000000366453     0.000005402488
      21       -0.000002839122    -0.000000897383     0.000005601219
      22        0.000000314748     0.000002641019    -0.000000581623
      23       -0.000000367349    -0.000000602066    -0.000002153117
      24       -0.000000962345    -0.000003061141    -0.000002073583

  **** Optimization is complete! (in 4 steps) ****
    Final optimized geometry and variables:
    Molecular point group: c1

    Geometry (in Angstrom), charge = 0, multiplicity = 1:

    H           -2.443797348390     0.119116829097    -3.238383387232
    O           -2.495183795705    -0.822935422775    -3.157682700132
    C           -2.234582346166    -1.187731956959    -1.826138063560
    C           -0.803572322339    -0.848222655511    -1.366325995899
    H           -2.412305262416    -2.253270390808    -1.778266519378
    H           -2.960060541717    -0.715331472234    -1.165611002612
    C           -0.749823487258    -0.088537612172    -0.038550549144
    H           -0.209714994252    -1.755151052241    -1.293508149781
    H           -0.334004717760    -0.247797499139    -2.141738962656
    C            0.673798030163     0.252016580509     0.405066158459
    H           -1.235832424714    -0.678392426888     0.737483242450
    H           -1.330129773323     0.828791775630    -0.127779029635
    C            0.717768072106     1.021545629465     1.727952575589
    H            1.245787539925    -0.668300059895     0.490098466554
    H            1.159475216948     0.842996410785    -0.370219721986
    C            2.119007867669     1.462830726929     2.166097218145
    H            0.272352437800     0.412926189863     2.513437441204
    H            0.090263781871     1.906003451552     1.637767864470
    C            3.068322815537     0.313907885078     2.511084955238
    H            2.020316665773     2.106557693274     3.036720274442
    H            2.563186613216     2.076320154307     1.384813585210
    H            2.644422890285    -0.324351689406     3.281805911510
    H            4.014663734613     0.694731145671     2.882667214632
    H            3.284763736140    -0.307711073031     1.648670610596

  Mulliken Charges: (a.u.)
   Center  Symbol    Alpha    Beta     Spin     Total
       1     H     0.28395  0.28395  0.00000  0.43209
       2     O     4.37024  4.37024  0.00000 -0.74047
       3     C     2.99421  2.99421  0.00000  0.01157
       4     C     3.17364  3.17364  0.00000 -0.34729
       5     H     0.41407  0.41407  0.00000  0.17186
       6     H     0.42846  0.42846  0.00000  0.14308
       7     C     3.15831  3.15831  0.00000 -0.31662
       8     H     0.41622  0.41622  0.00000  0.16756
       9     H     0.41757  0.41757  0.00000  0.16487
      10     C     3.15379  3.15379  0.00000 -0.30758
      11     H     0.42202  0.42202  0.00000  0.15596
      12     H     0.42537  0.42537  0.00000  0.14926
      13     C     3.15247  3.15247  0.00000 -0.30493
      14     H     0.42035  0.42035  0.00000  0.15930
      15     H     0.42382  0.42382  0.00000  0.15236
      16     C     3.15239  3.15239  0.00000 -0.30479
      17     H     0.42399  0.42399  0.00000  0.15203
      18     H     0.42270  0.42270  0.00000  0.15460
      19     C     3.24134  3.24134  0.00000 -0.48267
      20     H     0.42078  0.42078  0.00000  0.15844
      21     H     0.42329  0.42329  0.00000  0.15342
      22     H     0.42221  0.42221  0.00000  0.15559
      23     H     0.41895  0.41895  0.00000  0.16210
      24     H     0.41987  0.41987  0.00000  0.16026

   Total alpha = 33.00000, Total beta = 33.00000, Total charge =  0.00000
