  ==> Input File <==

--------------------------------------------------------------------------
set {
	reference rhf
	basis 6-31G*
}

set_num_threads( 1 )
memory 2 gb

molecule MOL {
0 1

O	 -2.042549	 -1.228399	 -0.269030
C	 -1.653912	 -0.146171	 0.050137
C	 -0.332303	 0.024011	 0.778412
C	 -2.438579	 1.106236	 -0.272369
C	 0.845713	 -0.001731	 -0.208243
H	 -0.323783	 0.953829	 1.340327
H	 -0.235459	 -0.796807	 1.480410
C	 1.668490	 -1.287163	 -0.109584
H	 1.494604	 0.853779	 -0.029005
H	 0.455923	 0.109084	 -1.215678
C	 2.835303	 -1.319351	 -1.095848
H	 2.048062	 -1.396667	 0.904003
H	 1.019919	 -2.141583	 -0.288166
H	 3.520812	 -0.495137	 -0.920342
H	 2.483890	 -1.244409	 -2.120707
H	 3.398610	 -2.242696	 -1.005593
H	 -3.277823	 0.863061	 -0.908988
H	 -1.806773	 1.843019	 -0.759671
H	 -2.802853	 1.554979	 0.648059

	symmetry c1
}
set optking {
	frozen_dihedral = ("
		11 8 5 9,
		5 3 2 4
	")
}

ee = energy('scf')
oeprop('DIPOLE', 'QUADRUPOLE', 'MULLIKEN_CHARGES')
f=open( 'psi4out.xyz', 'w' )
f.write( "19  " )
f.write( str(ee) + "\n" )
f.write( MOL.save_string_xyz() )
f.close()
--------------------------------------------------------------------------

    Molecular point group: c1

    Geometry (in Angstrom), charge = 0, multiplicity = 1:

       Center              X                  Y                   Z               Mass
    ------------   -----------------  -----------------  -----------------  -----------------
           O         -1.887167319394    -0.815820879721    -0.094276181673    15.994914619560
           C         -1.498530319394     0.266407120279     0.224890818327    12.000000000000
           C         -0.176921319394     0.436589120279     0.953165818327    12.000000000000
           C         -2.283197319394     1.518814120279    -0.097615181673    12.000000000000
           C          1.001094680606     0.410847120279    -0.033489181673    12.000000000000
           H         -0.168401319394     1.366407120279     1.515080818327     1.007825032070
           H         -0.080077319394    -0.384228879721     1.655163818327     1.007825032070
           C          1.823871680606    -0.874584879721     0.065169818327    12.000000000000
           H          1.649985680606     1.266357120279     0.145748818327     1.007825032070
           H          0.611304680606     0.521662120279    -1.040924181673     1.007825032070
           C          2.990684680606    -0.906772879721    -0.921094181673    12.000000000000
           H          2.203443680606    -0.984088879721     1.078756818327     1.007825032070
           H          1.175300680606    -1.729004879721    -0.113412181673     1.007825032070
           H          3.676193680606    -0.082558879721    -0.745588181673     1.007825032070
           H          2.639271680606    -0.831830879721    -1.945953181673     1.007825032070
           H          3.553991680606    -1.830117879721    -0.830839181673     1.007825032070
           H         -3.122441319394     1.275639120279    -0.734234181673     1.007825032070
           H         -1.651391319394     2.255597120279    -0.584917181673     1.007825032070
           H         -2.647471319394     1.967557120279     0.822812818327     1.007825032070

  Charge       = 0
  Multiplicity = 1
  Basis Set: 6-31G*
  Basis Set:

    Orbital Energies (a.u.)
    -----------------------

    Doubly Occupied:

       1A    -20.547424     2A    -11.324926     3A    -11.229791
       4A    -11.228795     5A    -11.227770     6A    -11.219854
       7A    -11.211114     8A     -1.393515     9A     -1.089886
      10A     -1.027892    11A     -0.982639    12A     -0.887653
      13A     -0.805905    14A     -0.735157    15A     -0.662421
      16A     -0.638891    17A     -0.622504    18A     -0.609679
      19A     -0.582598    20A     -0.574974    21A     -0.552963
      22A     -0.530283    23A     -0.524117    24A     -0.494942
      25A     -0.477180    26A     -0.471508    27A     -0.462679
      28A     -0.396886

  @DF-RHF Final Energy:  -309.06000020984970

   => Energetics <=

    Nuclear Repulsion Energy =            304.4938987834451609
    One-Electron Energy =               -1022.0800399651486714
    Two-Electron Energy =                 408.5261409718546588
    DFT Exchange-Correlation Energy =       0.0000000000000000
    Empirical Dispersion Energy =           0.0000000000000000
    PCM Polarization Energy =               0.0000000000000000
    EFP Energy =                            0.0000000000000000
    Total Energy =                       -309.0600002098488517

  Mulliken Charges: (a.u.)
   Center  Symbol    Alpha    Beta     Spin     Total
       1     O     4.26188  4.26188  0.00000 -0.52376
       2     C     2.74113  2.74113  0.00000  0.51774
       3     C     3.20330  3.20330  0.00000 -0.40659
       4     C     3.28937  3.28937  0.00000 -0.57873
       5     C     3.15800  3.15800  0.00000 -0.31601
       6     H     0.41396  0.41396  0.00000  0.17208
       7     H     0.39898  0.39898  0.00000  0.20204
       8     C     3.15535  3.15535  0.00000 -0.31070
       9     H     0.41732  0.41732  0.00000  0.16536
      10     H     0.41535  0.41535  0.00000  0.16929
      11     C     3.24130  3.24130  0.00000 -0.48260
      12     H     0.42181  0.42181  0.00000  0.15638
      13     H     0.40934  0.40934  0.00000  0.18131
      14     H     0.42264  0.42264  0.00000  0.15472
      15     H     0.41977  0.41977  0.00000  0.16045
      16     H     0.41724  0.41724  0.00000  0.16552
      17     H     0.39707  0.39707  0.00000  0.20586
      18     H     0.40973  0.40973  0.00000  0.18054
      19     H     0.40644  0.40644  0.00000  0.18711

   Total alpha = 28.00000, Total beta = 28.00000, Total charge =  0.00000
