  ==> Input File <==

--------------------------------------------------------------------------
set {
	reference rhf
	basis 6-31G*
}

set_num_threads( 4 )
memory 2 gb

molecule MOL {
0 1

H	 -1.748661	 -2.220942	 -0.005015
C	 -1.343207	 -1.225221	 -0.013879
N	 -0.055091	 -1.100174	 -0.261126
C	 -2.150779	 -0.125890	 0.222726
C	 0.449969	 0.122615	 -0.277109
H	 -3.200618	 -0.238980	 0.422496
N	 -1.660212	 1.097703	 0.209594
C	 -0.371804	 1.219904	 -0.038265
C	 1.928147	 0.267347	 -0.541394
H	 0.029131	 2.217482	 -0.051283
C	 2.571475	 1.362037	 0.316391
H	 2.406311	 -0.683444	 -0.331113
H	 2.088657	 0.481461	 -1.593329
H	 3.637608	 1.421078	 0.121783
H	 2.428991	 1.152726	 1.370130
H	 2.136426	 2.333176	 0.102073

	symmetry c1
}
set optking {
	frozen_dihedral = ("
		12 9 5 3
	")
}

ee = optimize('scf')
oeprop('DIPOLE', 'QUADRUPOLE', 'MULLIKEN_CHARGES')
f=open( 'psi4out.xyz', 'w' )
f.write( "16  " )
f.write( str(ee) + "\n" )
f.write( MOL.save_string_xyz() )
f.close()
--------------------------------------------------------------------------

    Molecular point group: c1
  Charge       = 0
  Multiplicity = 1
  Basis Set: 6-31G*
  Basis Set:
  @DF-RHF Final Energy:  -340.75526683553727
    Total Energy =                       -340.7552668355373271
    Molecular point group: c1
  Basis Set: 6-31G*
  Basis Set:
  Basis Set: 6-31G*
  Basis Set:
  @DF-RHF Final Energy:  -340.75573647145228
    Total Energy =                       -340.7557364714524510
  Basis Set: 6-31G*
  Basis Set:
  Basis Set: 6-31G*
  Basis Set:
  @DF-RHF Final Energy:  -340.75616781645226
    Total Energy =                       -340.7561678164522618
  Basis Set: 6-31G*
  Basis Set:
  Basis Set: 6-31G*
  Basis Set:
  @DF-RHF Final Energy:  -340.75619739818501
    Total Energy =                       -340.7561973981850088
  Basis Set: 6-31G*
  Basis Set:
  Basis Set: 6-31G*
  Basis Set:
  @DF-RHF Final Energy:  -340.75620499199130
    Total Energy =                       -340.7562049919913534
  Basis Set: 6-31G*
  Basis Set:
  Charge       = 0
  Multiplicity = 1
  Basis Set: 6-31G*
  Basis Set:

    Orbital Energies (a.u.)
    -----------------------

    Doubly Occupied:

       1A    -15.586253     2A    -15.581378     3A    -11.282070
       4A    -11.275071     5A    -11.271809     6A    -11.271125
       7A    -11.232986     8A    -11.223366     9A     -1.312624
      10A     -1.220980    11A     -1.084938    12A     -1.015096
      13A     -0.906368    14A     -0.893027    15A     -0.830093
      16A     -0.714345    17A     -0.709077    18A     -0.654715
      19A     -0.622476    20A     -0.608694    21A     -0.573035
      22A     -0.563986    23A     -0.520504    24A     -0.511443
      25A     -0.505071    26A     -0.481139    27A     -0.428394
      28A     -0.394510    29A     -0.344710

  @DF-RHF Final Energy:  -340.75620556886128

   => Energetics <=

    Nuclear Repulsion Energy =            349.1348293713671751
    One-Electron Energy =               -1152.5435056666588025
    Two-Electron Energy =                 462.6524707264301810
    DFT Exchange-Correlation Energy =       0.0000000000000000
    Empirical Dispersion Energy =           0.0000000000000000
    PCM Polarization Energy =               0.0000000000000000
    EFP Energy =                            0.0000000000000000
    Total Energy =                       -340.7562055688613896
    Molecular point group: c1
  Basis Set: 6-31G*
  Basis Set:

  -Total Gradient:
     Atom            X                  Y                   Z
    ------   -----------------  -----------------  -----------------
       1       -0.000018709426     0.000002584495    -0.000053693159
       2        0.000196038259    -0.000070543438     0.000144526066
       3       -0.000253230398    -0.000068215024    -0.000571502306
       4       -0.000001504645     0.000175528845     0.000016779525
       5        0.000145661220     0.000121720892     0.000825638571
       6       -0.000004069426    -0.000009577246    -0.000022798028
       7       -0.000128415884    -0.000099761176     0.000038622086
       8        0.000133879307    -0.000024719689    -0.000182367233
       9       -0.000178788041    -0.000152990654    -0.000843013205
      10       -0.000004472372    -0.000012053084     0.000074476843
      11        0.000026918922    -0.000000977042     0.000020698402
      12        0.000070187548     0.000150833171     0.000565055212
      13        0.000008188009    -0.000024547606    -0.000023065360
      14       -0.000003368424     0.000021903613    -0.000001376213
      15        0.000023998813     0.000005643595     0.000006281164
      16       -0.000012313461    -0.000014829651     0.000005737634

  **** Optimization is complete! (in 6 steps) ****
    Final optimized geometry and variables:
    Molecular point group: c1

    Geometry (in Angstrom), charge = 0, multiplicity = 1:

    H           -1.698896310666    -2.459485692651     0.010443402600
    C           -1.310589182218    -1.456919117893     0.013565330855
    N           -0.016903861306    -1.310971603484    -0.200537553747
    C           -2.138901601952    -0.372854360059     0.233153480888
    C            0.474390663908    -0.083876724000    -0.196936539909
    H           -3.191683960627    -0.500164736486     0.407084806352
    N           -1.663957919488     0.858529358600     0.236139870744
    C           -0.372995916817     1.001634112349     0.023270379057
    C            1.954024519409     0.066406250420    -0.475535396919
    H            0.004558252600     2.006977837643     0.026743334069
    C            2.667676433288     1.148637320981     0.339001861134
    H            2.408884956010    -0.896773949377    -0.281160642892
    H            2.089369961917     0.263917783130    -1.536732715994
    H            3.732158114780     1.126241169623     0.131547895682
    H            2.531671336655     0.992251348817     1.404321930919
    H            2.313824443358     2.145330953692     0.098936947653

  Mulliken Charges: (a.u.)
   Center  Symbol    Alpha    Beta     Spin     Total
       1     H     0.39387  0.39387  0.00000  0.21227
       2     C     2.99039  2.99039  0.00000  0.01923
       3     N     3.75690  3.75690  0.00000 -0.51379
       4     C     2.99816  2.99816  0.00000  0.00369
       5     C     2.87557  2.87557  0.00000  0.24886
       6     H     0.39433  0.39433  0.00000  0.21133
       7     N     3.73043  3.73043  0.00000 -0.46087
       8     C     2.99449  2.99449  0.00000  0.01101
       9     C     3.17086  3.17086  0.00000 -0.34172
      10     H     0.39402  0.39402  0.00000  0.21196
      11     C     3.24834  3.24834  0.00000 -0.49668
      12     H     0.39940  0.39940  0.00000  0.20120
      13     H     0.40736  0.40736  0.00000  0.18528
      14     H     0.41322  0.41322  0.00000  0.17357
      15     H     0.41358  0.41358  0.00000  0.17284
      16     H     0.41908  0.41908  0.00000  0.16183

   Total alpha = 29.00000, Total beta = 29.00000, Total charge =  0.00000
