  ==> Input File <==

--------------------------------------------------------------------------
set {
	reference rhf
	basis 6-31G*
}

set_num_threads( 1 )
memory 2 gb

molecule MOL {
0 1

H	 -1.836216	 1.387520	 -0.000064
C	 -1.301823	 0.443321	 -0.000031
O	 -0.003969	 0.658512	 0.000451
O	 -1.829879	 -0.616434	 -0.000857
C	 0.801812	 -0.192688	 0.814922
C	 2.240065	 0.247486	 0.647604
H	 0.655794	 -1.216789	 0.499942
H	 0.472242	 -0.107853	 1.841315
H	 2.550316	 0.163378	 -0.387627
H	 2.888865	 -0.377203	 1.252629
H	 2.366043	 1.277681	 0.960200

	symmetry c1
}
set optking {
	frozen_dihedral = ("
		7 5 3 2
	")
}

ee = energy('scf')
oeprop('DIPOLE', 'QUADRUPOLE', 'MULLIKEN_CHARGES')
f=open( 'psi4out.xyz', 'w' )
f.write( "11  " )
f.write( str(ee) + "\n" )
f.write( MOL.save_string_xyz() )
f.close()
--------------------------------------------------------------------------

    Molecular point group: c1

    Geometry (in Angstrom), charge = 0, multiplicity = 1:

       Center              X                  Y                   Z               Mass
    ------------   -----------------  -----------------  -----------------  -----------------
           H         -1.818670455767     1.282355880128    -0.293734840440     1.007825032070
           C         -1.284277455767     0.338156880128    -0.293701840440    12.000000000000
           O          0.013576544233     0.553347880128    -0.293219840440    15.994914619560
           O         -1.812333455767    -0.721598119872    -0.294527840440    15.994914619560
           C          0.819357544233    -0.297852119872     0.521251159560    12.000000000000
           C          2.257610544233     0.142321880128     0.353933159560    12.000000000000
           H          0.673339544233    -1.321953119872     0.206271159560     1.007825032070
           H          0.489787544233    -0.213017119872     1.547644159560     1.007825032070
           H          2.567861544233     0.058213880128    -0.681297840440     1.007825032070
           H          2.906410544233    -0.482367119872     0.958958159560     1.007825032070
           H          2.383588544233     1.172516880128     0.666529159560     1.007825032070

  Charge       = 0
  Multiplicity = 1
  Basis Set: 6-31G*
  Basis Set:

    Orbital Energies (a.u.)
    -----------------------

    Doubly Occupied:

       1A    -20.604327     2A    -20.560936     3A    -11.378713
       4A    -11.295515     5A    -11.227855     6A     -1.473873
       7A     -1.374872     8A     -1.052746     9A     -0.899780
      10A     -0.812014    11A     -0.740244    12A     -0.686910
      13A     -0.670534    14A     -0.612421    15A     -0.564028
      16A     -0.551677    17A     -0.526252    18A     -0.510441
      19A     -0.463329    20A     -0.449440

  @DF-RHF Final Energy:  -266.82009773499328

   => Energetics <=

    Nuclear Repulsion Energy =            178.7687560090950853
    One-Electron Energy =                -718.2658517192177214
    Two-Electron Energy =                 272.6769979751294386
    DFT Exchange-Correlation Energy =       0.0000000000000000
    Empirical Dispersion Energy =           0.0000000000000000
    PCM Polarization Energy =               0.0000000000000000
    EFP Energy =                            0.0000000000000000
    Total Energy =                       -266.8200977349931691

  Mulliken Charges: (a.u.)
   Center  Symbol    Alpha    Beta     Spin     Total
       1     H     0.41648  0.41648  0.00000  0.16703
       2     C     2.72662  2.72662  0.00000  0.54677
       3     O     4.29474  4.29474  0.00000 -0.58948
       4     O     4.25384  4.25384  0.00000 -0.50768
       5     C     3.00717  3.00717  0.00000 -0.01433
       6     C     3.24912  3.24912  0.00000 -0.49825
       7     H     0.40282  0.40282  0.00000  0.19436
       8     H     0.41504  0.41504  0.00000  0.16993
       9     H     0.40807  0.40807  0.00000  0.18385
      10     H     0.41535  0.41535  0.00000  0.16929
      11     H     0.41074  0.41074  0.00000  0.17852

   Total alpha = 20.00000, Total beta = 20.00000, Total charge =  0.00000
