  ==> Input File <==

--------------------------------------------------------------------------
set {
	reference rhf
	basis 6-31G*
}

set_num_threads( 4 )
memory 2 gb

molecule MOL {
0 1

O	 0.749854	 1.307668	 -0.000040
C	 0.576249	 0.131685	 -0.000108
C	 -0.766779	 -0.556801	 -0.000461
O	 1.568443	 -0.749345	 -0.000005
C	 -1.945214	 0.412366	 0.000161
H	 -0.796911	 -1.211249	 -0.867467
H	 -0.796854	 -1.212390	 0.865687
C	 -2.646325	 0.462049	 1.356827
H	 -2.650212	 0.119240	 -0.770330
H	 -1.594718	 1.402224	 -0.271703
H	 -3.034713	 -0.513035	 1.637574
H	 -3.480555	 1.155616	 1.336146
H	 -1.967862	 0.785240	 2.141498
C	 2.886820	 -0.232538	 0.000322
H	 3.059106	 0.369571	 -0.880203
H	 3.540187	 -1.091012	 0.000050
H	 3.059019	 0.368956	 0.881266

	symmetry c1
}
set optking {
	frozen_dihedral = ("
		9 5 3 6
	")
}

ee = optimize('scf')
oeprop('DIPOLE', 'QUADRUPOLE', 'MULLIKEN_CHARGES')
f=open( 'psi4out.xyz', 'w' )
f.write( "17  " )
f.write( str(ee) + "\n" )
f.write( MOL.save_string_xyz() )
f.close()
--------------------------------------------------------------------------

    Molecular point group: c1
  Charge       = 0
  Multiplicity = 1
  Basis Set: 6-31G*
  Basis Set:
  @DF-RHF Final Energy:  -344.90244301632066
    Total Energy =                       -344.9024430163203192
    Molecular point group: c1
  Basis Set: 6-31G*
  Basis Set:
  Basis Set: 6-31G*
  Basis Set:
  @DF-RHF Final Energy:  -344.90275224975215
    Total Energy =                       -344.9027522497514724
  Basis Set: 6-31G*
  Basis Set:
  Basis Set: 6-31G*
  Basis Set:
  @DF-RHF Final Energy:  -344.90254349427033
    Total Energy =                       -344.9025434942704464
  Basis Set: 6-31G*
  Basis Set:
  Basis Set: 6-31G*
  Basis Set:
  @DF-RHF Final Energy:  -344.90285073003116
    Total Energy =                       -344.9028507300309911
  Basis Set: 6-31G*
  Basis Set:
  Basis Set: 6-31G*
  Basis Set:
  @DF-RHF Final Energy:  -344.90285784793753
    Total Energy =                       -344.9028578479378666
  Basis Set: 6-31G*
  Basis Set:
  Basis Set: 6-31G*
  Basis Set:
  @DF-RHF Final Energy:  -344.90285998841125
    Total Energy =                       -344.9028599884110236
  Basis Set: 6-31G*
  Basis Set:
  Basis Set: 6-31G*
  Basis Set:
  @DF-RHF Final Energy:  -344.90286183941112
    Total Energy =                       -344.9028618394111163
  Basis Set: 6-31G*
  Basis Set:
  Charge       = 0
  Multiplicity = 1
  Basis Set: 6-31G*
  Basis Set:

    Orbital Energies (a.u.)
    -----------------------

    Doubly Occupied:

       1A    -20.604526     2A    -20.546712     3A    -11.373694
       4A    -11.281462     5A    -11.235678     6A    -11.220283
       7A    -11.211799     8A     -1.470477     9A     -1.363847
      10A     -1.077434    11A     -1.000948    12A     -0.938721
      13A     -0.829075    14A     -0.766775    15A     -0.703177
      16A     -0.681608    17A     -0.672666    18A     -0.622492
      19A     -0.606558    20A     -0.570025    21A     -0.569198
      22A     -0.532508    23A     -0.524672    24A     -0.487022
      25A     -0.483833    26A     -0.476941    27A     -0.457655
      28A     -0.440355

  @DF-RHF Final Energy:  -344.90286234291790

   => Energetics <=

    Nuclear Repulsion Energy =            314.7209929579075265
    One-Electron Energy =               -1093.7474292838567180
    Two-Electron Energy =                 434.1235739830311786
    DFT Exchange-Correlation Energy =       0.0000000000000000
    Empirical Dispersion Energy =           0.0000000000000000
    PCM Polarization Energy =               0.0000000000000000
    EFP Energy =                            0.0000000000000000
    Total Energy =                       -344.9028623429179561
    Molecular point group: c1
  Basis Set: 6-31G*
  Basis Set:

  -Total Gradient:
     Atom            X                  Y                   Z
    ------   -----------------  -----------------  -----------------
       1       -0.000022653149     0.000032571236     0.000008771437
       2        0.000013300718     0.000019375003    -0.000004531210
       3        0.002382089020     0.003026561594    -0.002565934098
       4        0.000010374494    -0.000062491631     0.000005673526
       5       -0.002106665201    -0.002737451324     0.002953671734
       6       -0.001587269781    -0.002074356122     0.001638695144
       7        0.000003986492     0.000001627176    -0.000011033672
       8       -0.000015219003     0.000029374606    -0.000013378394
       9        0.001370171219     0.001770509596    -0.002031529101
      10       -0.000013252563    -0.000004368696     0.000002689363
      11       -0.000004192516    -0.000005899414     0.000002339065
      12       -0.000005317382    -0.000000947901     0.000014684160
      13        0.000002183645     0.000003261446     0.000004450279
      14       -0.000027029562     0.000006721890    -0.000010560234
      15        0.000002480287    -0.000000559945     0.000004071643
      16       -0.000001927109    -0.000004541669     0.000001559044
      17       -0.000001059614     0.000000614158     0.000000361314

  **** Optimization is complete! (in 8 steps) ****
    Final optimized geometry and variables:
    Molecular point group: c1

    Geometry (in Angstrom), charge = 0, multiplicity = 1:

    O            0.666241537148     1.193556765117    -0.120638963912
    C            0.487217841229     0.020471149743    -0.191108731806
    C           -0.854437302457    -0.672909551867    -0.218654732441
    O            1.476728942949    -0.861732172871    -0.243993551901
    C           -2.063017805694     0.275636342385    -0.209963121891
    H           -0.867596286103    -1.341606595676    -1.072929047449
    H           -0.871846476541    -1.334149583885     0.644231699963
    C           -2.750266792110     0.367419191550     1.151123864348
    H           -2.771671218233    -0.041462453708    -0.968587900653
    H           -1.731961645397     1.263048039073    -0.506961189804
    H           -3.131696576043    -0.599047239808     1.469074065310
    H           -3.585484424745     1.059572904332     1.119155826929
    H           -2.057935310033     0.719808865002     1.910059721482
    C            2.796853779540    -0.350276845234    -0.211713506298
    H            2.971485907081     0.304149002315    -1.053508386898
    H            3.447254841640    -1.209397922385    -0.264628539723
    H            2.970670073624     0.195194498774     0.704656478990

  Mulliken Charges: (a.u.)
   Center  Symbol    Alpha    Beta     Spin     Total
       1     O     4.28521  4.28521  0.00000 -0.57042
       2     C     2.61143  2.61143  0.00000  0.77715
       3     C     3.20993  3.20993  0.00000 -0.41985
       4     O     4.30524  4.30524  0.00000 -0.61048
       5     C     3.16059  3.16059  0.00000 -0.32119
       6     H     0.39701  0.39701  0.00000  0.20598
       7     H     0.39864  0.39864  0.00000  0.20271
       8     C     3.24210  3.24210  0.00000 -0.48421
       9     H     0.41840  0.41840  0.00000  0.16320
      10     H     0.39670  0.39670  0.00000  0.20660
      11     H     0.42280  0.42280  0.00000  0.15440
      12     H     0.41706  0.41706  0.00000  0.16588
      13     H     0.41644  0.41644  0.00000  0.16711
      14     C     3.09219  3.09219  0.00000 -0.18439
      15     H     0.40885  0.40885  0.00000  0.18231
      16     H     0.40836  0.40836  0.00000  0.18328
      17     H     0.40905  0.40905  0.00000  0.18190

   Total alpha = 28.00000, Total beta = 28.00000, Total charge =  0.00000
