  ==> Input File <==

--------------------------------------------------------------------------
set {
	reference rhf
	basis 6-31G*
}

set_num_threads( 4 )
memory 2 gb

molecule MOL {
0 1

H	 1.290758	 -2.203731	 0.518064
C	 0.336376	 -1.713940	 0.624439
O	 0.464886	 -0.454746	 -0.000158
H	 0.105431	 -1.604628	 1.677406
H	 -0.428406	 -2.311482	 0.142658
C	 -0.590998	 0.343045	 0.000118
O	 -1.699443	 -0.054298	 0.000227
H	 -0.340329	 1.404368	 0.000207

	symmetry c1
}
set optking {
	frozen_dihedral = ("
		2 3 6 7
	")
}

ee = optimize('scf')
oeprop('DIPOLE', 'QUADRUPOLE', 'MULLIKEN_CHARGES')
f=open( 'psi4out.xyz', 'w' )
f.write( "8  " )
f.write( str(ee) + "\n" )
f.write( MOL.save_string_xyz() )
f.close()
--------------------------------------------------------------------------

    Molecular point group: c1
  Charge       = 0
  Multiplicity = 1
  Basis Set: 6-31G*
  Basis Set:
  @DF-RHF Final Energy:  -227.78254009263341
    Total Energy =                       -227.7825400926335249
    Molecular point group: c1
  Basis Set: 6-31G*
  Basis Set:
  Basis Set: 6-31G*
  Basis Set:
  @DF-RHF Final Energy:  -227.77763574199190
    Total Energy =                       -227.7776357419918725
  Basis Set: 6-31G*
  Basis Set:
  Basis Set: 6-31G*
  Basis Set:
  @DF-RHF Final Energy:  -227.78311411270630
    Total Energy =                       -227.7831141127064143
  Basis Set: 6-31G*
  Basis Set:
  Basis Set: 6-31G*
  Basis Set:
  @DF-RHF Final Energy:  -227.78390382158079
    Total Energy =                       -227.7839038215807363
  Basis Set: 6-31G*
  Basis Set:
  Basis Set: 6-31G*
  Basis Set:
  @DF-RHF Final Energy:  -227.78391214261671
    Total Energy =                       -227.7839121426167424
  Basis Set: 6-31G*
  Basis Set:
  Basis Set: 6-31G*
  Basis Set:
  @DF-RHF Final Energy:  -227.78391338802942
    Total Energy =                       -227.7839133880292763
  Basis Set: 6-31G*
  Basis Set:
  Charge       = 0
  Multiplicity = 1
  Basis Set: 6-31G*
  Basis Set:

    Orbital Energies (a.u.)
    -----------------------

    Doubly Occupied:

       1A    -20.612274     2A    -20.562383     3A    -11.381119
       4A    -11.291123     5A     -1.476382     6A     -1.377270
       7A     -0.996091     8A     -0.821262     9A     -0.742916
      10A     -0.681625    11A     -0.677036    12A     -0.606034
      13A     -0.558735    14A     -0.529757    15A     -0.466350
      16A     -0.456649

  @DF-RHF Final Energy:  -227.78391343947351

   => Energetics <=

    Nuclear Repulsion Energy =            123.3050932773083304
    One-Electron Energy =                -555.7039989414849970
    Two-Electron Energy =                 204.6149922247031441
    DFT Exchange-Correlation Energy =       0.0000000000000000
    Empirical Dispersion Energy =           0.0000000000000000
    PCM Polarization Energy =               0.0000000000000000
    EFP Energy =                            0.0000000000000000
    Total Energy =                       -227.7839134394735083
    Molecular point group: c1
  Basis Set: 6-31G*
  Basis Set:

  -Total Gradient:
     Atom            X                  Y                   Z
    ------   -----------------  -----------------  -----------------
       1        0.000000929426     0.000008411132    -0.000003282715
       2        0.002525543686     0.002915106368     0.006374126008
       3       -0.004003853188    -0.004330643162    -0.014600954159
       4        0.000003305411    -0.000002609501     0.000001744738
       5        0.000002315069     0.000001329750    -0.000001240577
       6        0.001909900420     0.001332927152     0.018028626693
       7       -0.000442420059     0.000068803949    -0.009793888164
       8        0.000004279232     0.000006674312    -0.000005131823

  **** Optimization is complete! (in 7 steps) ****
    Final optimized geometry and variables:
    Molecular point group: c1

    Geometry (in Angstrom), charge = 0, multiplicity = 1:

    H            1.701721363632    -1.687977750869     0.372487514093
    C            0.721094280770    -1.242990668411     0.426006052773
    O            0.833315720583     0.024668253823    -0.203371048739
    H            0.424464062417    -1.120220584091     1.458669445710
    H            0.000096422331    -1.863896066664    -0.084874906755
    C           -0.220498168949     0.820825066622    -0.149252183425
    O           -1.348211873285     0.469383342536    -0.099016502094
    H            0.084981602768     1.857790539646    -0.242433093962

  Mulliken Charges: (a.u.)
   Center  Symbol    Alpha    Beta     Spin     Total
       1     H     0.40499  0.40499  0.00000  0.19002
       2     C     3.09534  3.09534  0.00000 -0.19068
       3     O     4.28780  4.28780  0.00000 -0.57560
       4     H     0.41181  0.41181  0.00000  0.17638
       5     H     0.40355  0.40355  0.00000  0.19290
       6     C     2.72956  2.72956  0.00000  0.54087
       7     O     4.25493  4.25493  0.00000 -0.50985
       8     H     0.41202  0.41202  0.00000  0.17596

   Total alpha = 16.00000, Total beta = 16.00000, Total charge =  0.00000
