  ==> Input File <==

--------------------------------------------------------------------------
set {
	reference rhf
	basis 6-31G*
}

set_num_threads( 4 )
memory 2 gb

molecule MOL {
0 1

H	 -2.798360	 -0.862255	 -0.071053
N	 -1.863561	 -0.715187	 0.256814
C	 -1.344686	 0.554728	 -0.219830
H	 -1.300452	 -1.461917	 -0.101532
C	 -2.057076	 1.697200	 0.473274
H	 -0.271358	 0.675537	 -0.066950
H	 -1.531874	 0.627503	 -1.286810
O	 -1.748337	 1.643871	 1.836697
H	 -1.736591	 2.650640	 0.053893
H	 -3.130564	 1.602191	 0.325516
C	 -2.408665	 2.592341	 2.612547
H	 -2.092254	 2.455532	 3.637664
H	 -2.159879	 3.605057	 2.300308
H	 -3.488318	 2.469538	 2.557060

	symmetry c1
}
set optking {
	frozen_dihedral = ("
		6 3 2 4
	")
}

ee = optimize('scf')
oeprop('DIPOLE', 'QUADRUPOLE', 'MULLIKEN_CHARGES')
f=open( 'psi4out.xyz', 'w' )
f.write( "14  " )
f.write( str(ee) + "\n" )
f.write( MOL.save_string_xyz() )
f.close()
--------------------------------------------------------------------------

    Molecular point group: c1
  Charge       = 0
  Multiplicity = 1
  Basis Set: 6-31G*
  Basis Set:
  @DF-RHF Final Energy:  -248.11693225816967
    Total Energy =                       -248.1169322581696406
    Molecular point group: c1
  Basis Set: 6-31G*
  Basis Set:
  Basis Set: 6-31G*
  Basis Set:
  @DF-RHF Final Energy:  -248.11930277841333
    Total Energy =                       -248.1193027784132141
  Basis Set: 6-31G*
  Basis Set:
  Basis Set: 6-31G*
  Basis Set:
  @DF-RHF Final Energy:  -248.11961956992013
    Total Energy =                       -248.1196195699201894
  Basis Set: 6-31G*
  Basis Set:
  Basis Set: 6-31G*
  Basis Set:
  @DF-RHF Final Energy:  -248.11964106909900
    Total Energy =                       -248.1196410690990888
  Basis Set: 6-31G*
  Basis Set:
  Charge       = 0
  Multiplicity = 1
  Basis Set: 6-31G*
  Basis Set:

    Orbital Energies (a.u.)
    -----------------------

    Doubly Occupied:

       1A    -20.548911     2A    -15.532187     3A    -11.265911
       4A    -11.260620     5A    -11.243072     6A     -1.375949
       7A     -1.176103     8A     -0.998190     9A     -0.902583
      10A     -0.818001    11A     -0.681108    12A     -0.665963
      13A     -0.646158    14A     -0.618121    15A     -0.595101
      16A     -0.550013    17A     -0.519249    18A     -0.501926
      19A     -0.463153    20A     -0.411536    21A     -0.380126

  @DF-RHF Final Energy:  -248.11964201187155

   => Energetics <=

    Nuclear Repulsion Energy =            193.3243659144586388
    One-Electron Energy =                -720.5800503483262673
    Two-Electron Energy =                 279.1360424219960805
    DFT Exchange-Correlation Energy =       0.0000000000000000
    Empirical Dispersion Energy =           0.0000000000000000
    PCM Polarization Energy =               0.0000000000000000
    EFP Energy =                            0.0000000000000000
    Total Energy =                       -248.1196420118715196
    Molecular point group: c1
  Basis Set: 6-31G*
  Basis Set:

  -Total Gradient:
     Atom            X                  Y                   Z
    ------   -----------------  -----------------  -----------------
       1        0.000013823058     0.000002156671     0.000013753777
       2       -0.000087997855     0.000034918125    -0.000203310104
       3       -0.000033232729     0.000054777275     0.000216830275
       4        0.000067305943     0.000007799968     0.000104750623
       5       -0.000080351057    -0.000083781734     0.000025946650
       6        0.000075045048    -0.000040781733    -0.000098281245
       7       -0.000020316537    -0.000012959594     0.000022181205
       8        0.000053697740     0.000005045075    -0.000064399320
       9        0.000030325160     0.000006876930     0.000049739395
      10       -0.000028323705     0.000005543254    -0.000050038141
      11        0.000021452618     0.000044146734    -0.000018498838
      12       -0.000001307044    -0.000011038820    -0.000006494888
      13       -0.000008429593     0.000002087570     0.000013242422
      14       -0.000001691047    -0.000014789721    -0.000005421814

  **** Optimization is complete! (in 5 steps) ****
    Final optimized geometry and variables:
    Molecular point group: c1

    Geometry (in Angstrom), charge = 0, multiplicity = 1:

    H           -0.892999125227    -2.058536706728    -1.193068037256
    N            0.019395465430    -1.905224552420    -0.808586757694
    C            0.536656635165    -0.606472957334    -1.202482037407
    H            0.609299986301    -2.640559952754    -1.144996524023
    C           -0.180389405537     0.523250510438    -0.486094145148
    H            1.586172339879    -0.561513491536    -0.936398311895
    H            0.467221982179    -0.421160217041    -2.277288146257
    O            0.171899982429     0.527548885094     0.859829877170
    H            0.092268436010     1.473339175237    -0.947916565021
    H           -1.259968521342     0.408417647001    -0.597769315039
    C           -0.491229007720     1.484332017693     1.619572314727
    H           -0.134266539038     1.398648351561     2.636697978597
    H           -0.290267963877     2.492928623437     1.260258421620
    H           -1.568158680489     1.324938576167     1.610761251899

  Mulliken Charges: (a.u.)
   Center  Symbol    Alpha    Beta     Spin     Total
       1     H     0.33598  0.33598  0.00000  0.32805
       2     N     3.91532  3.91532  0.00000 -0.83063
       3     C     3.07248  3.07248  0.00000 -0.14497
       4     H     0.33109  0.33109  0.00000  0.33783
       5     C     2.98266  2.98266  0.00000  0.03467
       6     H     0.41027  0.41027  0.00000  0.17947
       7     H     0.43396  0.43396  0.00000  0.13209
       8     O     4.29635  4.29635  0.00000 -0.59271
       9     H     0.43280  0.43280  0.00000  0.13440
      10     H     0.43567  0.43567  0.00000  0.12866
      11     C     3.07874  3.07874  0.00000 -0.15748
      12     H     0.41161  0.41161  0.00000  0.17678
      13     H     0.43273  0.43273  0.00000  0.13454
      14     H     0.43035  0.43035  0.00000  0.13930

   Total alpha = 21.00000, Total beta = 21.00000, Total charge =  0.00000
