  ==> Input File <==

--------------------------------------------------------------------------
set {
	reference rhf
	basis 6-31G*
}

set_num_threads( 1 )
memory 2 gb

molecule MOL {
0 1

H	 2.689964	 0.331107	 1.754982
O	 1.989099	 0.878383	 1.430999
C	 1.135793	 0.118896	 0.612333
C	 0.031547	 1.023609	 0.088541
H	 0.691632	 -0.697464	 1.179048
H	 1.691594	 -0.324122	 -0.211028
C	 -1.134819	 0.293262	 -0.585751
H	 0.474374	 1.714721	 -0.623187
H	 -0.338529	 1.620940	 0.920081
C	 -1.917817	 -0.639439	 0.339494
H	 -0.758119	 -0.268455	 -1.433105
H	 -1.813832	 1.041889	 -0.986690
H	 -2.777680	 -1.057197	 -0.174994
H	 -1.310268	 -1.471279	 0.680599
H	 -2.283753	 -0.111424	 1.216626

	symmetry c1
}
set optking {
	frozen_dihedral = ("
		8 4 7 11,
		1 2 3 4
	")
}

ee = energy('scf')
oeprop('DIPOLE', 'QUADRUPOLE', 'MULLIKEN_CHARGES')
f=open( 'psi4out.xyz', 'w' )
f.write( "15  " )
f.write( str(ee) + "\n" )
f.write( MOL.save_string_xyz() )
f.close()
--------------------------------------------------------------------------

    Molecular point group: c1

    Geometry (in Angstrom), charge = 0, multiplicity = 1:

       Center              X                  Y                   Z               Mass
    ------------   -----------------  -----------------  -----------------  -----------------
           H          2.616684072223     0.001832470072     1.340734611316     1.007825032070
           O          1.915819072223     0.549108470072     1.016751611316    15.994914619560
           C          1.062513072223    -0.210378529928     0.198085611316    12.000000000000
           C         -0.041732927777     0.694334470072    -0.325706388684    12.000000000000
           H          0.618352072223    -1.026738529928     0.764800611316     1.007825032070
           H          1.618314072223    -0.653396529928    -0.625275388684     1.007825032070
           C         -1.208098927777    -0.036012529928    -0.999998388684    12.000000000000
           H          0.401094072223     1.385446470072    -1.037434388684     1.007825032070
           H         -0.411808927777     1.291665470072     0.505833611316     1.007825032070
           C         -1.991096927777    -0.968713529928    -0.074753388684    12.000000000000
           H         -0.831398927777    -0.597729529928    -1.847352388684     1.007825032070
           H         -1.887111927777     0.712614470072    -1.400937388684     1.007825032070
           H         -2.850959927777    -1.386471529928    -0.589241388684     1.007825032070
           H         -1.383547927777    -1.800553529928     0.266351611316     1.007825032070
           H         -2.357032927777    -0.440698529928     0.802378611316     1.007825032070

  Charge       = 0
  Multiplicity = 1
  Basis Set: 6-31G*
  Basis Set:

    Orbital Energies (a.u.)
    -----------------------

    Doubly Occupied:

       1A    -20.551974     2A    -11.266566     3A    -11.218732
       4A    -11.211411     5A    -11.210827     6A     -1.358263
       7A     -1.070215     8A     -0.970592     9A     -0.870481
      10A     -0.783338    11A     -0.694309    12A     -0.652280
      13A     -0.620580    14A     -0.579330    15A     -0.556675
      16A     -0.538921    17A     -0.507481    18A     -0.474698
      19A     -0.472284    20A     -0.456714    21A     -0.431396

  @DF-RHF Final Energy:  -232.14205966928779

   => Energetics <=

    Nuclear Repulsion Energy =            188.3367856678096928
    One-Electron Energy =                -687.9635705761295412
    Two-Electron Energy =                 267.4847252390317180
    DFT Exchange-Correlation Energy =       0.0000000000000000
    Empirical Dispersion Energy =           0.0000000000000000
    PCM Polarization Energy =               0.0000000000000000
    EFP Energy =                            0.0000000000000000
    Total Energy =                       -232.1420596692881304

  Mulliken Charges: (a.u.)
   Center  Symbol    Alpha    Beta     Spin     Total
       1     H     0.28107  0.28107  0.00000  0.43785
       2     O     4.37153  4.37153  0.00000 -0.74305
       3     C     2.99217  2.99217  0.00000  0.01566
       4     C     3.16070  3.16070  0.00000 -0.32140
       5     H     0.43136  0.43136  0.00000  0.13728
       6     H     0.43250  0.43250  0.00000  0.13501
       7     C     3.15976  3.15976  0.00000 -0.31952
       8     H     0.41568  0.41568  0.00000  0.16863
       9     H     0.41329  0.41329  0.00000  0.17342
      10     C     3.24217  3.24217  0.00000 -0.48434
      11     H     0.42286  0.42286  0.00000  0.15428
      12     H     0.41743  0.41743  0.00000  0.16513
      13     H     0.41820  0.41820  0.00000  0.16361
      14     H     0.42185  0.42185  0.00000  0.15630
      15     H     0.41943  0.41943  0.00000  0.16115

   Total alpha = 21.00000, Total beta = 21.00000, Total charge =  0.00000
