  ==> Input File <==

--------------------------------------------------------------------------
set {
	reference rhf
	basis 6-31G*
}

set_num_threads( 1 )
memory 2 gb

molecule MOL {
0 1

O	 0.749854	 1.307668	 -0.000040
C	 0.576249	 0.131685	 -0.000108
C	 -0.766779	 -0.556801	 -0.000461
O	 1.568443	 -0.749345	 -0.000005
C	 -1.945214	 0.412366	 0.000161
H	 -0.796911	 -1.211249	 -0.867467
H	 -0.796854	 -1.212390	 0.865687
C	 -2.882479	 0.176534	 -1.183260
H	 -1.571462	 1.430439	 -0.020811
H	 -2.492067	 0.310342	 0.931352
H	 -2.364631	 0.304152	 -2.129833
H	 -3.712447	 0.875258	 -1.164814
H	 -3.296306	 -0.827926	 -1.166501
C	 2.886820	 -0.232538	 0.000322
H	 3.059106	 0.369571	 -0.880203
H	 3.540187	 -1.091012	 0.000050
H	 3.059019	 0.368956	 0.881266

	symmetry c1
}
set optking {
	frozen_dihedral = ("
		1 2 3 6,
		14 4 2 1
	")
}

ee = energy('scf')
oeprop('DIPOLE', 'QUADRUPOLE', 'MULLIKEN_CHARGES')
f=open( 'psi4out.xyz', 'w' )
f.write( "17  " )
f.write( str(ee) + "\n" )
f.write( MOL.save_string_xyz() )
f.close()
--------------------------------------------------------------------------

    Molecular point group: c1

    Geometry (in Angstrom), charge = 0, multiplicity = 1:

       Center              X                  Y                   Z               Mass
    ------------   -----------------  -----------------  -----------------  -----------------
           O          0.690190668743     1.235009921897     0.174156817269    15.994914619560
           C          0.516585668743     0.059026921897     0.174088817269    12.000000000000
           C         -0.826442331257    -0.629459078103     0.173735817269    12.000000000000
           O          1.508779668743    -0.822003078103     0.174191817269    15.994914619560
           C         -2.004877331257     0.339707921897     0.174357817269    12.000000000000
           H         -0.856574331257    -1.283907078103    -0.693270182731     1.007825032070
           H         -0.856517331257    -1.285048078103     1.039883817269     1.007825032070
           C         -2.942142331257     0.103875921897    -1.009063182731    12.000000000000
           H         -1.631125331257     1.357780921897     0.153385817269     1.007825032070
           H         -2.551730331257     0.237683921897     1.105548817269     1.007825032070
           H         -2.424294331257     0.231493921897    -1.955636182731     1.007825032070
           H         -3.772110331257     0.802599921897    -0.990617182731     1.007825032070
           H         -3.355969331257    -0.900584078103    -0.992304182731     1.007825032070
           C          2.827156668743    -0.305196078103     0.174518817269    12.000000000000
           H          2.999442668743     0.296912921897    -0.706006182731     1.007825032070
           H          3.480523668743    -1.163670078103     0.174246817269     1.007825032070
           H          2.999355668743     0.296297921897     1.055462817269     1.007825032070

  Charge       = 0
  Multiplicity = 1
  Basis Set: 6-31G*
  Basis Set:

    Orbital Energies (a.u.)
    -----------------------

    Doubly Occupied:

       1A    -20.604747     2A    -20.546804     3A    -11.373441
       4A    -11.281501     5A    -11.234420     6A    -11.217407
       7A    -11.212443     8A     -1.470502     9A     -1.364353
      10A     -1.079526    11A     -1.000629    12A     -0.938811
      13A     -0.827838    14A     -0.766709    15A     -0.704068
      16A     -0.682250    17A     -0.673456    18A     -0.628320
      19A     -0.603250    20A     -0.570173    21A     -0.569020
      22A     -0.531979    23A     -0.524476    24A     -0.487490
      25A     -0.485965    26A     -0.473148    27A     -0.458114
      28A     -0.440956

  @DF-RHF Final Energy:  -344.90170126212308

   => Energetics <=

    Nuclear Repulsion Energy =            314.2126868014090633
    One-Electron Energy =               -1092.7251934763482950
    Two-Electron Energy =                 433.6108054128158642
    DFT Exchange-Correlation Energy =       0.0000000000000000
    Empirical Dispersion Energy =           0.0000000000000000
    PCM Polarization Energy =               0.0000000000000000
    EFP Energy =                            0.0000000000000000
    Total Energy =                       -344.9017012621233675

  Mulliken Charges: (a.u.)
   Center  Symbol    Alpha    Beta     Spin     Total
       1     O     4.28440  4.28440  0.00000 -0.56879
       2     C     2.61209  2.61209  0.00000  0.77582
       3     C     3.20959  3.20959  0.00000 -0.41918
       4     O     4.30528  4.30528  0.00000 -0.61056
       5     C     3.16251  3.16251  0.00000 -0.32501
       6     H     0.39777  0.39777  0.00000  0.20445
       7     H     0.39747  0.39747  0.00000  0.20506
       8     C     3.24343  3.24343  0.00000 -0.48687
       9     H     0.39163  0.39163  0.00000  0.21675
      10     H     0.41825  0.41825  0.00000  0.16349
      11     H     0.41951  0.41951  0.00000  0.16098
      12     H     0.41716  0.41716  0.00000  0.16568
      13     H     0.42236  0.42236  0.00000  0.15527
      14     C     3.09230  3.09230  0.00000 -0.18461
      15     H     0.40898  0.40898  0.00000  0.18203
      16     H     0.40832  0.40832  0.00000  0.18335
      17     H     0.40894  0.40894  0.00000  0.18212

   Total alpha = 28.00000, Total beta = 28.00000, Total charge =  0.00000
