                              Psi4 1.0.54 Driver

  ==> Input File <==

--------------------------------------------------------------------------
set {
	reference rhf
	basis cc-pvtz
}

set_num_threads( 4 )
memory 2 gb

molecule MOL {
0 1

H	 -2.149496	 -2.244167	 0.000000
O	 -2.454378	 -1.354528	 0.000000
C	 -1.430628	 -0.482077	 0.000000
C	 -1.555715	 0.650496	 -0.791393
C	 -0.288134	 -0.677720	 0.746761
H	 -2.451668	 0.784267	 -1.364457
C	 -0.539240	 1.577367	 -0.830107
H	 -0.178183	 -1.549367	 1.363277
C	 0.728059	 0.266978	 0.696509
H	 -0.643882	 2.450233	 -1.444512
C	 0.614702	 1.397600	 -0.087254
C	 1.919935	 0.054271	 1.481044
H	 1.407316	 2.117281	 -0.115487
N	 2.850563	 -0.115196	 2.095778

	symmetry c1
}
set optking {
	frozen_dihedral = ("
		5 3 2 1
	")
}

ee,wfn = optimize('scf', return_wfn=True)
oeprop( wfn, 'DIPOLE', 'QUADRUPOLE', 'MULLIKEN_CHARGES')
f=open( 'psi4out.xyz', 'w' )
f.write( "14  " )
f.write( str(ee) + "\n" )
f.write( MOL.save_string_xyz() )
f.close()
--------------------------------------------------------------------------

    Molecular point group: c1
  Charge       = 0
  Multiplicity = 1
  Basis Set: CC-PVTZ
  Basis Set:
  @DF-RHF Final Energy:  -397.43090443479787
    Total Energy =                       -397.4309044347976396
    Molecular point group: c1
  Basis Set: CC-PVTZ
  Basis Set:
  Basis Set: CC-PVTZ
  Basis Set:
  @DF-RHF Final Energy:  -397.43106472413371
    Total Energy =                       -397.4310647241336483
  Basis Set: CC-PVTZ
  Basis Set:
  Basis Set: CC-PVTZ
  Basis Set:
  @DF-RHF Final Energy:  -397.43118603123463
    Total Energy =                       -397.4311860312346880
  Basis Set: CC-PVTZ
  Basis Set:
  Basis Set: CC-PVTZ
  Basis Set:
  @DF-RHF Final Energy:  -397.43118899761305
    Total Energy =                       -397.4311889976130487
  Basis Set: CC-PVTZ
  Basis Set:
  Charge       = 0
  Multiplicity = 1
  Basis Set: CC-PVTZ
  Basis Set:

    Orbital Energies (a.u.)
    -----------------------

    Doubly Occupied:

       1A    -20.601394     2A    -15.565598     3A    -11.321568
       4A    -11.292541     5A    -11.269109     6A    -11.261649
       7A    -11.260257     8A    -11.258093     9A    -11.253090
      10A     -1.432223    11A     -1.238619    12A     -1.187264
      13A     -1.066907    14A     -1.042718    15A     -0.897823
      16A     -0.870090    17A     -0.783129    18A     -0.726574
      19A     -0.702717    20A     -0.673159    21A     -0.633551
      22A     -0.626187    23A     -0.579625    24A     -0.565115
      25A     -0.554376    26A     -0.547399    27A     -0.521575
      28A     -0.481246    29A     -0.479311    30A     -0.367659
      31A     -0.347052

  @DF-RHF Final Energy:  -397.43118982530888

   => Energetics <=

    Nuclear Repulsion Energy =            380.3057532053114187
    One-Electron Energy =               -1292.6586485251405065
    Two-Electron Energy =                 514.9217054945199834
    DFT Exchange-Correlation Energy =       0.0000000000000000
    Empirical Dispersion Energy =           0.0000000000000000
    PCM Polarization Energy =               0.0000000000000000
    EFP Energy =                            0.0000000000000000
    Total Energy =                       -397.4311898253090476
    Molecular point group: c1
  Basis Set: CC-PVTZ
  Basis Set:

  -Total Gradient:
     Atom            X                  Y                   Z
    ------   -----------------  -----------------  -----------------
       1       -0.000022949991     0.000001264654    -0.002541438881
       2       -0.000481917077     0.000492634638     0.003946174536
       3        0.001399530344    -0.001436808970    -0.002809236837
       4       -0.000014128372     0.000002973300    -0.000005315455
       5       -0.000904761292     0.000943691093     0.001423249556
       6       -0.000003994721    -0.000003669106     0.000007992520
       7       -0.000050997027    -0.000021933572    -0.000032844384
       8       -0.000006388270    -0.000000401617     0.000003890555
       9        0.000086501923     0.000063105635    -0.000063832112
      10        0.000014101163    -0.000003102289     0.000009701864
      11        0.000005636133    -0.000057506129     0.000079676313
      12        0.000010128399     0.000013435664    -0.000019725775
      13       -0.000003426682     0.000011083998    -0.000003160845
      14       -0.000027334534    -0.000004767303     0.000004868945

  **** Optimization is complete! (in 5 steps) ****
    Final optimized geometry and variables:
    Molecular point group: c1

    Geometry (in Angstrom), charge = 0, multiplicity = 1:

    H           -2.072304827914    -2.346621261321    -0.311625558629
    O           -2.373252836342    -1.455999492623    -0.345248495346
    C           -1.337470647309    -0.586994783723    -0.377896441810
    C           -1.467546643003     0.551527794946    -1.154475522909
    C           -0.202839719409    -0.778023964133     0.383318629625
    H           -2.362250507107     0.685988008959    -1.729392373536
    C           -0.456762835415     1.489095870405    -1.177638843130
    H           -0.106322949757    -1.645458717149     1.007027757387
    C            0.812546742829     0.165393104184     0.338940150420
    H           -0.563947546997     2.368507052994    -1.782068211504
    C            0.694726477580     1.303888192901    -0.436696732917
    C            2.002476716821    -0.045670846577     1.126427194879
    H            1.485092494723     2.026635729824    -0.456306336611
    N            2.932675585037    -0.214207931432     1.742221034407

  Mulliken Charges: (a.u.)
   Center  Symbol    Alpha    Beta     Spin     Total
       1     H     0.38320  0.38320  0.00000  0.23361
       2     O     4.17668  4.17668  0.00000 -0.35335
       3     C     2.85357  2.85357  0.00000  0.29287
       4     C     3.10544  3.10544  0.00000 -0.21088
       5     C     3.13741  3.13741  0.00000 -0.27482
       6     H     0.41228  0.41228  0.00000  0.17543
       7     C     3.05328  3.05328  0.00000 -0.10655
       8     H     0.41660  0.41660  0.00000  0.16681
       9     C     2.92941  2.92941  0.00000  0.14117
      10     H     0.41655  0.41655  0.00000  0.16690
      11     C     3.10108  3.10108  0.00000 -0.20216
      12     C     3.02558  3.02558  0.00000 -0.05116
      13     H     0.41414  0.41414  0.00000  0.17173
      14     N     3.57480  3.57480  0.00000 -0.14959

   Total alpha = 31.00000, Total beta = 31.00000, Total charge =  0.00000

*** Psi4 exiting successfully. Buy a developer a beer!
