                              Psi4 1.0.54 Driver

  ==> Input File <==

--------------------------------------------------------------------------
set {
	reference rhf
	basis cc-pvtz
}

set_num_threads( 4 )
memory 2 gb

molecule MOL {
0 1

O	 0.749630	 1.305591	 -0.000460
C	 0.576499	 0.134701	 -0.003900
C	 -0.765656	 -0.550508	 -0.002152
O	 1.564816	 -0.744612	 -0.000631
C	 -1.945526	 0.411052	 0.000603
H	 -0.794329	 -1.203792	 -0.868145
H	 -0.791555	 -1.205429	 0.862701
C	 -3.282915	 -0.321280	 0.002596
H	 -1.880300	 1.059126	 -0.864925
H	 -1.877207	 1.057892	 0.866807
H	 -3.388495	 -0.952755	 -0.873419
H	 -4.107811	 0.380864	 0.004116
H	 -3.385717	 -0.953283	 0.878571
C	 1.323515	 -1.989806	 0.623290
H	 1.084452	 -1.852840	 1.667389
H	 2.235621	 -2.554880	 0.521099
H	 0.508148	 -2.506809	 0.139632

	symmetry c1
}
set optking {
	frozen_dihedral = ("
		14 4 2 1
	")
}

ee,wfn = optimize('scf', return_wfn=True)
oeprop( wfn, 'DIPOLE', 'QUADRUPOLE', 'MULLIKEN_CHARGES')
f=open( 'psi4out.xyz', 'w' )
f.write( "17  " )
f.write( str(ee) + "\n" )
f.write( MOL.save_string_xyz() )
f.close()
--------------------------------------------------------------------------

    Molecular point group: c1
  Charge       = 0
  Multiplicity = 1
  Basis Set: CC-PVTZ
  Basis Set:
  @DF-RHF Final Energy:  -345.01099314709069
    Total Energy =                       -345.0109931470904030
    Molecular point group: c1
  Basis Set: CC-PVTZ
  Basis Set:
  Basis Set: CC-PVTZ
  Basis Set:
  @DF-RHF Final Energy:  -344.99590126728009
    Total Energy =                       -344.9959012672799190
  Basis Set: CC-PVTZ
  Basis Set:
  Basis Set: CC-PVTZ
  Basis Set:
  @DF-RHF Final Energy:  -345.01725622182272
    Total Energy =                       -345.0172562218223220
  Basis Set: CC-PVTZ
  Basis Set:
  Basis Set: CC-PVTZ
  Basis Set:
  @DF-RHF Final Energy:  -344.99061708471817
    Total Energy =                       -344.9906170847185649
  Basis Set: CC-PVTZ
  Basis Set:
  @DF-RHF Final Energy:  -345.01715623864169
    Total Energy =                       -345.0171562386415758
  @DF-RHF Final Energy:  -345.01919802845799
    Total Energy =                       -345.0191980284575379
  Basis Set: CC-PVTZ
  Basis Set:
  @DF-RHF Final Energy:  -345.01947602372064
    Total Energy =                       -345.0194760237205855
  Basis Set: CC-PVTZ
  Basis Set:
  Basis Set: CC-PVTZ
  Basis Set:
  @DF-RHF Final Energy:  -345.01955650549223
    Total Energy =                       -345.0195565054923463
  Basis Set: CC-PVTZ
  Basis Set:
  Basis Set: CC-PVTZ
  Basis Set:
  @DF-RHF Final Energy:  -345.01955870780586
    Total Energy =                       -345.0195587078061408
  Basis Set: CC-PVTZ
  Basis Set:
  Charge       = 0
  Multiplicity = 1
  Basis Set: CC-PVTZ
  Basis Set:

    Orbital Energies (a.u.)
    -----------------------

    Doubly Occupied:

       1A    -20.591269     2A    -20.532467     3A    -11.366818
       4A    -11.293196     5A    -11.243279     6A    -11.224326
       7A    -11.216827     8A     -1.464957     9A     -1.369013
      10A     -1.083699    11A     -0.989695    12A     -0.968207
      13A     -0.839367    14A     -0.767384    15A     -0.705119
      16A     -0.689133    17A     -0.676567    18A     -0.641843
      19A     -0.607869    20A     -0.580871    21A     -0.571032
      22A     -0.546905    23A     -0.527867    24A     -0.497858
      25A     -0.491816    26A     -0.484428    27A     -0.453792
      28A     -0.435662

  @DF-RHF Final Energy:  -345.01955915795168

   => Energetics <=

    Nuclear Repulsion Energy =            314.4363883403362934
    One-Electron Energy =               -1093.1893582789828088
    Two-Electron Energy =                 433.7334107806948964
    DFT Exchange-Correlation Energy =       0.0000000000000000
    Empirical Dispersion Energy =           0.0000000000000000
    PCM Polarization Energy =               0.0000000000000000
    EFP Energy =                            0.0000000000000000
    Total Energy =                       -345.0195591579516190
    Molecular point group: c1
  Basis Set: CC-PVTZ
  Basis Set:

  -Total Gradient:
     Atom            X                  Y                   Z
    ------   -----------------  -----------------  -----------------
       1        0.000968925494     0.000121583955     0.003101398691
       2       -0.000464089412     0.000470690397    -0.003305335466
       3       -0.000020847439    -0.000014288110    -0.000031998219
       4       -0.002061598454    -0.001726522753    -0.001830114835
       5        0.000004131475     0.000004983773    -0.000003025655
       6       -0.000009992991    -0.000007095515     0.000001195868
       7        0.000016546961    -0.000011715257     0.000032722668
       8       -0.000000551399     0.000010437493     0.000000552678
       9       -0.000011058890     0.000010673049    -0.000017154152
      10        0.000000849699     0.000008876525     0.000014873886
      11       -0.000005574401    -0.000011428396    -0.000017621063
      12       -0.000001598321     0.000000763271     0.000000237380
      13        0.000002480122    -0.000001884348     0.000015792939
      14        0.001592358712     0.001159135317     0.002016031700
      15        0.000001654411    -0.000011234992     0.000055045236
      16        0.000007408037    -0.000004280404    -0.000013445959
      17       -0.000019043604     0.000001306002    -0.000019155695

  **** Optimization is complete! (in 10 steps) ****
    Final optimized geometry and variables:
    Molecular point group: c1

    Geometry (in Angstrom), charge = 0, multiplicity = 1:

    O            0.939970519739     1.475531801577    -0.359077822296
    C            0.736024655192     0.318915695946    -0.268740584256
    C           -0.600816882627    -0.266507378142     0.130557253699
    O            1.715859467532    -0.542402836244    -0.555314364312
    C           -1.693498207572     0.783502860428     0.283251467327
    H           -0.879143973440    -1.005219292678    -0.614941920374
    H           -0.474039143665    -0.812024830853     1.060666638751
    C           -3.029533628284     0.166858330634     0.682880407274
    H           -1.799265099473     1.324967437260    -0.648627535084
    H           -1.384978422295     1.512531930556     1.021572262649
    H           -3.374572566939    -0.546097065608    -0.058947347924
    H           -3.791038744855     0.930490977648     0.784106267257
    H           -2.957122127187    -0.353824255477     1.632356397288
    C            1.810591335685    -1.798628913367     0.068290208775
    H            1.850345323729    -1.698756902832     1.145786706331
    H            2.734953604861    -2.232889582446    -0.276069684140
    H            0.992946265286    -2.452450664706    -0.205195514722

  Mulliken Charges: (a.u.)
   Center  Symbol    Alpha    Beta     Spin     Total
       1     O     4.17616  4.17616  0.00000 -0.35231
       2     C     2.80393  2.80393  0.00000  0.39214
       3     C     3.12771  3.12771  0.00000 -0.25541
       4     O     4.13510  4.13510  0.00000 -0.27020
       5     C     3.08081  3.08081  0.00000 -0.16163
       6     H     0.43878  0.43878  0.00000  0.12244
       7     H     0.44320  0.44320  0.00000  0.11360
       8     C     3.15021  3.15021  0.00000 -0.30043
       9     H     0.44423  0.44423  0.00000  0.11155
      10     H     0.44350  0.44350  0.00000  0.11300
      11     H     0.45618  0.45618  0.00000  0.08764
      12     H     0.44419  0.44419  0.00000  0.11162
      13     H     0.45667  0.45667  0.00000  0.08666
      14     C     3.04631  3.04631  0.00000 -0.09262
      15     H     0.45836  0.45836  0.00000  0.08328
      16     H     0.43391  0.43391  0.00000  0.13218
      17     H     0.46075  0.46075  0.00000  0.07850

   Total alpha = 28.00000, Total beta = 28.00000, Total charge = -0.00000

*** Psi4 exiting successfully. Buy a developer a beer!
