  ==> Input File <==

--------------------------------------------------------------------------
set {
	reference rhf
	basis 6-31G*
}

set_num_threads( 4 )
memory 2 gb

molecule MOL {
0 1

H	 -3.006072	 -2.992348	 0.273062
O	 -2.780768	 -2.138066	 -0.066563
C	 -1.505730	 -1.768689	 0.392163
C	 -1.177863	 -0.397191	 -0.171080
H	 -1.483752	 -1.739786	 1.480735
H	 -0.758163	 -2.492394	 0.070084
C	 0.198102	 0.111031	 0.262842
H	 -1.950906	 0.296881	 0.147351
H	 -1.233421	 -0.450468	 -1.254847
C	 1.331804	 -0.827780	 -0.158768
H	 0.361943	 1.100838	 -0.156218
H	 0.217265	 0.229072	 1.345532
C	 2.723619	 -0.410569	 0.329459
H	 1.342964	 -0.912588	 -1.244120
H	 1.116806	 -1.824343	 0.220779
C	 3.243875	 0.895854	 -0.272975
H	 3.424222	 -1.207124	 0.091250
H	 2.714788	 -0.329854	 1.414619
H	 3.251977	 0.848779	 -1.358681
H	 2.637085	 1.747371	 0.016682
H	 4.259473	 1.094070	 0.055697

	symmetry c1
}
set optking {
	frozen_dihedral = ("
		8 4 7 10
	")
}

ee = optimize('scf')
oeprop('DIPOLE', 'QUADRUPOLE', 'MULLIKEN_CHARGES')
f=open( 'psi4out.xyz', 'w' )
f.write( "21  " )
f.write( str(ee) + "\n" )
f.write( MOL.save_string_xyz() )
f.close()
--------------------------------------------------------------------------

    Molecular point group: c1
  Charge       = 0
  Multiplicity = 1
  Basis Set: 6-31G*
  Basis Set:
  @DF-RHF Final Energy:  -310.20918744943907
    Total Energy =                       -310.2091874494392982
    Molecular point group: c1
  Basis Set: 6-31G*
  Basis Set:
  Basis Set: 6-31G*
  Basis Set:
  @DF-RHF Final Energy:  -310.20996778717529
    Total Energy =                       -310.2099677871754011
  Basis Set: 6-31G*
  Basis Set:
  Basis Set: 6-31G*
  Basis Set:
  @DF-RHF Final Energy:  -310.21073348476682
    Total Energy =                       -310.2107334847667062
  Basis Set: 6-31G*
  Basis Set:
  Basis Set: 6-31G*
  Basis Set:
  @DF-RHF Final Energy:  -310.21076128212286
    Total Energy =                       -310.2107612821229736
  Basis Set: 6-31G*
  Basis Set:
  Basis Set: 6-31G*
  Basis Set:
  @DF-RHF Final Energy:  -310.21078153900720
    Total Energy =                       -310.2107815390071437
  Basis Set: 6-31G*
  Basis Set:
  Basis Set: 6-31G*
  Basis Set:
  @DF-RHF Final Energy:  -310.21079152612407
    Total Energy =                       -310.2107915261244102
  Basis Set: 6-31G*
  Basis Set:
  Basis Set: 6-31G*
  Basis Set:
  @DF-RHF Final Energy:  -310.21079281708018
    Total Energy =                       -310.2107928170800051
  Basis Set: 6-31G*
  Basis Set:
  Charge       = 0
  Multiplicity = 1
  Basis Set: 6-31G*
  Basis Set:

    Orbital Energies (a.u.)
    -----------------------

    Doubly Occupied:

       1A    -20.551458     2A    -11.266319     3A    -11.216568
       4A    -11.215809     5A    -11.215147     6A    -11.210856
       7A    -11.208631     8A     -1.358157     9A     -1.086497
      10A     -1.031955    11A     -0.951407    12A     -0.884062
      13A     -0.811730    14A     -0.770779    15A     -0.695022
      16A     -0.650301    17A     -0.630641    18A     -0.609730
      19A     -0.579898    20A     -0.572491    21A     -0.535163
      22A     -0.525932    23A     -0.514981    24A     -0.487513
      25A     -0.480608    26A     -0.460668    27A     -0.451059
      28A     -0.444863    29A     -0.431565

  @DF-RHF Final Energy:  -310.21079322274863

   => Energetics <=

    Nuclear Repulsion Energy =            315.8143362292798884
    One-Electron Energy =               -1046.3506435219883315
    Two-Electron Energy =                 420.3255140699598087
    DFT Exchange-Correlation Energy =       0.0000000000000000
    Empirical Dispersion Energy =           0.0000000000000000
    PCM Polarization Energy =               0.0000000000000000
    EFP Energy =                            0.0000000000000000
    Total Energy =                       -310.2107932227486344
    Molecular point group: c1
  Basis Set: 6-31G*
  Basis Set:

  -Total Gradient:
     Atom            X                  Y                   Z
    ------   -----------------  -----------------  -----------------
       1        0.000004341511    -0.000000123779     0.000001376244
       2        0.000010067579     0.000000852756    -0.000004748586
       3       -0.000006363616     0.000011515428     0.000006267966
       4        0.000117320993     0.000615459118    -0.000925617214
       5        0.000001757264    -0.000001979804    -0.000000522619
       6       -0.000005055891     0.000001465437    -0.000004005357
       7        0.000112065272     0.000525363836    -0.000838928934
       8       -0.000156602614    -0.000661718881     0.001012312882
       9        0.000003451352    -0.000001083555     0.000003302424
      10       -0.000102527755    -0.000479171244     0.000740611409
      11       -0.000004726000    -0.000002907820     0.000002881526
      12       -0.000000487658    -0.000004998854    -0.000001798067
      13        0.000009387960    -0.000000978785     0.000009192703
      14        0.000000024633    -0.000008124449     0.000004492447
      15       -0.000013340513     0.000003478109    -0.000000903666
      16        0.000005490312    -0.000004846087    -0.000002840056
      17        0.000022312778     0.000015470493     0.000003019738
      18       -0.000001929354    -0.000007424831    -0.000001532966
      19       -0.000004646462    -0.000000921115     0.000000318907
      20        0.000008325819    -0.000002532030     0.000000065672
      21        0.000001134392     0.000003206056    -0.000002944454

  **** Optimization is complete! (in 8 steps) ****
    Final optimized geometry and variables:
    Molecular point group: c1

    Geometry (in Angstrom), charge = 0, multiplicity = 1:

    H           -3.409008284987    -2.204550911458     0.143272384096
    O           -3.129867920350    -1.338504647078    -0.117391342471
    C           -1.797844726529    -1.132426153838     0.280437308093
    C           -1.379873265905     0.246849666813    -0.204494017901
    H           -1.709070775725    -1.187086986321     1.365264419010
    H           -1.156606185353    -1.902988660195    -0.139971420530
    C           -0.003055809877     0.707805772870     0.287148980270
    H           -2.134120477176     0.946815494480     0.142577419103
    H           -1.415796612426     0.257580315513    -1.290484571476
    C            1.165318612059    -0.192001734771    -0.131113956451
    H            0.160442128873     1.714881452522    -0.083642239123
    H           -0.017223824668     0.784773533989     1.373654558374
    C            2.544133621842     0.322771332379     0.301224201102
    H            1.154161106520    -0.320643923835    -1.212737598432
    H            1.027805062772    -1.182810503826     0.293706851475
    C            2.997630839949     1.602607379393    -0.403667938416
    H            3.277471049155    -0.456581249233     0.109060425096
    H            2.546997687000     0.481682121861     1.377790197242
    H            2.997271357128     1.473960841053    -1.482702630741
    H            2.357192130254     2.446565471103    -0.170887413036
    H            4.006600441829     1.869105811370    -0.104160600593

  Mulliken Charges: (a.u.)
   Center  Symbol    Alpha    Beta     Spin     Total
       1     H     0.28133  0.28133  0.00000  0.43734
       2     O     4.37223  4.37223  0.00000 -0.74447
       3     C     2.99235  2.99235  0.00000  0.01529
       4     C     3.15943  3.15943  0.00000 -0.31886
       5     H     0.43337  0.43337  0.00000  0.13326
       6     H     0.43066  0.43066  0.00000  0.13869
       7     C     3.16253  3.16253  0.00000 -0.32507
       8     H     0.41187  0.41187  0.00000  0.17626
       9     H     0.41602  0.41602  0.00000  0.16796
      10     C     3.15571  3.15571  0.00000 -0.31142
      11     H     0.41677  0.41677  0.00000  0.16647
      12     H     0.42379  0.42379  0.00000  0.15242
      13     C     3.15220  3.15220  0.00000 -0.30439
      14     H     0.42316  0.42316  0.00000  0.15369
      15     H     0.42245  0.42245  0.00000  0.15510
      16     C     3.24123  3.24123  0.00000 -0.48247
      17     H     0.42091  0.42091  0.00000  0.15819
      18     H     0.42331  0.42331  0.00000  0.15338
      19     H     0.42181  0.42181  0.00000  0.15638
      20     H     0.41981  0.41981  0.00000  0.16038
      21     H     0.41906  0.41906  0.00000  0.16187

   Total alpha = 29.00000, Total beta = 29.00000, Total charge =  0.00000
