  ==> Input File <==

--------------------------------------------------------------------------
set {
	reference rhf
	basis 6-31G*
}

set_num_threads( 4 )
memory 2 gb

molecule MOL {
0 1

H	 -3.821479	 -2.257419	 -0.476214
C	 -2.750423	 -2.160622	 -0.492132
C	 -1.976496	 -3.142057	 -1.092939
C	 -2.148422	 -1.055203	 0.088020
H	 -2.444639	 -3.998852	 -1.542507
C	 -0.599392	 -3.016895	 -1.113010
H	 -2.749979	 -0.295429	 0.553293
C	 -0.770095	 -0.927805	 0.069123
H	 0.015245	 -3.766495	 -1.573438
C	 0.008360	 -1.909706	 -0.532243
H	 -0.300019	 -0.074058	 0.516857
C	 1.495195	 -1.822355	 -0.580700
O	 1.970282	 -0.730723	 0.000018
O	 2.194002	 -2.643582	 -1.086777
C	 3.377318	 -0.566646	 -0.000065
H	 3.695437	 -0.028981	 -0.881264
H	 3.789299	 -1.563704	 0.000236
H	 3.695516	 -0.028316	 0.880770

	symmetry c1
}
set optking {
	frozen_dihedral = ("
		12 13 15 16
	")
}

ee = optimize('scf')
oeprop('DIPOLE', 'QUADRUPOLE', 'MULLIKEN_CHARGES')
f=open( 'psi4out.xyz', 'w' )
f.write( "18  " )
f.write( str(ee) + "\n" )
f.write( MOL.save_string_xyz() )
f.close()
--------------------------------------------------------------------------

    Molecular point group: c1
  Charge       = 0
  Multiplicity = 1
  Basis Set: 6-31G*
  Basis Set:
  @DF-RHF Final Energy:  -457.34758249598070
    Total Energy =                       -457.3475824959803049
    Molecular point group: c1
  Basis Set: 6-31G*
  Basis Set:
  Basis Set: 6-31G*
  Basis Set:
  @DF-RHF Final Energy:  -457.34885455971875
    Total Energy =                       -457.3488545597188022
  Basis Set: 6-31G*
  Basis Set:
  Basis Set: 6-31G*
  Basis Set:
  @DF-RHF Final Energy:  -457.34942284358647
    Total Energy =                       -457.3494228435861260
  Basis Set: 6-31G*
  Basis Set:
  Basis Set: 6-31G*
  Basis Set:
  @DF-RHF Final Energy:  -457.34927576906188
    Total Energy =                       -457.3492757690619328
  Basis Set: 6-31G*
  Basis Set:
  Basis Set: 6-31G*
  Basis Set:
  @DF-RHF Final Energy:  -457.34954155288972
    Total Energy =                       -457.3495415528896046
  Basis Set: 6-31G*
  Basis Set:
  Charge       = 0
  Multiplicity = 1
  Basis Set: 6-31G*
  Basis Set:

    Orbital Energies (a.u.)
    -----------------------

    Doubly Occupied:

       1A    -20.607220     2A    -20.543975     3A    -11.378631
       4A    -11.282319     5A    -11.245316     6A    -11.245068
       7A    -11.243870     8A    -11.241435     9A    -11.237233
      10A    -11.236466    11A     -1.471456    12A     -1.364180
      13A     -1.165000    14A     -1.047932    15A     -1.024552
      16A     -0.978869    17A     -0.859931    18A     -0.834050
      19A     -0.777312    20A     -0.739875    21A     -0.683597
      22A     -0.676226    23A     -0.671724    24A     -0.631137
      25A     -0.623723    26A     -0.597535    27A     -0.584775
      28A     -0.564494    29A     -0.526577    30A     -0.516417
      31A     -0.503619    32A     -0.498533    33A     -0.457557
      34A     -0.444245    35A     -0.344695    36A     -0.340729

  @DF-RHF Final Energy:  -457.34954404077774

   => Energetics <=

    Nuclear Repulsion Energy =            492.7630848434209270
    One-Electron Energy =               -1599.8447114091268304
    Two-Electron Energy =                 649.7320825249283871
    DFT Exchange-Correlation Energy =       0.0000000000000000
    Empirical Dispersion Energy =           0.0000000000000000
    PCM Polarization Energy =               0.0000000000000000
    EFP Energy =                            0.0000000000000000
    Total Energy =                       -457.3495440407774595
    Molecular point group: c1
  Basis Set: 6-31G*
  Basis Set:

  -Total Gradient:
     Atom            X                  Y                   Z
    ------   -----------------  -----------------  -----------------
       1       -0.000000814087     0.000000527664     0.000000686489
       2       -0.000002544704    -0.000000573868    -0.000000735435
       3       -0.000008361205     0.000002001127     0.000004298378
       4       -0.000005754743    -0.000002867268    -0.000003878866
       5       -0.000001803131    -0.000000090427     0.000000794445
       6        0.000002804358     0.000001065784     0.000001305051
       7       -0.000003472410    -0.000000056691    -0.000000769245
       8       -0.000011120843     0.000004574507     0.000003759957
       9       -0.000002206179     0.000003708203     0.000000649729
      10       -0.000030831959     0.000014759659    -0.000012049867
      11       -0.000006609835    -0.000009166132    -0.000003951150
      12        0.000078114049    -0.000765183697     0.001341723336
      13       -0.000021865770     0.001460488148    -0.001686828585
      14        0.000041584444     0.000085333176     0.000021017743
      15        0.000219530172    -0.002242209343    -0.000476140847
      16       -0.000240613178     0.001486121691     0.000815874045
      17        0.000037736806    -0.000033297145     0.000000216523
      18       -0.000043771792    -0.000005135389    -0.000005971701

  **** Optimization is complete! (in 6 steps) ****
    Final optimized geometry and variables:
    Molecular point group: c1

    Geometry (in Angstrom), charge = 0, multiplicity = 1:

    H           -4.029342758096    -0.465130830523     0.018970815441
    C           -2.957981866195    -0.373978884766    -0.005341505093
    C           -2.194101842403    -1.357458820087    -0.615611816574
    C           -2.345437030763     0.726345804055     0.573344366487
    H           -2.670326538189    -2.210319757571    -1.064265561422
    C           -0.816626121403    -1.239382546959    -0.646653600368
    H           -2.939180731160     1.487798522226     1.045836686382
    C           -0.966621564307     0.846468009305     0.543675768699
    H           -0.209963422908    -1.990678514083    -1.114680521124
    C           -0.198054793734    -0.137501010140    -0.067066543539
    H           -0.488811401759     1.696508341241     0.990041193177
    C            1.289500498865    -0.059064548392    -0.127556633932
    O            1.770425309206     1.033247973447     0.447697413976
    O            1.976061038646    -0.886850895125    -0.639476863626
    C            3.176681481946     1.204995075325     0.484593460901
    H            3.500610229003     1.735871767070    -0.400445210337
    H            3.680292632097     0.254868619344     0.551202487019
    H            3.381925366061     1.806279646919     1.357403732629

  Mulliken Charges: (a.u.)
   Center  Symbol    Alpha    Beta     Spin     Total
       1     H     0.39544  0.39544  0.00000  0.20912
       2     C     3.09000  3.09000  0.00000 -0.18000
       3     C     3.10707  3.10707  0.00000 -0.21414
       4     C     3.10712  3.10712  0.00000 -0.21425
       5     H     0.39543  0.39543  0.00000  0.20914
       6     C     3.08649  3.08649  0.00000 -0.17298
       7     H     0.39634  0.39634  0.00000  0.20733
       8     C     3.08705  3.08705  0.00000 -0.17411
       9     H     0.37595  0.37595  0.00000  0.24809
      10     C     3.07745  3.07745  0.00000 -0.15491
      11     H     0.38056  0.38056  0.00000  0.23887
      12     C     2.57951  2.57951  0.00000  0.84098
      13     O     4.31569  4.31569  0.00000 -0.63138
      14     O     4.29160  4.29160  0.00000 -0.58320
      15     C     3.09504  3.09504  0.00000 -0.19009
      16     H     0.41168  0.41168  0.00000  0.17665
      17     H     0.39825  0.39825  0.00000  0.20350
      18     H     0.40932  0.40932  0.00000  0.18137

   Total alpha = 36.00000, Total beta = 36.00000, Total charge =  0.00000
