                              Psi4 1.0.54 Driver

  ==> Input File <==

--------------------------------------------------------------------------
set {
	reference rhf
	basis cc-pvtz
}

set_num_threads( 4 )
memory 2 gb

molecule MOL {
0 1

O	 1.882353	 1.677479	 0.937703
C	 0.869423	 1.398533	 0.362481
C	 -0.196803	 2.453778	 0.151646
N	 0.622280	 0.144970	 -0.099307
H	 -1.134411	 2.164213	 0.609236
H	 0.156039	 3.363884	 0.607390
H	 -0.376184	 2.628418	 -0.902060
C	 1.664396	 -0.854993	 0.000772
C	 -0.470382	 -0.188670	 -0.981649
H	 2.462727	 -0.615153	 -0.690869
H	 1.261798	 -1.821849	 -0.240651
H	 2.081615	 -0.891605	 1.003877
H	 -0.802343	 -1.197216	 -0.771239
H	 -1.312095	 0.467171	 -0.839210
H	 -0.174881	 -0.146957	 -2.027586

	symmetry c1
}
set optking {
	frozen_dihedral = ("
		2 4 8 10
	")
}

ee,wfn = optimize('scf', return_wfn=True)
oeprop( wfn, 'DIPOLE', 'QUADRUPOLE', 'MULLIKEN_CHARGES')
f=open( 'psi4out.xyz', 'w' )
f.write( "15  " )
f.write( str(ee) + "\n" )
f.write( MOL.save_string_xyz() )
f.close()
--------------------------------------------------------------------------

    Molecular point group: c1
  Charge       = 0
  Multiplicity = 1
  Basis Set: CC-PVTZ
  Basis Set:
  @DF-RHF Final Energy:  -286.13452022793234
    Total Energy =                       -286.1345202279323416
    Molecular point group: c1
  Basis Set: CC-PVTZ
  Basis Set:
  Basis Set: CC-PVTZ
  Basis Set:
  @DF-RHF Final Energy:  -286.13506144800920
    Total Energy =                       -286.1350614480091963
  Basis Set: CC-PVTZ
  Basis Set:
  Basis Set: CC-PVTZ
  Basis Set:
  @DF-RHF Final Energy:  -286.13507916305059
    Total Energy =                       -286.1350791630504773
  Basis Set: CC-PVTZ
  Basis Set:
  Basis Set: CC-PVTZ
  Basis Set:
  @DF-RHF Final Energy:  -286.13521911006762
    Total Energy =                       -286.1352191100679079
  Basis Set: CC-PVTZ
  Basis Set:
  Basis Set: CC-PVTZ
  Basis Set:
  @DF-RHF Final Energy:  -286.13524904531994
    Total Energy =                       -286.1352490453201654
  Basis Set: CC-PVTZ
  Basis Set:
  Basis Set: CC-PVTZ
  Basis Set:
  @DF-RHF Final Energy:  -286.13525377622881
    Total Energy =                       -286.1352537762290922
  Basis Set: CC-PVTZ
  Basis Set:
  Basis Set: CC-PVTZ
  Basis Set:
  @DF-RHF Final Energy:  -286.13525704391554
    Total Energy =                       -286.1352570439154306
  Basis Set: CC-PVTZ
  Basis Set:
  Charge       = 0
  Multiplicity = 1
  Basis Set: CC-PVTZ
  Basis Set:

    Orbital Energies (a.u.)
    -----------------------

    Doubly Occupied:

       1A    -20.504817     2A    -15.577465     3A    -11.333495
       4A    -11.264189     5A    -11.246887     6A    -11.226600
       7A     -1.388315     8A     -1.244701     9A     -1.014714
      10A     -0.973540    11A     -0.919422    12A     -0.738430
      13A     -0.682200    14A     -0.660563    15A     -0.653696
      16A     -0.589094    17A     -0.577705    18A     -0.569918
      19A     -0.564551    20A     -0.547160    21A     -0.530846
      22A     -0.503301    23A     -0.414773    24A     -0.371159

  @DF-RHF Final Energy:  -286.13525742143980

   => Energetics <=

    Nuclear Repulsion Energy =            253.1157797176624058
    One-Electron Energy =                -890.3069963373269502
    Two-Electron Energy =                 351.0559591982247412
    DFT Exchange-Correlation Energy =       0.0000000000000000
    Empirical Dispersion Energy =           0.0000000000000000
    PCM Polarization Energy =               0.0000000000000000
    EFP Energy =                            0.0000000000000000
    Total Energy =                       -286.1352574214398601
    Molecular point group: c1
  Basis Set: CC-PVTZ
  Basis Set:

  -Total Gradient:
     Atom            X                  Y                   Z
    ------   -----------------  -----------------  -----------------
       1       -0.000007476244    -0.000029766167    -0.000005911758
       2        0.000211077753     0.000205590176    -0.000671342996
       3       -0.000008306187    -0.000026564530     0.000003225654
       4       -0.000182720600    -0.000081704422     0.001098402287
       5       -0.000009773083    -0.000001635929    -0.000002227254
       6        0.000002212226    -0.000005758075    -0.000002041471
       7       -0.000002557123     0.000000307363    -0.000009948207
       8       -0.000466089140    -0.000586240251    -0.001018452583
       9        0.000036518842     0.000011158618     0.000051712872
      10        0.000431504568     0.000522060290     0.000571575608
      11        0.000003863313    -0.000001565753    -0.000001126932
      12        0.000013648978    -0.000010952803     0.000004948260
      13       -0.000012791188    -0.000003534859     0.000001763048
      14       -0.000009596580     0.000015065958    -0.000012940035
      15        0.000000484466    -0.000006459615    -0.000007636492

  **** Optimization is complete! (in 8 steps) ****
    Final optimized geometry and variables:
    Molecular point group: c1

    Geometry (in Angstrom), charge = 0, multiplicity = 1:

    O            1.208505401951     0.919833602350     0.761283618080
    C            0.147735678945     0.636567998957     0.282689597897
    C           -0.927730062731     1.691227942906     0.129880709491
    N           -0.132384317658    -0.632359111149    -0.112527902286
    H           -1.843735614947     1.399712441030     0.627729026845
    H           -0.553787394197     2.600426525488     0.570686981002
    H           -1.153820087126     1.870151727741    -0.914356463046
    C            0.954415031390    -1.591381960249    -0.056897341481
    C           -1.251743009713    -0.980294144853    -0.956632750759
    H            1.709545526996    -1.389786418091    -0.809978160587
    H            0.554712128494    -2.582811679124    -0.215776852550
    H            1.433282942519    -1.553709126242     0.908019780772
    H           -1.601402716393    -1.971729544302    -0.700846090863
    H           -2.074384215823    -0.299853253378    -0.817807368147
    H           -0.983381406916    -0.980769140500    -2.010767028928

  Mulliken Charges: (a.u.)
   Center  Symbol    Alpha    Beta     Spin     Total
       1     O     4.21900  4.21900  0.00000 -0.43800
       2     C     2.84500  2.84500  0.00000  0.31001
       3     C     3.16029  3.16029  0.00000 -0.32058
       4     N     3.56443  3.56443  0.00000 -0.12886
       5     H     0.44882  0.44882  0.00000  0.10236
       6     H     0.42882  0.42882  0.00000  0.14236
       7     H     0.44901  0.44901  0.00000  0.10197
       8     C     3.09177  3.09177  0.00000 -0.18355
       9     C     3.09674  3.09674  0.00000 -0.19348
      10     H     0.45342  0.45342  0.00000  0.09317
      11     H     0.45770  0.45770  0.00000  0.08460
      12     H     0.43532  0.43532  0.00000  0.12936
      13     H     0.44846  0.44846  0.00000  0.10309
      14     H     0.44568  0.44568  0.00000  0.10864
      15     H     0.45555  0.45555  0.00000  0.08891

   Total alpha = 24.00000, Total beta = 24.00000, Total charge = -0.00000

*** Psi4 exiting successfully. Buy a developer a beer!
