                              Psi4 1.0.54 Driver

  ==> Input File <==

--------------------------------------------------------------------------
set {
	reference rhf
	basis cc-pvtz
}

set_num_threads( 4 )
memory 2 gb

molecule MOL {
0 1

H	 1.243329	 -2.262632	 -0.354208
C	 0.281054	 -1.784486	 -0.426566
O	 0.462329	 -0.453336	 -0.000137
H	 -0.423506	 -2.305156	 0.209608
H	 -0.058318	 -1.821958	 -1.454020
C	 -0.590565	 0.341382	 0.000062
O	 -1.693898	 -0.053880	 0.000252
H	 -0.340426	 1.403822	 0.000200

	symmetry c1
}
set optking {
	frozen_dihedral = ("
		2 3 6 7
	")
}

ee,wfn = optimize('scf', return_wfn=True)
oeprop( wfn, 'DIPOLE', 'QUADRUPOLE', 'MULLIKEN_CHARGES')
f=open( 'psi4out.xyz', 'w' )
f.write( "8  " )
f.write( str(ee) + "\n" )
f.write( MOL.save_string_xyz() )
f.close()
--------------------------------------------------------------------------

    Molecular point group: c1
  Charge       = 0
  Multiplicity = 1
  Basis Set: CC-PVTZ
  Basis Set:
  @DF-RHF Final Energy:  -227.87519576871318
    Total Energy =                       -227.8751957687132119
    Molecular point group: c1
  Basis Set: CC-PVTZ
  Basis Set:
  Basis Set: CC-PVTZ
  Basis Set:
  @DF-RHF Final Energy:  -227.87178897948468
    Total Energy =                       -227.8717889794847622
  Basis Set: CC-PVTZ
  Basis Set:
  Basis Set: CC-PVTZ
  Basis Set:
  @DF-RHF Final Energy:  -227.87458351594688
    Total Energy =                       -227.8745835159468527
  Basis Set: CC-PVTZ
  Basis Set:
  Basis Set: CC-PVTZ
  Basis Set:
  @DF-RHF Final Energy:  -227.87643112852444
    Total Energy =                       -227.8764311285245867
  Basis Set: CC-PVTZ
  Basis Set:
  Basis Set: CC-PVTZ
  Basis Set:
  @DF-RHF Final Energy:  -227.87646241964154
    Total Energy =                       -227.8764624196415411
  Basis Set: CC-PVTZ
  Basis Set:
  Basis Set: CC-PVTZ
  Basis Set:
  @DF-RHF Final Energy:  -227.87647651259394
    Total Energy =                       -227.8764765125940244
  Basis Set: CC-PVTZ
  Basis Set:
  Charge       = 0
  Multiplicity = 1
  Basis Set: CC-PVTZ
  Basis Set:

    Orbital Energies (a.u.)
    -----------------------

    Doubly Occupied:

       1A    -20.607805     2A    -20.549693     3A    -11.372784
       4A    -11.288033     5A     -1.481341     6A     -1.380354
       7A     -0.998215     8A     -0.820526     9A     -0.747435
      10A     -0.685733    11A     -0.682562    12A     -0.604725
      13A     -0.560373    14A     -0.534306    15A     -0.470142
      16A     -0.461464

  @DF-RHF Final Energy:  -227.87647684670887

   => Energetics <=

    Nuclear Repulsion Energy =            123.8270107126199093
    One-Electron Energy =                -556.9159924919184732
    Two-Electron Energy =                 205.2125049325895816
    DFT Exchange-Correlation Energy =       0.0000000000000000
    Empirical Dispersion Energy =           0.0000000000000000
    PCM Polarization Energy =               0.0000000000000000
    EFP Energy =                            0.0000000000000000
    Total Energy =                       -227.8764768467090107
    Molecular point group: c1
  Basis Set: CC-PVTZ
  Basis Set:

  -Total Gradient:
     Atom            X                  Y                   Z
    ------   -----------------  -----------------  -----------------
       1       -0.000001292286    -0.000023251989    -0.000016664544
       2        0.001739221225     0.001671057963    -0.004707652725
       3       -0.003025085161    -0.002650112187     0.010752497419
       4       -0.000001784137    -0.000002638544    -0.000012423871
       5       -0.000001844795     0.000007951271    -0.000009893378
       6        0.002116888237     0.001181559873    -0.012996365683
       7       -0.000821214670    -0.000221131254     0.006980430282
       8       -0.000004888412     0.000036564868     0.000010072500

  **** Optimization is complete! (in 7 steps) ****
    Final optimized geometry and variables:
    Molecular point group: c1

    Geometry (in Angstrom), charge = 0, multiplicity = 1:

    H            1.707676724446    -1.696997429822    -0.191688226966
    C            0.722680321064    -1.268487733509    -0.273539863358
    O            0.829059018394     0.054915284663     0.222523658547
    H            0.016807327507    -1.841369450034     0.308528963952
    H            0.405884358790    -1.255530209479    -1.306223500054
    C           -0.229159818529     0.827703699983     0.113501667444
    O           -1.336694408500     0.460130492201    -0.043129368389
    H            0.049909536599     1.868086824700     0.247812576623

  Mulliken Charges: (a.u.)
   Center  Symbol    Alpha    Beta     Spin     Total
       1     H     0.44427  0.44427  0.00000  0.11146
       2     C     3.02748  3.02748  0.00000 -0.05495
       3     O     4.14182  4.14182  0.00000 -0.28363
       4     H     0.45058  0.45058  0.00000  0.09883
       5     H     0.45683  0.45683  0.00000  0.08634
       6     C     2.83698  2.83698  0.00000  0.32605
       7     O     4.19183  4.19183  0.00000 -0.38367
       8     H     0.45022  0.45022  0.00000  0.09957

   Total alpha = 16.00000, Total beta = 16.00000, Total charge = -0.00000

*** Psi4 exiting successfully. Buy a developer a beer!
