  ==> Input File <==

--------------------------------------------------------------------------
set {
	reference rhf
	basis 6-31G*
}

set_num_threads( 4 )
memory 2 gb

molecule MOL {
0 1

O	 -0.495907	 0.104786	 0.667748
C	 0.486307	 0.169203	 0.000779
C	 1.608116	 -0.841643	 0.000302
O	 0.730282	 1.159628	 -0.846064
C	 2.990107	 -0.200498	 -0.000684
H	 1.468623	 -1.481519	 -0.865924
H	 1.469683	 -1.481289	 0.866878
H	 3.129736	 0.423364	 -0.875135
H	 3.757882	 -0.966877	 -0.001197
H	 3.130964	 0.423383	 0.873533
C	 -0.245648	 2.191138	 -0.950698
C	 0.259653	 3.192486	 -1.967696
H	 -0.385159	 2.644332	 0.021278
H	 -1.188248	 1.755427	 -1.252779
H	 1.206866	 3.615626	 -1.653213
H	 -0.457077	 3.999675	 -2.079010
H	 0.399360	 2.721965	 -2.934313

	symmetry c1
}
set optking {
	frozen_dihedral = ("
		4 2 3 6
	")
}

ee = optimize('scf')
oeprop('DIPOLE', 'QUADRUPOLE', 'MULLIKEN_CHARGES')
f=open( 'psi4out.xyz', 'w' )
f.write( "17  " )
f.write( str(ee) + "\n" )
f.write( MOL.save_string_xyz() )
f.close()
--------------------------------------------------------------------------

    Molecular point group: c1
  Charge       = 0
  Multiplicity = 1
  Basis Set: 6-31G*
  Basis Set:
  @DF-RHF Final Energy:  -344.90974605880757
    Total Energy =                       -344.9097460588074000
    Molecular point group: c1
  Basis Set: 6-31G*
  Basis Set:
  Basis Set: 6-31G*
  Basis Set:
  @DF-RHF Final Energy:  -344.90976450405213
    Total Energy =                       -344.9097645040526459
  Basis Set: 6-31G*
  Basis Set:
  Basis Set: 6-31G*
  Basis Set:
  @DF-RHF Final Energy:  -344.91007260766753
    Total Energy =                       -344.9100726076678143
  Basis Set: 6-31G*
  Basis Set:
  Basis Set: 6-31G*
  Basis Set:
  @DF-RHF Final Energy:  -344.91015251295124
    Total Energy =                       -344.9101525129512424
  Basis Set: 6-31G*
  Basis Set:
  Basis Set: 6-31G*
  Basis Set:
  @DF-RHF Final Energy:  -344.91015283097653
    Total Energy =                       -344.9101528309766422
  Basis Set: 6-31G*
  Basis Set:
  Charge       = 0
  Multiplicity = 1
  Basis Set: 6-31G*
  Basis Set:

    Orbital Energies (a.u.)
    -----------------------

    Doubly Occupied:

       1A    -20.602225     2A    -20.541886     3A    -11.370836
       4A    -11.285231     5A    -11.237250     6A    -11.222858
       7A    -11.222770     8A     -1.467678     9A     -1.360493
      10A     -1.072664    11A     -1.030181    12A     -0.906170
      13A     -0.859100    14A     -0.777937    15A     -0.691200
      16A     -0.677667    17A     -0.672202    18A     -0.624974
      19A     -0.584505    20A     -0.572691    21A     -0.552845
      22A     -0.545528    23A     -0.524410    24A     -0.511896
      25A     -0.504741    26A     -0.492858    27A     -0.451918
      28A     -0.431030

  @DF-RHF Final Energy:  -344.91015393401659

   => Energetics <=

    Nuclear Repulsion Energy =            317.3716360896923447
    One-Electron Energy =               -1098.9720900209149477
    Two-Electron Energy =                 436.6902999972061821
    DFT Exchange-Correlation Energy =       0.0000000000000000
    Empirical Dispersion Energy =           0.0000000000000000
    PCM Polarization Energy =               0.0000000000000000
    EFP Energy =                            0.0000000000000000
    Total Energy =                       -344.9101539340163640
    Molecular point group: c1
  Basis Set: 6-31G*
  Basis Set:

  -Total Gradient:
     Atom            X                  Y                   Z
    ------   -----------------  -----------------  -----------------
       1        0.000021481559     0.000021550221    -0.000006299082
       2       -0.000479943701    -0.000547677146    -0.000436356352
       3        0.000571988893     0.000650260690    -0.000328054946
       4        0.000244987935     0.000328079324     0.000371019284
       5        0.000002853817    -0.000013823929     0.000011784908
       6       -0.000389338827    -0.000431757771     0.000386434820
       7        0.000003619285    -0.000011870260    -0.000004301804
       8       -0.000002824035     0.000001188812     0.000004463128
       9        0.000010561684     0.000000086319    -0.000002427445
      10       -0.000004922646    -0.000001696383    -0.000007050318
      11        0.000027893977     0.000000339633     0.000020621106
      12       -0.000001401720     0.000007653877    -0.000000328567
      13       -0.000017517808     0.000002417530     0.000003826742
      14        0.000010657078    -0.000002623880    -0.000008023912
      15       -0.000000736105    -0.000002971605     0.000000141508
      16        0.000001286765    -0.000000956717     0.000000449588
      17        0.000001353849     0.000001801285    -0.000005898664

  **** Optimization is complete! (in 6 steps) ****
    Final optimized geometry and variables:
    Molecular point group: c1

    Geometry (in Angstrom), charge = 0, multiplicity = 1:

    O           -1.254575041211    -0.742233672913     1.101984710452
    C           -0.262791967058    -0.659225747050     0.450617562514
    C            0.851651958950    -1.679813386460     0.465258971714
    O           -0.029059581072     0.335921907467    -0.392692402376
    C            2.261526513735    -1.088424457037     0.447238825591
    H            0.704421942337    -2.318526162355    -0.402279046797
    H            0.694838881521    -2.295671108668     1.341051182023
    H            2.436377940285    -0.514025223470    -0.452999942175
    H            2.996549062112    -1.884640640167     0.492558162145
    H            2.424559168821    -0.437402453397     1.299956320920
    C           -1.026786460078     1.345016813314    -0.511864124393
    C           -0.524340434738     2.364298707327    -1.512286677943
    H           -1.197330146228     1.787888532244     0.459682459392
    H           -1.951823492010     0.888279443512    -0.836145358386
    H            0.405601045612     2.808150080245    -1.175395083121
    H           -1.257736211587     3.154838222286    -1.633951279412
    H           -0.353306826099     1.903609234793    -2.478625296610

  Mulliken Charges: (a.u.)
   Center  Symbol    Alpha    Beta     Spin     Total
       1     O     4.28773  4.28773  0.00000 -0.57546
       2     C     2.60831  2.60831  0.00000  0.78338
       3     C     3.20244  3.20244  0.00000 -0.40488
       4     O     4.30962  4.30962  0.00000 -0.61925
       5     C     3.24470  3.24470  0.00000 -0.48940
       6     H     0.40210  0.40210  0.00000  0.19580
       7     H     0.39753  0.39753  0.00000  0.20494
       8     H     0.40680  0.40680  0.00000  0.18641
       9     H     0.41479  0.41479  0.00000  0.17042
      10     H     0.41528  0.41528  0.00000  0.16944
      11     C     3.00222  3.00222  0.00000 -0.00445
      12     C     3.24884  3.24884  0.00000 -0.49769
      13     H     0.40956  0.40956  0.00000  0.18088
      14     H     0.41011  0.41011  0.00000  0.17977
      15     H     0.41192  0.41192  0.00000  0.17615
      16     H     0.41605  0.41605  0.00000  0.16789
      17     H     0.41198  0.41198  0.00000  0.17604

   Total alpha = 28.00000, Total beta = 28.00000, Total charge =  0.00000
