  ==> Input File <==

--------------------------------------------------------------------------
set {
	reference rhf
	basis 6-31G*
}

set_num_threads( 4 )
memory 2 gb

molecule MOL {
0 1

H	 -2.644160	 0.037386	 0.290061
C	 -1.656947	 -0.409750	 0.300221
C	 -0.603454	 0.661669	 0.000000
H	 -1.630871	 -1.198272	 -0.442069
H	 -1.492352	 -0.853437	 1.274639
C	 0.763625	 0.112519	 0.000000
H	 -0.780661	 1.113028	 -0.969248
H	 -0.643020	 1.455678	 0.736582
N	 1.813038	 -0.320305	 0.000000

	symmetry c1
}
set optking {
	frozen_dihedral = ("
		7 3 6 9
	")
}

ee = optimize('scf')
oeprop('DIPOLE', 'QUADRUPOLE', 'MULLIKEN_CHARGES')
f=open( 'psi4out.xyz', 'w' )
f.write( "9  " )
f.write( str(ee) + "\n" )
f.write( MOL.save_string_xyz() )
f.close()
--------------------------------------------------------------------------

    Molecular point group: c1
  Charge       = 0
  Multiplicity = 1
  Basis Set: 6-31G*
  Basis Set:
  @DF-RHF Final Energy:  -170.96243215600774
    Total Energy =                       -170.9624321560077078
    Molecular point group: c1
  Basis Set: 6-31G*
  Basis Set:
  Basis Set: 6-31G*
  Basis Set:
  @DF-RHF Final Energy:  -170.91932415511525
    Total Energy =                       -170.9193241551151914
  Basis Set: 6-31G*
  Basis Set:
  Basis Set: 6-31G*
  Basis Set:
  @DF-RHF Final Energy:  -170.94987894739816
    Total Energy =                       -170.9498789473980480
  Basis Set: 6-31G*
  Basis Set:
  Basis Set: 6-31G*
  Basis Set:
  @DF-RHF Final Energy:  -170.96210505443929
    Total Energy =                       -170.9621050544392915
  Basis Set: 6-31G*
  Basis Set:
  @DF-RHF Final Energy:  -170.96175754391595
    Total Energy =                       -170.9617575439160078
  @DF-RHF Final Energy:  -170.96197243703779
    Total Energy =                       -170.9619724370377867
  @DF-RHF Final Energy:  -170.95937141057124
    Total Energy =                       -170.9593714105712365
  @DF-RHF Final Energy:  -170.96142479719384
    Total Energy =                       -170.9614247971938710
  @DF-RHF Final Energy:  -170.96236958200876
    Total Energy =                       -170.9623695820087050
  @DF-RHF Final Energy:  -170.96214755729505
    Total Energy =                       -170.9621475572950828
  @DF-RHF Final Energy:  -170.96214839035576
    Total Energy =                       -170.9621483903556793
  @DF-RHF Final Energy:  -170.96221280164082
    Total Energy =                       -170.9622128016408453
  @DF-RHF Final Energy:  -170.96219257477915
    Total Energy =                       -170.9621925747790954
  @DF-RHF Final Energy:  -170.96225009793324
    Total Energy =                       -170.9622500979331221
  @DF-RHF Final Energy:  -170.96227387787187
    Total Energy =                       -170.9622738778719793
  @DF-RHF Final Energy:  -170.96231855710084
    Total Energy =                       -170.9623185571007866
  @DF-RHF Final Energy:  -170.96236987159378
    Total Energy =                       -170.9623698715937508
  @DF-RHF Final Energy:  -170.96223712894442
    Total Energy =                       -170.9622371289445937
  @DF-RHF Final Energy:  -170.96228230604086
    Total Energy =                       -170.9622823060409758
  @DF-RHF Final Energy:  -170.96230486830143
    Total Energy =                       -170.9623048683014019
  @DF-RHF Final Energy:  -170.96219179603185
    Total Energy =                       -170.9621917960318740
  @DF-RHF Final Energy:  -170.96207774844225
    Total Energy =                       -170.9620777484421410
  @DF-RHF Final Energy:  -170.96218856934411
    Total Energy =                       -170.9621885693440788
  @DF-RHF Final Energy:  -170.96217399120451
    Total Energy =                       -170.9621739912045086
  @DF-RHF Final Energy:  -170.96233549313746
    Total Energy =                       -170.9623354931375161
  @DF-RHF Final Energy:  -170.96240566971045
    Total Energy =                       -170.9624056697105630
  @DF-RHF Final Energy:  -170.96226442140500
    Total Energy =                       -170.9622644214051093
  @DF-RHF Final Energy:  -170.96224099571828
    Total Energy =                       -170.9622409957182469
  @DF-RHF Final Energy:  -170.96224172242376
    Total Energy =                       -170.9622417224237267
  @DF-RHF Final Energy:  -170.96228914260931
    Total Energy =                       -170.9622891426093361
  @DF-RHF Final Energy:  -170.96228620986983
    Total Energy =                       -170.9622862098697738
  @DF-RHF Final Energy:  -170.96228672049941
    Total Energy =                       -170.9622867204993497
  @DF-RHF Final Energy:  -170.96238229640099
    Total Energy =                       -170.9623822964010174
  @DF-RHF Final Energy:  -170.96235584232357
    Total Energy =                       -170.9623558423236886
  @DF-RHF Final Energy:  -170.96216996514812
    Total Energy =                       -170.9621699651480071
  @DF-RHF Final Energy:  -170.96225338857172
    Total Energy =                       -170.9622533885716393
  Basis Set: 6-31G*
  Basis Set:
  @DF-RHF Final Energy:  -170.96232201525089
    Total Energy =                       -170.9623220152508907
  Basis Set: 6-31G*
  Basis Set:
  Basis Set: 6-31G*
  Basis Set:
  @DF-RHF Final Energy:  -170.96239497660088
    Total Energy =                       -170.9623949766008764
  Basis Set: 6-31G*
  Basis Set:
  Basis Set: 6-31G*
  Basis Set:
  @DF-RHF Final Energy:  -170.96241736970887
    Total Energy =                       -170.9624173697088736
  Basis Set: 6-31G*
  Basis Set:
  Charge       = 0
  Multiplicity = 1
  Basis Set: 6-31G*
  Basis Set:

    Orbital Energies (a.u.)
    -----------------------

    Doubly Occupied:

       1A    -15.567183     2A    -11.283654     3A    -11.269510
       4A    -11.245887     5A     -1.224337     6A     -1.082379
       7A     -0.911846     8A     -0.699413     9A     -0.659542
      10A     -0.587837    11A     -0.560796    12A     -0.544003
      13A     -0.536590    14A     -0.458386    15A     -0.458360

  @DF-RHF Final Energy:  -170.96240529459453

   => Energetics <=

    Nuclear Repulsion Energy =            103.3700687840008499
    One-Electron Energy =                -434.4855027945419579
    Two-Electron Energy =                 160.1530287159466184
    DFT Exchange-Correlation Energy =       0.0000000000000000
    Empirical Dispersion Energy =           0.0000000000000000
    PCM Polarization Energy =               0.0000000000000000
    EFP Energy =                            0.0000000000000000
    Total Energy =                       -170.9624052945944754
    Molecular point group: c1
  Basis Set: 6-31G*
  Basis Set:

  -Total Gradient:
     Atom            X                  Y                   Z
    ------   -----------------  -----------------  -----------------
       1       -0.000003214930     0.000023217367     0.000001701658
       2        0.000089225026     0.000041099989     0.000029683675
       3        0.000514379454     0.000687557628     0.000578748894
       4        0.000044014837     0.000039924713    -0.000021244725
       5       -0.000001954996     0.000000698545     0.000014414603
       6       -0.002080254288    -0.001316240555    -0.000720033014
       7        0.000285425978    -0.000094089021    -0.000079455123
       8       -0.000340726796     0.000077305587    -0.000003933075
       9        0.001493105718     0.000540525747     0.000200117105

    Molecular point group: c1

    Geometry (in Angstrom), charge = 0, multiplicity = 1:

    H           -2.650323666912     0.029595856502     0.197100976097
    C           -1.663840490539    -0.419142513192     0.211863589767
    C           -0.607490704812     0.648484098317    -0.090569401845
    H           -1.637234406997    -1.211038288053    -0.526808218482
    H           -1.502724102084    -0.858654882025     1.188789058613
    C            0.759135057854     0.098911357123    -0.086685174006
    H           -0.779958369768     1.094367884685    -1.063291748079
    H           -0.648700858228     1.446657107782     0.641441570356
    N            1.815443058666    -0.317350516001    -0.061126660960

  Mulliken Charges: (a.u.)
   Center  Symbol    Alpha    Beta     Spin     Total
       1     H     0.40900  0.40900  0.00000  0.18199
       2     C     3.24313  3.24313  0.00000 -0.48626
       3     C     3.18205  3.18205  0.00000 -0.36410
       4     H     0.40550  0.40550  0.00000  0.18900
       5     H     0.40544  0.40544  0.00000  0.18912
       6     C     2.84823  2.84823  0.00000  0.30354
       7     H     0.38854  0.38854  0.00000  0.22292
       8     H     0.38829  0.38829  0.00000  0.22342
       9     N     3.72982  3.72982  0.00000 -0.45963

   Total alpha = 15.00000, Total beta = 15.00000, Total charge = -0.00000
