  ==> Input File <==

--------------------------------------------------------------------------
set {
	reference rhf
	basis 6-31G*
}

set_num_threads( 4 )
memory 2 gb

molecule MOL {
0 1

H	 -2.145606	 1.483109	 1.763384
C	 -1.736537	 0.816116	 1.027749
C	 -2.561133	 0.137683	 0.146433
C	 -0.373540	 0.625560	 0.951092
H	 -3.626843	 0.272935	 0.190143
C	 -2.020782	 -0.717737	 -0.795377
H	 0.290851	 1.134919	 1.617362
C	 0.154804	 -0.237046	 -0.000077
H	 -2.677431	 -1.234769	 -1.470348
C	 -0.649260	 -0.937871	 -0.905258
N	 1.611208	 -0.370857	 -0.000034
C	 -0.167909	 -1.895478	 -1.973070
O	 2.274126	 0.622059	 -0.008063
O	 2.068510	 -1.474748	 0.007823
H	 0.372343	 -2.728765	 -1.545415
H	 -1.022322	 -2.277979	 -2.517171
H	 0.498850	 -1.409304	 -2.671777

	symmetry c1
}
set optking {
	frozen_dihedral = ("
		4 8 11 13
	")
}

ee = optimize('scf')
oeprop('DIPOLE', 'QUADRUPOLE', 'MULLIKEN_CHARGES')
f=open( 'psi4out.xyz', 'w' )
f.write( "17  " )
f.write( str(ee) + "\n" )
f.write( MOL.save_string_xyz() )
f.close()
--------------------------------------------------------------------------

    Molecular point group: c1
  Charge       = 0
  Multiplicity = 1
  Basis Set: 6-31G*
  Basis Set:
  @DF-RHF Final Energy:  -473.20342521538561
    Total Energy =                       -473.2034252153858915
    Molecular point group: c1
  Basis Set: 6-31G*
  Basis Set:
  Basis Set: 6-31G*
  Basis Set:
  @DF-RHF Final Energy:  -473.20450079183280
    Total Energy =                       -473.2045007918327428
  Basis Set: 6-31G*
  Basis Set:
  Basis Set: 6-31G*
  Basis Set:
  @DF-RHF Final Energy:  -473.20277102937274
    Total Energy =                       -473.2027710293734799
  Basis Set: 6-31G*
  Basis Set:
  Basis Set: 6-31G*
  Basis Set:
  @DF-RHF Final Energy:  -473.20494152207931
    Total Energy =                       -473.2049415220794799
  Basis Set: 6-31G*
  Basis Set:
  Basis Set: 6-31G*
  Basis Set:
  @DF-RHF Final Energy:  -473.20505434703603
    Total Energy =                       -473.2050543470359116
  Basis Set: 6-31G*
  Basis Set:
  Basis Set: 6-31G*
  Basis Set:
  @DF-RHF Final Energy:  -473.20507737269259
    Total Energy =                       -473.2050773726928128
  Basis Set: 6-31G*
  Basis Set:
  Basis Set: 6-31G*
  Basis Set:
  @DF-RHF Final Energy:  -473.20507853985993
    Total Energy =                       -473.2050785398600965
  Basis Set: 6-31G*
  Basis Set:
  Charge       = 0
  Multiplicity = 1
  Basis Set: 6-31G*
  Basis Set:

    Orbital Energies (a.u.)
    -----------------------

    Doubly Occupied:

       1A    -20.602618     2A    -20.602436     3A    -15.852832
       4A    -11.301115     5A    -11.279165     6A    -11.267416
       7A    -11.261195     8A    -11.255321     9A    -11.254394
      10A    -11.236979    11A     -1.634193    12A     -1.417527
      13A     -1.201461    14A     -1.092097    15A     -1.072691
      16A     -0.979528    17A     -0.933658    18A     -0.851254
      19A     -0.820656    20A     -0.770674    21A     -0.733323
      22A     -0.727786    23A     -0.694870    24A     -0.656618
      25A     -0.636744    26A     -0.599452    27A     -0.595317
      28A     -0.567566    29A     -0.541153    30A     -0.523966
      31A     -0.520540    32A     -0.489556    33A     -0.480275
      34A     -0.448739    35A     -0.366040    36A     -0.353565

  @DF-RHF Final Energy:  -473.20507874841127

   => Energetics <=

    Nuclear Repulsion Energy =            509.9997748076230550
    One-Electron Energy =               -1655.1642640947593463
    Two-Electron Energy =                 671.9594105387250238
    DFT Exchange-Correlation Energy =       0.0000000000000000
    Empirical Dispersion Energy =           0.0000000000000000
    PCM Polarization Energy =               0.0000000000000000
    EFP Energy =                            0.0000000000000000
    Total Energy =                       -473.2050787484113243
    Molecular point group: c1
  Basis Set: 6-31G*
  Basis Set:

  -Total Gradient:
     Atom            X                  Y                   Z
    ------   -----------------  -----------------  -----------------
       1        0.000011138123     0.000001900949     0.000002748298
       2       -0.000076185900    -0.000012331586    -0.000017718396
       3       -0.000001681221     0.000068296957     0.000049897591
       4       -0.000168676586    -0.002427043161     0.001960746857
       5        0.000002429350    -0.000014719315     0.000000395138
       6        0.000073521947    -0.000035115841    -0.000060447529
       7        0.000005348236     0.000012075861     0.000003851618
       8        0.000314451123     0.003409573221    -0.004139683490
       9       -0.000008313307     0.000000138190     0.000001225712
      10       -0.000067204320    -0.000021946847    -0.000001294099
      11       -0.000037343452    -0.000982330479     0.005813975222
      12       -0.000032780212     0.000002069266    -0.000014200571
      13       -0.000045327141     0.000013542855    -0.003623013500
      14        0.000009767097    -0.000009684640     0.000003414747
      15        0.000005871594    -0.000017031365     0.000002818058
      16        0.000009144627    -0.000000380036     0.000010476110
      17        0.000005840040     0.000012985973     0.000006808238

  **** Optimization is complete! (in 8 steps) ****
    Final optimized geometry and variables:
    Molecular point group: c1

    Geometry (in Angstrom), charge = 0, multiplicity = 1:

    H           -2.094895911344     1.834812783440     1.971330231313
    C           -1.689024488088     1.176178389465     1.226332530438
    C           -2.522239028496     0.483188897620     0.364359052932
    C           -0.321347423832     1.017018749436     1.114607391279
    H           -3.588079623479     0.604734277162     0.433332868738
    C           -1.993015820784    -0.366189125368    -0.592520064428
    H            0.356135474948     1.551204179005     1.752315204151
    C            0.180028363557     0.155847383699     0.157148983926
    H           -2.655115677920    -0.888267302361    -1.259195214689
    C           -0.622671755846    -0.571156076762    -0.714102856369
    N            1.630897251046    -0.007924038877     0.132131500201
    C           -0.085149780033    -1.521481622338    -1.759407257900
    O            2.293425362948     0.984998258553     0.119634527133
    O            2.064338328043    -1.119960973157     0.117814357362
    H            0.233582876723    -2.452009151157    -1.307131358959
    H           -0.856327071812    -1.737329459465    -2.488002146350
    H            0.767432930576    -1.107178099099    -2.282998420782

  Mulliken Charges: (a.u.)
   Center  Symbol    Alpha    Beta     Spin     Total
       1     H     0.38961  0.38961  0.00000  0.22078
       2     C     3.11104  3.11104  0.00000 -0.22209
       3     C     3.08477  3.08477  0.00000 -0.16953
       4     C     3.08275  3.08275  0.00000 -0.16550
       5     H     0.39043  0.39043  0.00000  0.21913
       6     C     3.12201  3.12201  0.00000 -0.24402
       7     H     0.37215  0.37215  0.00000  0.25570
       8     C     2.91847  2.91847  0.00000  0.16307
       9     H     0.39271  0.39271  0.00000  0.21459
      10     C     2.96498  2.96498  0.00000  0.07004
      11     N     3.26278  3.26278  0.00000  0.47444
      12     C     3.24731  3.24731  0.00000 -0.49461
      13     O     4.22608  4.22608  0.00000 -0.45217
      14     O     4.22768  4.22768  0.00000 -0.45536
      15     H     0.39239  0.39239  0.00000  0.21522
      16     H     0.41174  0.41174  0.00000  0.17652
      17     H     0.40311  0.40311  0.00000  0.19379

   Total alpha = 36.00000, Total beta = 36.00000, Total charge = -0.00000
