  ==> Input File <==

--------------------------------------------------------------------------
set {
	reference rhf
	basis cc-pvtz
}

set_num_threads( 4 )
memory 2 gb

molecule MOL {
0 1

O	 -0.694481	 1.313155	 -0.204815
C	 -0.862519	 0.151932	 -0.046791
C	 -2.171428	 -0.477048	 0.339095
O	 0.085519	 -0.757083	 -0.192238
H	 -2.467997	 -1.191667	 -0.417688
H	 -2.923379	 0.287970	 0.444097
H	 -2.053854	 -1.015120	 1.270901
C	 1.392036	 -0.330828	 -0.560749
C	 2.427161	 -1.403785	 -0.293957
H	 1.630810	 0.579545	 -0.033470
H	 1.322514	 -0.117645	 -1.616907
H	 3.396000	 -1.069716	 -0.647796
H	 2.505063	 -1.611045	 0.764512
H	 2.172005	 -2.319330	 -0.813829

	symmetry c1
}
set optking {
	frozen_dihedral = ("
		10 8 4 2
	")
}

ee = optimize('scf')
oeprop('DIPOLE', 'QUADRUPOLE', 'MULLIKEN_CHARGES')
f=open( 'psi4out.xyz', 'w' )
f.write( "14  " )
f.write( str(ee) + "\n" )
f.write( MOL.save_string_xyz() )
f.close()
--------------------------------------------------------------------------

    Molecular point group: c1
  Charge       = 0
  Multiplicity = 1
  Basis Set: CC-PVTZ
  Basis Set:
  @DF-RHF Final Energy:  -305.99040566087825
    Total Energy =                       -305.9904056608779683
    Molecular point group: c1
  Basis Set: CC-PVTZ
  Basis Set:
  Basis Set: CC-PVTZ
  Basis Set:
  @DF-RHF Final Energy:  -305.99143243498798
    Total Energy =                       -305.9914324349878143
  Basis Set: CC-PVTZ
  Basis Set:
  Basis Set: CC-PVTZ
  Basis Set:
  @DF-RHF Final Energy:  -305.99157643304170
    Total Energy =                       -305.9915764330418142
  Basis Set: CC-PVTZ
  Basis Set:
  Basis Set: CC-PVTZ
  Basis Set:
  @DF-RHF Final Energy:  -305.99109321312483
    Total Energy =                       -305.9910932131247705
  Basis Set: CC-PVTZ
  Basis Set:
  Basis Set: CC-PVTZ
  Basis Set:
  @DF-RHF Final Energy:  -305.99165975191272
    Total Energy =                       -305.9916597519127208
  Basis Set: CC-PVTZ
  Basis Set:
  Charge       = 0
  Multiplicity = 1
  Basis Set: CC-PVTZ
  Basis Set:

    Orbital Energies (a.u.)
    -----------------------

    Doubly Occupied:

       1A    -20.594767     2A    -20.532958     3A    -11.367335
       4A    -11.283024     5A    -11.231659     6A    -11.221146
       7A     -1.471070     8A     -1.365847     9A     -1.058988
      10A     -1.001070    11A     -0.872965    12A     -0.781880
      13A     -0.694900    14A     -0.689042    15A     -0.668898
      16A     -0.612126    17A     -0.581771    18A     -0.564982
      19A     -0.555498    20A     -0.540888    21A     -0.511882
      22A     -0.502968    23A     -0.456407    24A     -0.442212

  @DF-RHF Final Energy:  -305.99166099386554

   => Energetics <=

    Nuclear Repulsion Energy =            246.0641291078879362
    One-Electron Energy =                -904.9030124685057217
    Two-Electron Energy =                 352.8472223667523053
    DFT Exchange-Correlation Energy =       0.0000000000000000
    Empirical Dispersion Energy =           0.0000000000000000
    PCM Polarization Energy =               0.0000000000000000
    EFP Energy =                            0.0000000000000000
    Total Energy =                       -305.9916609938654233
    Molecular point group: c1
  Basis Set: CC-PVTZ
  Basis Set:

  -Total Gradient:
     Atom            X                  Y                   Z
    ------   -----------------  -----------------  -----------------
       1        0.000017292125     0.000005521972     0.000012717134
       2        0.000352428676     0.000092368532     0.001220881399
       3        0.000002326050    -0.000001923820     0.000015262345
       4       -0.000556022926     0.000076453395    -0.002069469525
       5       -0.000002282263    -0.000002598990    -0.000005944181
       6        0.000005758137     0.000002588273    -0.000005279189
       7        0.000001443362     0.000000762170    -0.000003469573
       8        0.000840346058    -0.000980272507     0.001886729373
       9       -0.000035089266    -0.000017134267     0.000034736556
      10       -0.000630611377     0.000802050413    -0.001083721456
      11       -0.000025014891     0.000005387214    -0.000000472169
      12        0.000023883924     0.000014010688    -0.000009264348
      13        0.000007094790    -0.000016210569     0.000001372822
      14       -0.000001552400     0.000018997495     0.000005920813

  **** Optimization is complete! (in 6 steps) ****
    Final optimized geometry and variables:
    Molecular point group: c1

    Geometry (in Angstrom), charge = 0, multiplicity = 1:

    O           -0.739684739613     1.560130370385    -0.063014401710
    C           -0.892169602804     0.399248066138     0.110051532693
    C           -2.184630865086    -0.240737914862     0.531322155251
    O            0.063754959882    -0.499083994632    -0.048414818375
    H           -2.490597705632    -0.964257295717    -0.213260861712
    H           -2.942376549528     0.516988580987     0.646668044588
    H           -2.040701067450    -0.770197859065     1.464281234740
    C            1.360184790594    -0.047427085292    -0.417058016306
    C            2.344376437038    -1.152117712337    -0.112117686523
    H            1.587286743612     0.860406650885     0.119855078385
    H            1.352964604890     0.191427841502    -1.472820848298
    H            3.341416908091    -0.844039750698    -0.404271620983
    H            2.352385836767    -1.379755952356     0.946470433184
    H            2.092477523153    -2.054726993217    -0.654381062379

  Mulliken Charges: (a.u.)
   Center  Symbol    Alpha    Beta     Spin     Total
       1     O     4.19766  4.19766  0.00000 -0.39532
       2     C     2.80613  2.80613  0.00000  0.38774
       3     C     3.13854  3.13854  0.00000 -0.27707
       4     O     4.15302  4.15302  0.00000 -0.30604
       5     H     0.44559  0.44559  0.00000  0.10883
       6     H     0.43805  0.43805  0.00000  0.12390
       7     H     0.44617  0.44617  0.00000  0.10766
       8     C     2.97947  2.97947  0.00000  0.04107
       9     C     3.13249  3.13249  0.00000 -0.26498
      10     H     0.44915  0.44915  0.00000  0.10170
      11     H     0.45634  0.45634  0.00000  0.08733
      12     H     0.45442  0.45442  0.00000  0.09115
      13     H     0.45170  0.45170  0.00000  0.09659
      14     H     0.45127  0.45127  0.00000  0.09746

   Total alpha = 24.00000, Total beta = 24.00000, Total charge = -0.00000
