  ==> Input File <==

--------------------------------------------------------------------------
set {
	reference rhf
	basis cc-pvtz
}

set_num_threads( 4 )
memory 2 gb

molecule MOL {
0 1

H	 1.651322	 -0.822465	 0.000000
O	 0.729993	 -1.034364	 0.000000
C	 0.037305	 0.100061	 0.000000
C	 -0.661385	 0.332065	 -1.306171
O	 -0.001174	 0.818134	 0.937916
H	 0.067915	 0.364306	 -2.105265
H	 -1.208958	 1.258906	 -1.263114
H	 -1.333977	 -0.491700	 -1.507417

	symmetry c1
}
set optking {
	frozen_dihedral = ("
		4 3 2 1
	")
}

ee = optimize('scf')
oeprop('DIPOLE', 'QUADRUPOLE', 'MULLIKEN_CHARGES')
f=open( 'psi4out.xyz', 'w' )
f.write( "8  " )
f.write( str(ee) + "\n" )
f.write( MOL.save_string_xyz() )
f.close()
--------------------------------------------------------------------------

    Molecular point group: c1
  Charge       = 0
  Multiplicity = 1
  Basis Set: CC-PVTZ
  Basis Set:
  @DF-RHF Final Energy:  -227.88626931998746
    Total Energy =                       -227.8862693199874059
    Molecular point group: c1
  Basis Set: CC-PVTZ
  Basis Set:
  Basis Set: CC-PVTZ
  Basis Set:
  @DF-RHF Final Energy:  -227.88655191010386
    Total Energy =                       -227.8865519101038046
  Basis Set: CC-PVTZ
  Basis Set:
  Basis Set: CC-PVTZ
  Basis Set:
  @DF-RHF Final Energy:  -227.88731046974800
    Total Energy =                       -227.8873104697479448
  Basis Set: CC-PVTZ
  Basis Set:
  Basis Set: CC-PVTZ
  Basis Set:
  @DF-RHF Final Energy:  -227.88746919769642
    Total Energy =                       -227.8874691976963618
  Basis Set: CC-PVTZ
  Basis Set:
  Basis Set: CC-PVTZ
  Basis Set:
  @DF-RHF Final Energy:  -227.88748897825172
    Total Energy =                       -227.8874889782517812
  Basis Set: CC-PVTZ
  Basis Set:
  Basis Set: CC-PVTZ
  Basis Set:
  @DF-RHF Final Energy:  -227.88749875041236
    Total Energy =                       -227.8874987504123624
  Basis Set: CC-PVTZ
  Basis Set:
  Charge       = 0
  Multiplicity = 1
  Basis Set: CC-PVTZ
  Basis Set:

    Orbital Energies (a.u.)
    -----------------------

    Doubly Occupied:

       1A    -20.590156     2A    -20.551642     3A    -11.379442
       4A    -11.240654     5A     -1.467615     6A     -1.372670
       7A     -1.025121     8A     -0.829216     9A     -0.710062
      10A     -0.677059    11A     -0.662974    12A     -0.587879
      13A     -0.580625    14A     -0.524422    15A     -0.499085
      16A     -0.453725

  @DF-RHF Final Energy:  -227.88750032224587

   => Energetics <=

    Nuclear Repulsion Energy =            122.1540539261431775
    One-Electron Energy =                -553.7784165034125863
    Two-Electron Energy =                 203.7368622550233397
    DFT Exchange-Correlation Energy =       0.0000000000000000
    Empirical Dispersion Energy =           0.0000000000000000
    PCM Polarization Energy =               0.0000000000000000
    EFP Energy =                            0.0000000000000000
    Total Energy =                       -227.8875003222460407
    Molecular point group: c1
  Basis Set: CC-PVTZ
  Basis Set:

  -Total Gradient:
     Atom            X                  Y                   Z
    ------   -----------------  -----------------  -----------------
       1       -0.000059553312    -0.000254150979    -0.008374207543
       2        0.001795386696     0.001087709109     0.009647172859
       3       -0.005750885022    -0.002885999528     0.000520213071
       4        0.004209106258     0.002302175714    -0.001865354434
       5       -0.000200261156    -0.000223472505     0.000074631164
       6       -0.000011066721     0.000006173742     0.000000135035
       7        0.000006503020    -0.000001657622    -0.000021093509
       8        0.000010770238    -0.000030777935     0.000018503358

  **** Optimization is complete! (in 7 steps) ****
    Final optimized geometry and variables:
    Molecular point group: c1

    Geometry (in Angstrom), charge = 0, multiplicity = 1:

    H            1.584970074006    -0.954118087151     0.113560821511
    O            0.653701965512    -1.102667283008     0.128192374012
    C           -0.026529296724     0.070282266376     0.093497468960
    C           -0.740448727338     0.290304500855    -1.207520858572
    O           -0.008485930061     0.829076914912     0.990021659329
    H            0.002416361719     0.399164363837    -1.989174543841
    H           -1.350980675769     1.177059308554    -1.153712068599
    H           -1.344176527629    -0.573472766938    -1.453056736386

  Mulliken Charges: (a.u.)
   Center  Symbol    Alpha    Beta     Spin     Total
       1     H     0.38215  0.38215  0.00000  0.23571
       2     O     4.17786  4.17786  0.00000 -0.35572
       3     C     2.80469  2.80469  0.00000  0.39063
       4     C     3.13584  3.13584  0.00000 -0.27168
       5     O     4.16625  4.16625  0.00000 -0.33250
       6     H     0.45131  0.45131  0.00000  0.09738
       7     H     0.43870  0.43870  0.00000  0.12261
       8     H     0.44321  0.44321  0.00000  0.11358

   Total alpha = 16.00000, Total beta = 16.00000, Total charge = -0.00000
