  ==> Input File <==

--------------------------------------------------------------------------
set {
	reference rhf
	basis cc-pvtz
}

set_num_threads( 4 )
memory 2 gb

molecule MOL {
0 1

H	 -0.368304	 0.067620	 2.090637
C	 -0.209556	 -0.484981	 1.189547
C	 -0.208240	 -1.865081	 1.182035
C	 0.000000	 0.179985	 0.000046
H	 -0.369367	 -2.400843	 2.096645
C	 -0.000003	 -2.552036	 -0.000011
N	 0.000000	 1.644631	 0.000076
C	 0.209558	 -0.484932	 -1.189482
H	 -0.000000	 -3.625035	 -0.000032
C	 0.208238	 -1.865032	 -1.182028
O	 1.050559	 2.194174	 -0.000073
O	 -1.050559	 2.194174	 -0.000074
H	 0.368297	 0.067705	 -2.090551
H	 0.369368	 -2.400757	 -2.096659

	symmetry c1
}
set optking {
	frozen_dihedral = ("
		2 4 7 11
	")
}

ee = optimize('scf')
oeprop('DIPOLE', 'QUADRUPOLE', 'MULLIKEN_CHARGES')
f=open( 'psi4out.xyz', 'w' )
f.write( "14  " )
f.write( str(ee) + "\n" )
f.write( MOL.save_string_xyz() )
f.close()
--------------------------------------------------------------------------

    Molecular point group: c1
  Charge       = 0
  Multiplicity = 1
  Basis Set: CC-PVTZ
  Basis Set:
  @DF-RHF Final Energy:  -434.32010273996156
    Total Energy =                       -434.3201027399617260
    Molecular point group: c1
  Basis Set: CC-PVTZ
  Basis Set:
  Basis Set: CC-PVTZ
  Basis Set:
  @DF-RHF Final Energy:  -434.31607844735669
    Total Energy =                       -434.3160784473564036
  Basis Set: CC-PVTZ
  Basis Set:
  Basis Set: CC-PVTZ
  Basis Set:
  @DF-RHF Final Energy:  -434.31990817108840
    Total Energy =                       -434.3199081710884002
  Basis Set: CC-PVTZ
  Basis Set:
  Basis Set: CC-PVTZ
  Basis Set:
  @DF-RHF Final Energy:  -434.32038736307311
    Total Energy =                       -434.3203873630732232
  Basis Set: CC-PVTZ
  Basis Set:
  Charge       = 0
  Multiplicity = 1
  Basis Set: CC-PVTZ
  Basis Set:

    Orbital Energies (a.u.)
    -----------------------

    Doubly Occupied:

       1A    -20.598548     2A    -20.598481     3A    -15.848369
       4A    -11.308156     5A    -11.267347     6A    -11.267295
       7A    -11.260875     8A    -11.260556     9A    -11.258002
      10A     -1.645758    11A     -1.428985    12A     -1.206494
      13A     -1.096676    14A     -1.056873    15A     -0.959247
      16A     -0.874931    17A     -0.831530    18A     -0.786427
      19A     -0.740725    20A     -0.738677    21A     -0.718221
      22A     -0.651978    23A     -0.650490    24A     -0.625877
      25A     -0.561709    26A     -0.552996    27A     -0.533699
      28A     -0.500856    29A     -0.485672    30A     -0.459486
      31A     -0.371588    32A     -0.370573

  @DF-RHF Final Energy:  -434.32038844646394

   => Energetics <=

    Nuclear Repulsion Energy =            417.3158742547565794
    One-Electron Energy =               -1418.2383294401743115
    Two-Electron Energy =                 566.6020667389536811
    DFT Exchange-Correlation Energy =       0.0000000000000000
    Empirical Dispersion Energy =           0.0000000000000000
    PCM Polarization Energy =               0.0000000000000000
    EFP Energy =                            0.0000000000000000
    Total Energy =                       -434.3203884464639941
    Molecular point group: c1
  Basis Set: CC-PVTZ
  Basis Set:

  -Total Gradient:
     Atom            X                  Y                   Z
    ------   -----------------  -----------------  -----------------
       1       -0.000005464727    -0.000015752221    -0.000035306771
       2        0.002252036109    -0.000074012962     0.000440474378
       3       -0.000053176167     0.000006163389     0.000024167220
       4       -0.003132241503     0.000232269779     0.000451559990
       5        0.000011744543     0.000001602515     0.000008145876
       6       -0.000006184272     0.000002083175     0.000008987335
       7        0.000934725451    -0.000028452344    -0.003362463026
       8       -0.000062606448    -0.000078166065    -0.000100524753
       9       -0.000002417471     0.000005095789    -0.000000305959
      10        0.000065500910     0.000021628276    -0.000042103115
      11        0.000183384293    -0.000051632211     0.002594488582
      12       -0.000171731257    -0.000004370268    -0.000016950704
      13       -0.000005560898    -0.000015145099     0.000036436538
      14       -0.000008008566    -0.000001311754    -0.000006605590

  **** Optimization is complete! (in 5 steps) ****
    Final optimized geometry and variables:
    Molecular point group: c1

    Geometry (in Angstrom), charge = 0, multiplicity = 1:

    H           -0.386110041696     0.075985794932     2.087032005448
    C           -0.218975395699    -0.476435071504     1.183847113020
    C           -0.206073915272    -1.857784580322     1.179326520398
    C           -0.016816292521     0.178006147585    -0.007088463126
    H           -0.359218618336    -2.391985041274     2.096431718257
    C            0.002965070711    -2.547263666768    -0.000503002580
    N            0.000555881245     1.643715391984    -0.002922502177
    C            0.208840927250    -0.479211357205    -1.192177081504
    H            0.008431085572    -3.619838341430     0.001775840064
    C            0.207948028798    -1.860654449979    -1.182653958714
    O            1.061575411107     2.169540954184    -0.015087621402
    O           -1.046440940891     2.196186980559     0.032540954452
    H            0.379875083029     0.071132033277    -2.095919491204
    H            0.372382613643    -2.397044096401    -2.096517837451

  Mulliken Charges: (a.u.)
   Center  Symbol    Alpha    Beta     Spin     Total
       1     H     0.41418  0.41418  0.00000  0.17164
       2     C     3.08463  3.08463  0.00000 -0.16926
       3     C     3.06419  3.06419  0.00000 -0.12838
       4     C     2.92416  2.92416  0.00000  0.15168
       5     H     0.41735  0.41735  0.00000  0.16530
       6     C     3.07818  3.07818  0.00000 -0.15637
       7     N     3.29229  3.29229  0.00000  0.41543
       8     C     3.08484  3.08484  0.00000 -0.16968
       9     H     0.41801  0.41801  0.00000  0.16397
      10     C     3.06400  3.06400  0.00000 -0.12800
      11     O     4.16285  4.16285  0.00000 -0.32571
      12     O     4.16338  4.16338  0.00000 -0.32675
      13     H     0.41458  0.41458  0.00000  0.17084
      14     H     0.41735  0.41735  0.00000  0.16529

   Total alpha = 32.00000, Total beta = 32.00000, Total charge =  0.00000
