  ==> Input File <==

--------------------------------------------------------------------------
set {
	reference rhf
	basis cc-pvtz
}

set_num_threads( 4 )
memory 2 gb

molecule MOL {
0 1

H	 2.828711	 -0.346904	 0.001083
C	 1.876752	 0.015931	 -0.363450
C	 0.776285	 -0.474665	 0.563092
H	 1.728113	 -0.357244	 -1.367440
H	 1.906171	 1.096574	 -0.386153
N	 -0.540022	 0.017605	 0.071630
H	 0.707111	 -1.548969	 0.573035
H	 0.886169	 -0.084184	 1.560432
O	 -1.319526	 0.385336	 0.884860
O	 -0.729556	 -0.018440	 -1.097632

	symmetry c1
}
set optking {
	frozen_dihedral = ("
		9 6 3 2
	")
}

ee = optimize('scf')
oeprop('DIPOLE', 'QUADRUPOLE', 'MULLIKEN_CHARGES')
f=open( 'psi4out.xyz', 'w' )
f.write( "10  " )
f.write( str(ee) + "\n" )
f.write( MOL.save_string_xyz() )
f.close()
--------------------------------------------------------------------------

    Molecular point group: c1
  Charge       = 0
  Multiplicity = 1
  Basis Set: CC-PVTZ
  Basis Set:
  @DF-RHF Final Energy:  -282.81238279449906
    Total Energy =                       -282.8123827944989443
    Molecular point group: c1
  Basis Set: CC-PVTZ
  Basis Set:
  Basis Set: CC-PVTZ
  Basis Set:
  @DF-RHF Final Energy:  -282.81268333958451
    Total Energy =                       -282.8126833395843960
  Basis Set: CC-PVTZ
  Basis Set:
  Basis Set: CC-PVTZ
  Basis Set:
  @DF-RHF Final Energy:  -282.80440305165268
    Total Energy =                       -282.8044030516529119
  Basis Set: CC-PVTZ
  Basis Set:
  Basis Set: CC-PVTZ
  Basis Set:
  @DF-RHF Final Energy:  -282.81271936922030
    Total Energy =                       -282.8127193692202468
  Basis Set: CC-PVTZ
  Basis Set:
  Basis Set: CC-PVTZ
  Basis Set:
  @DF-RHF Final Energy:  -282.81304237299651
    Total Energy =                       -282.8130423729963923
  Basis Set: CC-PVTZ
  Basis Set:
  Basis Set: CC-PVTZ
  Basis Set:
  @DF-RHF Final Energy:  -282.81305040805000
    Total Energy =                       -282.8130504080498895
  Basis Set: CC-PVTZ
  Basis Set:
  Charge       = 0
  Multiplicity = 1
  Basis Set: CC-PVTZ
  Basis Set:

    Orbital Energies (a.u.)
    -----------------------

    Doubly Occupied:

       1A    -20.592882     2A    -20.591620     3A    -15.839207
       4A    -11.302707     5A    -11.246006     6A     -1.638360
       7A     -1.422626     8A     -1.124663     9A     -0.966993
      10A     -0.836885    11A     -0.764730    12A     -0.745872
      13A     -0.731632    14A     -0.648820    15A     -0.592009
      16A     -0.563601    17A     -0.540664    18A     -0.489775
      19A     -0.479513    20A     -0.455961

  @DF-RHF Final Energy:  -282.81305388608814

   => Energetics <=

    Nuclear Repulsion Energy =            186.5786778887125479
    One-Electron Energy =                -755.6344107762139402
    Two-Electron Energy =                 286.2426790014133076
    DFT Exchange-Correlation Energy =       0.0000000000000000
    Empirical Dispersion Energy =           0.0000000000000000
    PCM Polarization Energy =               0.0000000000000000
    EFP Energy =                            0.0000000000000000
    Total Energy =                       -282.8130538860880279
    Molecular point group: c1
  Basis Set: CC-PVTZ
  Basis Set:

  -Total Gradient:
     Atom            X                  Y                   Z
    ------   -----------------  -----------------  -----------------
       1        0.000013272988     0.000006354422    -0.000009283931
       2        0.000014251672    -0.000150416787    -0.000100431336
       3       -0.000050133844     0.000093066579     0.000125771636
       4       -0.000001736468     0.000000910575     0.000018302022
       5        0.000006941475     0.000004150462    -0.000004453146
       6        0.000086570522     0.000315429227    -0.000107358996
       7        0.000013782787    -0.000013133134     0.000006144142
       8       -0.000009187552     0.000008089423    -0.000014954378
       9       -0.000105362243    -0.000230630118     0.000095278147
      10        0.000031600663    -0.000033820650    -0.000009014162

  **** Optimization is complete! (in 7 steps) ****
    Final optimized geometry and variables:
    Molecular point group: c1

    Geometry (in Angstrom), charge = 0, multiplicity = 1:

    H            2.853313473534    -0.334131408299     0.022459908897
    C            1.913476311885     0.025761945350    -0.376883815598
    C            0.795989573155    -0.443121227325     0.531375207687
    H            1.790174065103    -0.355978944827    -1.378198963092
    H            1.953682674200     1.106495918691    -0.418145617713
    N           -0.543417627161     0.026007725171     0.067572917990
    H            0.715618980938    -1.521058065072     0.542889430635
    H            0.891184853479    -0.083489499877     1.540733771472
    O           -1.306165294945     0.382981924958     0.900406075396
    O           -0.767759109662    -0.017766928347    -1.094985889952

  Mulliken Charges: (a.u.)
   Center  Symbol    Alpha    Beta     Spin     Total
       1     H     0.44914  0.44914  0.00000  0.10172
       2     C     3.14079  3.14079  0.00000 -0.28159
       3     C     3.04025  3.04025  0.00000 -0.08050
       4     H     0.43650  0.43650  0.00000  0.12700
       5     H     0.44534  0.44534  0.00000  0.10931
       6     N     3.27757  3.27757  0.00000  0.44486
       7     H     0.43713  0.43713  0.00000  0.12575
       8     H     0.43135  0.43135  0.00000  0.13730
       9     O     4.16945  4.16945  0.00000 -0.33891
      10     O     4.17247  4.17247  0.00000 -0.34495

   Total alpha = 20.00000, Total beta = 20.00000, Total charge = -0.00000
