  ==> Input File <==

--------------------------------------------------------------------------
set {
	reference rhf
	basis cc-pvtz
}

set_num_threads( 4 )
memory 2 gb

molecule MOL {
0 1

H	 1.128311	 0.207724	 1.465118
C	 1.134565	 0.093781	 0.372499
C	 0.062554	 0.862911	 -0.350953
O	 1.948932	 -0.587720	 -0.146651
C	 0.342743	 2.368386	 -0.391628
H	 -0.890102	 0.648566	 0.115950
H	 0.032894	 0.476958	 -1.367434
C	 0.272713	 3.036110	 0.978734
H	 -0.375665	 2.832663	 -1.057143
H	 1.320050	 2.540773	 -0.833894
H	 -0.708163	 2.908808	 1.422842
H	 0.467796	 4.098803	 0.899575
H	 0.999247	 2.617846	 1.666658

	symmetry c1
}
set optking {
	frozen_dihedral = ("
		6 3 2 4
	")
}

ee = optimize('scf')
oeprop('DIPOLE', 'QUADRUPOLE', 'MULLIKEN_CHARGES')
f=open( 'psi4out.xyz', 'w' )
f.write( "13  " )
f.write( str(ee) + "\n" )
f.write( MOL.save_string_xyz() )
f.close()
--------------------------------------------------------------------------

    Molecular point group: c1
  Charge       = 0
  Multiplicity = 1
  Basis Set: CC-PVTZ
  Basis Set:
  @DF-RHF Final Energy:  -231.06857436350904
    Total Energy =                       -231.0685743635089864
    Molecular point group: c1
  Basis Set: CC-PVTZ
  Basis Set:
  Basis Set: CC-PVTZ
  Basis Set:
  @DF-RHF Final Energy:  -231.06893087743288
    Total Energy =                       -231.0689308774328765
  Basis Set: CC-PVTZ
  Basis Set:
  Basis Set: CC-PVTZ
  Basis Set:
  @DF-RHF Final Energy:  -231.06805995815256
    Total Energy =                       -231.0680599581524177
  Basis Set: CC-PVTZ
  Basis Set:
  Basis Set: CC-PVTZ
  Basis Set:
  @DF-RHF Final Energy:  -231.06903553234821
    Total Energy =                       -231.0690355323484937
  Basis Set: CC-PVTZ
  Basis Set:
  Basis Set: CC-PVTZ
  Basis Set:
  @DF-RHF Final Energy:  -231.06903836709364
    Total Energy =                       -231.0690383670936399
  Basis Set: CC-PVTZ
  Basis Set:
  Basis Set: CC-PVTZ
  Basis Set:
  @DF-RHF Final Energy:  -231.06904633253251
    Total Energy =                       -231.0690463325325652
  Basis Set: CC-PVTZ
  Basis Set:
  Charge       = 0
  Multiplicity = 1
  Basis Set: CC-PVTZ
  Basis Set:

    Orbital Energies (a.u.)
    -----------------------

    Doubly Occupied:

       1A    -20.552201     2A    -11.320767     3A    -11.237342
       4A    -11.234288     5A    -11.223393     6A     -1.406548
       7A     -1.086493     8A     -0.974571     9A     -0.855110
      10A     -0.781195    11A     -0.682834    12A     -0.649276
      13A     -0.607127    14A     -0.603599    15A     -0.572072
      16A     -0.535589    17A     -0.507919    18A     -0.495677
      19A     -0.483650    20A     -0.411186

  @DF-RHF Final Energy:  -231.06904712304433

   => Energetics <=

    Nuclear Repulsion Energy =            173.3381548861973158
    One-Electron Energy =                -656.3727368349931339
    Two-Electron Energy =                 251.9655348257513765
    DFT Exchange-Correlation Energy =       0.0000000000000000
    Empirical Dispersion Energy =           0.0000000000000000
    PCM Polarization Energy =               0.0000000000000000
    EFP Energy =                            0.0000000000000000
    Total Energy =                       -231.0690471230444132
    Molecular point group: c1
  Basis Set: CC-PVTZ
  Basis Set:

  -Total Gradient:
     Atom            X                  Y                   Z
    ------   -----------------  -----------------  -----------------
       1       -0.000009526670     0.000010650572    -0.000011005962
       2       -0.000040918333    -0.000098579949     0.000006165653
       3       -0.000008152877    -0.000089255536    -0.000062583361
       4        0.000039951149     0.000067504641    -0.000000887781
       5        0.000023103412     0.000010473018    -0.000006862468
       6        0.000000085855     0.000052318710     0.000033834691
       7        0.000004179237    -0.000001051402     0.000030716028
       8       -0.000003455861     0.000016425173     0.000011805057
       9        0.000003972018     0.000009713070     0.000009382900
      10       -0.000000747853     0.000014144464    -0.000012224607
      11       -0.000004228519     0.000006995120     0.000003898943
      12        0.000002711029    -0.000003347774     0.000006963291
      13       -0.000006972583     0.000004009887    -0.000009202385

  **** Optimization is complete! (in 7 steps) ****
    Final optimized geometry and variables:
    Molecular point group: c1

    Geometry (in Angstrom), charge = 0, multiplicity = 1:

    H            0.369678408669    -0.953278176227     1.363940099497
    C            0.366304998588    -1.070459916408     0.274479837107
    C           -0.681181346644    -0.289185102696    -0.473223128607
    O            1.162603250251    -1.776240018950    -0.242804926990
    C           -0.408097676234     1.222874872896    -0.485127833585
    H           -1.644396400951    -0.477719751892    -0.005527908935
    H           -0.712424375675    -0.668613131169    -1.485624486203
    C           -0.484546673239     1.898096226456     0.882334615310
    H           -1.133789074862     1.682186427306    -1.146459181444
    H            0.565593991809     1.401756373083    -0.929222585031
    H           -1.449244760961     1.729003882988     1.349048362217
    H           -0.348836640028     2.968270674313     0.784084079572
    H            0.279803667610     1.536803894309     1.560181232778

  Mulliken Charges: (a.u.)
   Center  Symbol    Alpha    Beta     Spin     Total
       1     H     0.46199  0.46199  0.00000  0.07603
       2     C     2.90532  2.90532  0.00000  0.18935
       3     C     3.08845  3.08845  0.00000 -0.17691
       4     O     4.16579  4.16579  0.00000 -0.33158
       5     C     3.09658  3.09658  0.00000 -0.19317
       6     H     0.45141  0.45141  0.00000  0.09719
       7     H     0.43816  0.43816  0.00000  0.12369
       8     C     3.15198  3.15198  0.00000 -0.30396
       9     H     0.44547  0.44547  0.00000  0.10906
      10     H     0.44522  0.44522  0.00000  0.10956
      11     H     0.45347  0.45347  0.00000  0.09305
      12     H     0.44350  0.44350  0.00000  0.11299
      13     H     0.45265  0.45265  0.00000  0.09471

   Total alpha = 20.00000, Total beta = 20.00000, Total charge = -0.00000
