  ==> Input File <==

--------------------------------------------------------------------------
set {
	reference rhf
	basis 6-31G*
}

set_num_threads( 4 )
memory 2 gb

molecule MOL {
0 1

H	 -2.098997	 -0.674324	 -0.616650
O	 -2.035884	 -0.060112	 0.102722
C	 -0.955155	 0.788182	 -0.092531
C	 0.353668	 0.040312	 -0.004810
H	 -0.985057	 1.290372	 -1.054184
H	 -0.974469	 1.533190	 0.688632
F	 0.548315	 -0.418436	 1.226545
F	 0.348852	 -0.998654	 -0.824399
F	 1.388009	 0.795454	 -0.313761

	symmetry c1
}
set optking {
	frozen_dihedral = ("
		7 4 3 5
	")
}

ee = optimize('scf')
oeprop('DIPOLE', 'QUADRUPOLE', 'MULLIKEN_CHARGES')
f=open( 'psi4out.xyz', 'w' )
f.write( "9  " )
f.write( str(ee) + "\n" )
f.write( MOL.save_string_xyz() )
f.close()
--------------------------------------------------------------------------

    Molecular point group: c1
  Charge       = 0
  Multiplicity = 1
  Basis Set: 6-31G*
  Basis Set:
  @DF-RHF Final Energy:  -450.66235352340180
    Total Energy =                       -450.6623535234014071
    Molecular point group: c1
  Basis Set: 6-31G*
  Basis Set:
  Basis Set: 6-31G*
  Basis Set:
  @DF-RHF Final Energy:  -450.66270089071168
    Total Energy =                       -450.6627008907119034
  Basis Set: 6-31G*
  Basis Set:
  Basis Set: 6-31G*
  Basis Set:
  @DF-RHF Final Energy:  -450.66276716547884
    Total Energy =                       -450.6627671654788401
  Basis Set: 6-31G*
  Basis Set:
  Basis Set: 6-31G*
  Basis Set:
  @DF-RHF Final Energy:  -450.66277217930138
    Total Energy =                       -450.6627721793012711
  Basis Set: 6-31G*
  Basis Set:
  Charge       = 0
  Multiplicity = 1
  Basis Set: 6-31G*
  Basis Set:

    Orbital Energies (a.u.)
    -----------------------

    Doubly Occupied:

       1A    -26.344487     2A    -26.343121     3A    -26.339300
       4A    -20.590622     5A    -11.500359     6A    -11.309682
       7A     -1.740375     8A     -1.639296     9A     -1.636898
      10A     -1.402786    11A     -1.048194    12A     -0.923851
      13A     -0.830776    14A     -0.828726    15A     -0.806328
      16A     -0.726474    17A     -0.711968    18A     -0.697347
      19A     -0.664942    20A     -0.659096    21A     -0.642698
      22A     -0.628818    23A     -0.615263    24A     -0.530926
      25A     -0.480496

  @DF-RHF Final Energy:  -450.66277258082704

   => Energetics <=

    Nuclear Repulsion Energy =            277.0665395605909112
    One-Electron Energy =               -1176.1729687706681489
    Two-Electron Energy =                 448.4436566292504267
    DFT Exchange-Correlation Energy =       0.0000000000000000
    Empirical Dispersion Energy =           0.0000000000000000
    PCM Polarization Energy =               0.0000000000000000
    EFP Energy =                            0.0000000000000000
    Total Energy =                       -450.6627725808268679
    Molecular point group: c1
  Basis Set: 6-31G*
  Basis Set:

  -Total Gradient:
     Atom            X                  Y                   Z
    ------   -----------------  -----------------  -----------------
       1        0.000004347781    -0.000009019189    -0.000008275927
       2        0.000034252128     0.000042684751    -0.000006577116
       3       -0.000432000400    -0.000815622168    -0.000422776098
       4       -0.000489729970    -0.000835892880    -0.000239829371
       5        0.000465616723     0.000845442787     0.000428410159
       6       -0.000003326201     0.000004359023     0.000010700206
       7        0.000439129517     0.000791779899     0.000222781147
       8        0.000004840094    -0.000010046980    -0.000010456124
       9       -0.000023129669    -0.000013685246     0.000026023126

  **** Optimization is complete! (in 5 steps) ****
    Final optimized geometry and variables:
    Molecular point group: c1

    Geometry (in Angstrom), charge = 0, multiplicity = 1:

    H           -2.098144388617    -0.669239303956    -0.617910771368
    O           -2.039008136502    -0.041301281618     0.089944805782
    C           -0.948948754671     0.793515795550    -0.107898754197
    C            0.353616810991     0.036065047468    -0.003630025146
    H           -0.966192047286     1.292063263188    -1.071732318034
    H           -0.964790010436     1.545773863401     0.666614265601
    F            0.569522178883    -0.432945938291     1.208735293279
    F            0.366361030615    -0.994141736133    -0.841111579065
    F            1.370542143698     0.822830217739    -0.318634338141

  Mulliken Charges: (a.u.)
   Center  Symbol    Alpha    Beta     Spin     Total
       1     H     0.27234  0.27234  0.00000  0.45531
       2     O     4.36160  4.36160  0.00000 -0.72320
       3     C     3.05373  3.05373  0.00000 -0.10745
       4     C     2.46393  2.46393  0.00000  1.07214
       5     H     0.40973  0.40973  0.00000  0.18054
       6     H     0.39538  0.39538  0.00000  0.20925
       7     F     4.67523  4.67523  0.00000 -0.35045
       8     F     4.68604  4.68604  0.00000 -0.37209
       9     F     4.68202  4.68202  0.00000 -0.36403

   Total alpha = 25.00000, Total beta = 25.00000, Total charge =  0.00000
