                              Psi4 1.0.54 Driver

  ==> Input File <==

--------------------------------------------------------------------------
set {
	reference rhf
	basis cc-pvtz
}

set_num_threads( 4 )
memory 2 gb

molecule MOL {
0 1

H	 -0.981235	 1.134417	 3.135377
O	 -0.763323	 0.728185	 2.317121
C	 -0.306966	 1.693284	 1.404794
C	 0.027642	 1.012027	 0.090274
H	 0.584752	 2.183497	 1.787281
H	 -1.060978	 2.461356	 1.256495
C	 -1.138737	 0.285728	 -0.581921
H	 0.825938	 0.300744	 0.275496
H	 0.427909	 1.765379	 -0.583864
C	 -1.933983	 -0.631436	 0.343653
H	 -0.763151	 -0.285569	 -1.422081
H	 -1.808359	 1.035291	 -0.992333
H	 -2.789188	 -1.049673	 -0.174718
H	 -1.335629	 -1.461368	 0.700418
H	 -2.305435	 -0.092167	 1.209725

	symmetry c1
}
set optking {
	frozen_dihedral = ("
		8 4 7 11
	")
}

ee,wfn = optimize('scf', return_wfn=True)
oeprop( wfn, 'DIPOLE', 'QUADRUPOLE', 'MULLIKEN_CHARGES')
f=open( 'psi4out.xyz', 'w' )
f.write( "15  " )
f.write( str(ee) + "\n" )
f.write( MOL.save_string_xyz() )
f.close()
--------------------------------------------------------------------------

    Molecular point group: c1
  Charge       = 0
  Multiplicity = 1
  Basis Set: CC-PVTZ
  Basis Set:
  @DF-RHF Final Energy:  -232.22738215417513
    Total Energy =                       -232.2273821541752454
    Molecular point group: c1
  Basis Set: CC-PVTZ
  Basis Set:
  Basis Set: CC-PVTZ
  Basis Set:
  @DF-RHF Final Energy:  -232.23308894068876
    Total Energy =                       -232.2330889406887309
  Basis Set: CC-PVTZ
  Basis Set:
  Basis Set: CC-PVTZ
  Basis Set:
  @DF-RHF Final Energy:  -232.23467637809864
    Total Energy =                       -232.2346763780986407
  Basis Set: CC-PVTZ
  Basis Set:
  Basis Set: CC-PVTZ
  Basis Set:
  @DF-RHF Final Energy:  -232.23502952219198
    Total Energy =                       -232.2350295221918941
  Basis Set: CC-PVTZ
  Basis Set:
  Basis Set: CC-PVTZ
  Basis Set:
  @DF-RHF Final Energy:  -232.23510771183601
    Total Energy =                       -232.2351077118360649
  Basis Set: CC-PVTZ
  Basis Set:
  Basis Set: CC-PVTZ
  Basis Set:
  @DF-RHF Final Energy:  -232.23512353095219
    Total Energy =                       -232.2351235309519666
  Basis Set: CC-PVTZ
  Basis Set:
  Basis Set: CC-PVTZ
  Basis Set:
  @DF-RHF Final Energy:  -232.23512484047595
    Total Energy =                       -232.2351248404759758
  Basis Set: CC-PVTZ
  Basis Set:
  Charge       = 0
  Multiplicity = 1
  Basis Set: CC-PVTZ
  Basis Set:

    Orbital Energies (a.u.)
    -----------------------

    Doubly Occupied:

       1A    -20.546253     2A    -11.267037     3A    -11.211727
       4A    -11.210580     5A    -11.195146     6A     -1.364424
       7A     -1.063698     8A     -0.971130     9A     -0.866277
      10A     -0.776465    11A     -0.706308    12A     -0.649585
      13A     -0.607923    14A     -0.572610    15A     -0.558398
      16A     -0.539411    17A     -0.507944    18A     -0.475040
      19A     -0.465381    20A     -0.453942    21A     -0.429482

  @DF-RHF Final Energy:  -232.23512492628450

   => Energetics <=

    Nuclear Repulsion Energy =            192.8031162455939409
    One-Electron Energy =                -697.1989603214609588
    Two-Electron Energy =                 272.1607191495825191
    DFT Exchange-Correlation Energy =       0.0000000000000000
    Empirical Dispersion Energy =           0.0000000000000000
    PCM Polarization Energy =               0.0000000000000000
    EFP Energy =                            0.0000000000000000
    Total Energy =                       -232.2351249262844703
    Molecular point group: c1
  Basis Set: CC-PVTZ
  Basis Set:

  -Total Gradient:
     Atom            X                  Y                   Z
    ------   -----------------  -----------------  -----------------
       1        0.000004551719    -0.000000793720    -0.000008736735
       2        0.000005961643     0.000028030951    -0.000018083174
       3       -0.000008072540    -0.000007516952     0.000010000934
       4       -0.001437938607    -0.001318319456     0.003750292228
       5        0.000006715418    -0.000000087995     0.000015228534
       6       -0.000005349077     0.000000036101     0.000005670930
       7       -0.000165579679     0.003043583502    -0.002813698805
       8        0.001218992925     0.000638451148    -0.002720380433
       9       -0.000001408150     0.000001954418     0.000009989806
      10       -0.000000784546     0.000001236510     0.000011677537
      11        0.000394569453    -0.002379042058     0.001766610825
      12       -0.000000128313    -0.000003226389     0.000000109764
      13       -0.000004981518    -0.000006669599    -0.000002862139
      14       -0.000004221979     0.000003561669    -0.000006679052
      15       -0.000002326747    -0.000001198130     0.000000859778

  **** Optimization is complete! (in 8 steps) ****
    Final optimized geometry and variables:
    Molecular point group: c1

    Geometry (in Angstrom), charge = 0, multiplicity = 1:

    H            0.140489482760     0.665809505111     2.458275700887
    O            0.333354018197     0.200007316500     1.665733035136
    C            0.469717292986     1.103039541107     0.598955275079
    C            0.783214357929     0.350433659797    -0.682244188122
    H            1.278111709595     1.799221255841     0.806498781163
    H           -0.440224259129     1.687622408764     0.473798007668
    C           -0.387259216851    -0.356224858532    -1.373511752270
    H            1.585274276400    -0.354779143368    -0.488482066353
    H            1.190520532376     1.072774888281    -1.385107537703
    C           -1.187384816970    -1.330167863761    -0.510016920591
    H            0.018512350644    -0.913820310977    -2.212235543158
    H           -1.059364271217     0.389844999969    -1.788451522589
    H           -1.934361841094    -1.834980926840    -1.113209167328
    H           -0.544068960585    -2.084034867125    -0.071387026545
    H           -1.694884968901    -0.828586225990     0.302468361109

  Mulliken Charges: (a.u.)
   Center  Symbol    Alpha    Beta     Spin     Total
       1     H     0.39593  0.39593  0.00000  0.20813
       2     O     4.19786  4.19786  0.00000 -0.39573
       3     C     2.98071  2.98071  0.00000  0.03857
       4     C     3.09453  3.09453  0.00000 -0.18906
       5     H     0.46015  0.46015  0.00000  0.07969
       6     H     0.47082  0.47082  0.00000  0.05836
       7     C     3.09235  3.09235  0.00000 -0.18470
       8     H     0.45025  0.45025  0.00000  0.09950
       9     H     0.45070  0.45070  0.00000  0.09861
      10     C     3.14039  3.14039  0.00000 -0.28077
      11     H     0.45126  0.45126  0.00000  0.09748
      12     H     0.45563  0.45563  0.00000  0.08873
      13     H     0.45284  0.45284  0.00000  0.09431
      14     H     0.45257  0.45257  0.00000  0.09487
      15     H     0.45400  0.45400  0.00000  0.09200

   Total alpha = 21.00000, Total beta = 21.00000, Total charge = -0.00000

*** Psi4 exiting successfully. Buy a developer a beer!
