                              Psi4 1.0.54 Driver

  ==> Input File <==

--------------------------------------------------------------------------
set {
	reference rhf
	basis cc-pvtz
}

set_num_threads( 4 )
memory 2 gb

molecule MOL {
0 1

O	 1.375487	 2.113505	 0.219694
C	 0.335336	 2.494013	 0.637231
C	 -0.953376	 1.712602	 0.621090
O	 0.167551	 3.686047	 1.186157
C	 -0.824290	 0.329213	 -0.000115
H	 -1.304602	 1.652032	 1.645991
H	 -1.686407	 2.313735	 0.093125
C	 -2.146151	 -0.432825	 -0.000068
H	 -0.073233	 -0.236222	 0.539764
H	 -0.455227	 0.426242	 -1.014840
C	 -3.366283	 0.483552	 0.000557
H	 -2.189286	 -1.084450	 -0.869996
H	 -2.188867	 -1.085083	 0.869399
C	 -4.687436	 -0.278003	 0.000108
H	 -3.325150	 1.134819	 -0.867957
H	 -3.325087	 1.133730	 0.869885
H	 -4.773783	 -0.912098	 -0.876078
H	 -5.531922	 0.401392	 0.000363
H	 -4.773901	 -0.912898	 0.875703
C	 1.299457	 4.528416	 1.266955
H	 2.075614	 4.068283	 1.860310
H	 0.961028	 5.437368	 1.737187
H	 1.687987	 4.740522	 0.281932

	symmetry c1
}
set optking {
	frozen_dihedral = ("
		9 5 8 12
	")
}

ee,wfn = optimize('scf', return_wfn=True)
oeprop( wfn, 'DIPOLE', 'QUADRUPOLE', 'MULLIKEN_CHARGES')
f=open( 'psi4out.xyz', 'w' )
f.write( "23  " )
f.write( str(ee) + "\n" )
f.write( MOL.save_string_xyz() )
f.close()
--------------------------------------------------------------------------

    Molecular point group: c1
  Charge       = 0
  Multiplicity = 1
  Basis Set: CC-PVTZ
  Basis Set:
  @DF-RHF Final Energy:  -423.12081618149006
    Total Energy =                       -423.1208161814893174
    Molecular point group: c1
  Basis Set: CC-PVTZ
  Basis Set:
  Basis Set: CC-PVTZ
  Basis Set:
  @DF-RHF Final Energy:  -423.09499123714988
    Total Energy =                       -423.0949912371497703
  Basis Set: CC-PVTZ
  Basis Set:
  Basis Set: CC-PVTZ
  Basis Set:
  @DF-RHF Final Energy:  -423.12276606883881
    Total Energy =                       -423.1227660688387004
  Basis Set: CC-PVTZ
  Basis Set:
  Basis Set: CC-PVTZ
  Basis Set:
  @DF-RHF Final Energy:  -423.12410915640078
    Total Energy =                       -423.1241091564008912
  Basis Set: CC-PVTZ
  Basis Set:
  @DF-RHF Final Energy:  -423.12367808674298
    Total Energy =                       -423.1236780867420748
  @DF-RHF Final Energy:  -423.12361403856789
    Total Energy =                       -423.1236140385682347
  Basis Set: CC-PVTZ
  Basis Set:
  @DF-RHF Final Energy:  -423.12424039187351
    Total Energy =                       -423.1242403918729451
  Basis Set: CC-PVTZ
  Basis Set:
  Basis Set: CC-PVTZ
  Basis Set:
  @DF-RHF Final Energy:  -423.12424156611843
    Total Energy =                       -423.1242415661185987
  Basis Set: CC-PVTZ
  Basis Set:
  Basis Set: CC-PVTZ
  Basis Set:
  @DF-RHF Final Energy:  -423.12426267890692
    Total Energy =                       -423.1242626789065753
  Basis Set: CC-PVTZ
  Basis Set:
  Charge       = 0
  Multiplicity = 1
  Basis Set: CC-PVTZ
  Basis Set:

    Orbital Energies (a.u.)
    -----------------------

    Doubly Occupied:

       1A    -20.595845     2A    -20.533830     3A    -11.364060
       4A    -11.278187     5A    -11.232785     6A    -11.217735
       7A    -11.217125     8A    -11.216107     9A    -11.209208
      10A     -1.471783    11A     -1.365393    12A     -1.093314
      13A     -1.042639    14A     -0.987302    15A     -0.933148
      16A     -0.853647    17A     -0.792737    18A     -0.761310
      19A     -0.701578    20A     -0.686277    21A     -0.674601
      22A     -0.649870    23A     -0.612592    24A     -0.602379
      25A     -0.577952    26A     -0.561059    27A     -0.551174
      28A     -0.527335    29A     -0.522425    30A     -0.512336
      31A     -0.495482    32A     -0.467296    33A     -0.463261
      34A     -0.457965    35A     -0.453170    36A     -0.440548

  @DF-RHF Final Energy:  -423.12426333341574

   => Energetics <=

    Nuclear Repulsion Energy =            459.3101184676719981
    One-Electron Energy =               -1486.6218517496990899
    Two-Electron Energy =                 604.1874699486112377
    DFT Exchange-Correlation Energy =       0.0000000000000000
    Empirical Dispersion Energy =           0.0000000000000000
    PCM Polarization Energy =               0.0000000000000000
    EFP Energy =                            0.0000000000000000
    Total Energy =                       -423.1242633334157972
    Molecular point group: c1
  Basis Set: CC-PVTZ
  Basis Set:

  -Total Gradient:
     Atom            X                  Y                   Z
    ------   -----------------  -----------------  -----------------
       1        0.000011187621    -0.000019589737    -0.000008910531
       2        0.000016731812     0.000017594965    -0.000040432423
       3        0.000024347922    -0.000028839605     0.000066879765
       4        0.000009601537     0.000031943396     0.000038450476
       5        0.003146707498    -0.002155176397    -0.007042002738
       6       -0.000004576901     0.000007141065    -0.000009420560
       7       -0.000016899635     0.000008399230    -0.000022738368
       8        0.002210388251    -0.005023968967     0.005625568643
       9       -0.002991332705     0.002562396175     0.005098097163
      10        0.000006997027     0.000002284286    -0.000003698182
      11       -0.000003265260    -0.000014141699     0.000050140620
      12       -0.002374526834     0.004616236073    -0.003710461287
      13       -0.000011751754     0.000013793217    -0.000004230712
      14        0.000001598870     0.000004627347    -0.000022060231
      15       -0.000007226389    -0.000019930507     0.000019314125
      16       -0.000006523254    -0.000006965556    -0.000033488756
      17        0.000000605642     0.000007669547     0.000021666166
      18        0.000005351347    -0.000000098374    -0.000002693199
      19        0.000012352485     0.000014514795    -0.000008494643
      20       -0.000032577437    -0.000020360019    -0.000013096628
      21        0.000003147887    -0.000001585064     0.000003671765
      22       -0.000004098730     0.000001944892     0.000001551884
      23        0.000003761008     0.000002110941    -0.000003612346

  **** Optimization is complete! (in 10 steps) ****
    Final optimized geometry and variables:
    Molecular point group: c1

    Geometry (in Angstrom), charge = 0, multiplicity = 1:

    O            2.304742821970     0.565670688353     0.315772813615
    C            1.194490452887     0.908180103838     0.541957246111
    C           -0.052811598297     0.134412630451     0.196396439100
    O            0.898049395972     2.048948873001     1.143971287661
    C            0.241488979465    -1.192844253636    -0.498471631755
    H           -0.598596732336    -0.014503984457     1.122284127891
    H           -0.668590409929     0.788265966325    -0.408622997797
    C           -0.997513215093    -2.062356344688    -0.789446549643
    H            0.902207599330    -1.739152691276     0.162439655704
    H            0.788613772550    -0.996518756059    -1.411061508270
    C           -2.298178847957    -1.313370406618    -1.091546744897
    H           -0.783392072586    -2.658876456852    -1.670573304562
    H           -1.170941449416    -2.747133415062     0.034201700756
    C           -3.430632126078    -2.258552714646    -1.480228215227
    H           -2.131900731937    -0.606320345390    -1.900133824476
    H           -2.608500475582    -0.728891463313    -0.232125098684
    H           -3.178688498615    -2.828609224962    -2.368073442991
    H           -4.344281863691    -1.712745594449    -1.685637677916
    H           -3.639745329443    -2.965471048743    -0.684113013690
    C            1.975020421858     2.880411417768     1.525327949197
    H            2.622098469949     2.370454441378     2.223566257172
    H            1.532523682242     3.745538825869     1.991917964112
    H            2.552374871864     3.176908093197     0.662168557705

  Mulliken Charges: (a.u.)
   Center  Symbol    Alpha    Beta     Spin     Total
       1     O     4.19671  4.19671  0.00000 -0.39342
       2     C     2.81199  2.81199  0.00000  0.37601
       3     C     3.10091  3.10091  0.00000 -0.20181
       4     O     4.14656  4.14656  0.00000 -0.29313
       5     C     3.09064  3.09064  0.00000 -0.18129
       6     H     0.43900  0.43900  0.00000  0.12200
       7     H     0.43655  0.43655  0.00000  0.12691
       8     C     3.09449  3.09449  0.00000 -0.18899
       9     H     0.44254  0.44254  0.00000  0.11491
      10     H     0.44369  0.44369  0.00000  0.11261
      11     C     3.09253  3.09253  0.00000 -0.18505
      12     H     0.44976  0.44976  0.00000  0.10047
      13     H     0.45054  0.45054  0.00000  0.09892
      14     C     3.15092  3.15092  0.00000 -0.30183
      15     H     0.45265  0.45265  0.00000  0.09469
      16     H     0.45160  0.45160  0.00000  0.09679
      17     H     0.45386  0.45386  0.00000  0.09227
      18     H     0.44782  0.44782  0.00000  0.10435
      19     H     0.45487  0.45487  0.00000  0.09025
      20     C     3.03845  3.03845  0.00000 -0.07689
      21     H     0.45428  0.45428  0.00000  0.09143
      22     H     0.44519  0.44519  0.00000  0.10963
      23     H     0.45442  0.45442  0.00000  0.09116

   Total alpha = 36.00000, Total beta = 36.00000, Total charge = -0.00000

*** Psi4 exiting successfully. Buy a developer a beer!
