  ==> Input File <==

--------------------------------------------------------------------------
set {
	reference rhf
	basis cc-pvtz
}

set_num_threads( 4 )
memory 2 gb

molecule MOL {
0 1

H	 1.333048	 -2.155592	 -0.864332
C	 0.543516	 -2.536387	 -0.203053
C	 -0.751070	 -1.773032	 -0.249244
O	 0.747942	 -3.479635	 0.479682
C	 -0.554654	 -0.292621	 0.086567
H	 -1.450222	 -2.242036	 0.430506
H	 -1.147110	 -1.864687	 -1.258516
C	 -1.846385	 0.513195	 -0.016346
H	 -0.153731	 -0.204939	 1.092306
H	 0.189514	 0.135510	 -0.580209
C	 -3.089953	 -0.365049	 -0.098564
H	 -1.798267	 1.154820	 -0.891143
H	 -1.925398	 1.173265	 0.842889
H	 -3.055079	 -1.012299	 -0.968245
H	 -3.988403	 0.236438	 -0.170014
H	 -3.183055	 -0.995885	 0.779079

	symmetry c1
}
set optking {
	frozen_dihedral = ("
		9 5 8 12
	")
}

ee = optimize('scf')
oeprop('DIPOLE', 'QUADRUPOLE', 'MULLIKEN_CHARGES')
f=open( 'psi4out.xyz', 'w' )
f.write( "16  " )
f.write( str(ee) + "\n" )
f.write( MOL.save_string_xyz() )
f.close()
--------------------------------------------------------------------------

    Molecular point group: c1
  Charge       = 0
  Multiplicity = 1
  Basis Set: CC-PVTZ
  Basis Set:
  @DF-RHF Final Energy:  -270.10663139356376
    Total Energy =                       -270.1066313935638732
    Molecular point group: c1
  Basis Set: CC-PVTZ
  Basis Set:
  Basis Set: CC-PVTZ
  Basis Set:
  @DF-RHF Final Energy:  -270.10766472374138
    Total Energy =                       -270.1076647237413795
  Basis Set: CC-PVTZ
  Basis Set:
  Basis Set: CC-PVTZ
  Basis Set:
  @DF-RHF Final Energy:  -270.11044113943433
    Total Energy =                       -270.1104411394341582
  Basis Set: CC-PVTZ
  Basis Set:
  Basis Set: CC-PVTZ
  Basis Set:
  @DF-RHF Final Energy:  -270.11054452236624
    Total Energy =                       -270.1105445223660126
  Basis Set: CC-PVTZ
  Basis Set:
  Basis Set: CC-PVTZ
  Basis Set:
  @DF-RHF Final Energy:  -270.11069325256051
    Total Energy =                       -270.1106932525606226
  Basis Set: CC-PVTZ
  Basis Set:
  Basis Set: CC-PVTZ
  Basis Set:
  @DF-RHF Final Energy:  -270.11081749574464
    Total Energy =                       -270.1108174957446408
  Basis Set: CC-PVTZ
  Basis Set:
  Basis Set: CC-PVTZ
  Basis Set:
  @DF-RHF Final Energy:  -270.11082533047977
    Total Energy =                       -270.1108253304797699
  Basis Set: CC-PVTZ
  Basis Set:
  Charge       = 0
  Multiplicity = 1
  Basis Set: CC-PVTZ
  Basis Set:

    Orbital Energies (a.u.)
    -----------------------

    Doubly Occupied:

       1A    -20.551936     2A    -11.321052     3A    -11.234874
       4A    -11.233775     5A    -11.227773     6A    -11.217073
       7A     -1.406725     8A     -1.094279     9A     -1.016134
      10A     -0.916707    11A     -0.811572    12A     -0.786125
      13A     -0.681199    14A     -0.646437    15A     -0.638648
      16A     -0.593640    17A     -0.579201    18A     -0.563431
      19A     -0.537874    20A     -0.516014    21A     -0.487207
      22A     -0.478898    23A     -0.464300    24A     -0.412162

  @DF-RHF Final Energy:  -270.11082586558962

   => Energetics <=

    Nuclear Repulsion Energy =            232.5592099805726889
    One-Electron Energy =                -826.5059973817407126
    Two-Electron Energy =                 323.8359615355784626
    DFT Exchange-Correlation Energy =       0.0000000000000000
    Empirical Dispersion Energy =           0.0000000000000000
    PCM Polarization Energy =               0.0000000000000000
    EFP Energy =                            0.0000000000000000
    Total Energy =                       -270.1108258655895042
    Molecular point group: c1
  Basis Set: CC-PVTZ
  Basis Set:

  -Total Gradient:
     Atom            X                  Y                   Z
    ------   -----------------  -----------------  -----------------
       1        0.000009876962     0.000016646003     0.000024068721
       2       -0.000008332969    -0.000013659691    -0.000037565428
       3        0.000020033345     0.000042350733     0.000050200333
       4       -0.000006666454    -0.000009745471    -0.000001599063
       5       -0.003140476290    -0.004327458784     0.002513177378
       6        0.000001586239     0.000010188378    -0.000005658744
       7        0.000005802213    -0.000018801633    -0.000016614448
       8       -0.002018333202    -0.003788658965    -0.003992799208
       9        0.002962705798     0.004201623152    -0.001479038884
      10       -0.000007884627    -0.000009883369    -0.000001738487
      11        0.000004571004     0.000015754336    -0.000000809485
      12        0.002169983837     0.003869940472     0.002950523780
      13       -0.000005570226    -0.000001974821    -0.000005211844
      14        0.000006398892     0.000002087074    -0.000002890523
      15        0.000002335680     0.000006653429     0.000000126849
      16        0.000003969802     0.000004939153     0.000005829052

  **** Optimization is complete! (in 8 steps) ****
    Final optimized geometry and variables:
    Molecular point group: c1

    Geometry (in Angstrom), charge = 0, multiplicity = 1:

    H            2.244712899558    -0.740510938174    -0.823709418402
    C            1.457292848069    -1.181314401514    -0.198245909155
    C            0.117241618983    -0.503937035378    -0.284818755507
    O            1.696747515705    -2.119071464830     0.480631277986
    C            0.223945541213     0.974976837044     0.096491563725
    H           -0.574275367085    -1.040909381692     0.348070378514
    H           -0.222516413369    -0.594499082636    -1.314008526844
    C           -1.063377558209     1.819863456028    -0.053214167195
    H            0.603343027350     1.067369142471     1.108489962953
    H            0.993063510732     1.427618437098    -0.523075133445
    C           -2.389349960145     1.065745185185    -0.068444654255
    H           -0.979402541388     2.445911532488    -0.934933612043
    H           -1.088521219590     2.522861946300     0.772974192290
    H           -2.468190547878     0.390722755430    -0.911939787583
    H           -3.212832055263     1.766856091273    -0.134726461788
    H           -2.527153963579     0.484451656220     0.836321670644

  Mulliken Charges: (a.u.)
   Center  Symbol    Alpha    Beta     Spin     Total
       1     H     0.46502  0.46502  0.00000  0.06995
       2     C     2.91230  2.91230  0.00000  0.17540
       3     C     3.07954  3.07954  0.00000 -0.15908
       4     O     4.16341  4.16341  0.00000 -0.32682
       5     C     3.10952  3.10952  0.00000 -0.21905
       6     H     0.44035  0.44035  0.00000  0.11930
       7     H     0.44848  0.44848  0.00000  0.10304
       8     C     3.08836  3.08836  0.00000 -0.17671
       9     H     0.44282  0.44282  0.00000  0.11436
      10     H     0.44972  0.44972  0.00000  0.10057
      11     C     3.15557  3.15557  0.00000 -0.31114
      12     H     0.44993  0.44993  0.00000  0.10014
      13     H     0.44925  0.44925  0.00000  0.10150
      14     H     0.45287  0.45287  0.00000  0.09426
      15     H     0.44274  0.44274  0.00000  0.11452
      16     H     0.45012  0.45012  0.00000  0.09976

   Total alpha = 24.00000, Total beta = 24.00000, Total charge = -0.00000
