  ==> Input File <==

--------------------------------------------------------------------------
set {
	reference rhf
	basis cc-pvtz
}

set_num_threads( 4 )
memory 2 gb

molecule MOL {
0 1

H	 1.346801	 -1.371155	 0.164348
C	 0.774336	 -0.442633	 0.204087
N	 -0.537714	 -0.645117	 0.000000
O	 1.296375	 0.607407	 0.408073
C	 -1.522613	 0.412524	 0.000000
H	 -0.835217	 -1.575924	 -0.158347
H	 -2.150256	 0.356137	 -0.880771
H	 -1.005621	 1.357208	 0.000000
H	 -2.150256	 0.356137	 0.880771

	symmetry c1
}
set optking {
	frozen_dihedral = ("
		6 3 5 7
	")
}

ee = optimize('scf')
oeprop('DIPOLE', 'QUADRUPOLE', 'MULLIKEN_CHARGES')
f=open( 'psi4out.xyz', 'w' )
f.write( "9  " )
f.write( str(ee) + "\n" )
f.write( MOL.save_string_xyz() )
f.close()
--------------------------------------------------------------------------

    Molecular point group: c1
  Charge       = 0
  Multiplicity = 1
  Basis Set: CC-PVTZ
  Basis Set:
  @DF-RHF Final Energy:  -208.04354439080606
    Total Energy =                       -208.0435443908062041
    Molecular point group: c1
  Basis Set: CC-PVTZ
  Basis Set:
  Basis Set: CC-PVTZ
  Basis Set:
  @DF-RHF Final Energy:  -208.04356741678509
    Total Energy =                       -208.0435674167850379
  Basis Set: CC-PVTZ
  Basis Set:
  Basis Set: CC-PVTZ
  Basis Set:
  @DF-RHF Final Energy:  -208.04357008285535
    Total Energy =                       -208.0435700828554388
  Basis Set: CC-PVTZ
  Basis Set:
  Basis Set: CC-PVTZ
  Basis Set:
  @DF-RHF Final Energy:  -208.04358431630362
    Total Energy =                       -208.0435843163036225
  Basis Set: CC-PVTZ
  Basis Set:
  Basis Set: CC-PVTZ
  Basis Set:
  @DF-RHF Final Energy:  -208.04359293967940
    Total Energy =                       -208.0435929396793711
  Basis Set: CC-PVTZ
  Basis Set:
  Basis Set: CC-PVTZ
  Basis Set:
  @DF-RHF Final Energy:  -208.04359407154641
    Total Energy =                       -208.0435940715464653
  Basis Set: CC-PVTZ
  Basis Set:
  Charge       = 0
  Multiplicity = 1
  Basis Set: CC-PVTZ
  Basis Set:

    Orbital Energies (a.u.)
    -----------------------

    Doubly Occupied:

       1A    -20.516189     2A    -15.585030     3A    -11.337491
       4A    -11.259282     5A     -1.393702     6A     -1.239866
       7A     -0.970361     8A     -0.808270     9A     -0.748786
      10A     -0.646371    11A     -0.629428    12A     -0.596811
      13A     -0.555354    14A     -0.542002    15A     -0.428299
      16A     -0.396030

  @DF-RHF Final Energy:  -208.04359412894479

   => Energetics <=

    Nuclear Repulsion Energy =            122.7199616984285200
    One-Electron Energy =                -526.2205666739246226
    Two-Electron Energy =                 195.4570108465512988
    DFT Exchange-Correlation Energy =       0.0000000000000000
    Empirical Dispersion Energy =           0.0000000000000000
    PCM Polarization Energy =               0.0000000000000000
    EFP Energy =                            0.0000000000000000
    Total Energy =                       -208.0435941289448181
    Molecular point group: c1
  Basis Set: CC-PVTZ
  Basis Set:

  -Total Gradient:
     Atom            X                  Y                   Z
    ------   -----------------  -----------------  -----------------
       1        0.000002879618    -0.000003884212     0.000001272957
       2        0.000003186802    -0.000019906618    -0.000006456997
       3        0.000046232190     0.000060469848    -0.000221231800
       4       -0.000016231428     0.000003833920    -0.000000629493
       5       -0.000107020843    -0.000104911001     0.000140394837
       6       -0.000008175292    -0.000020172187     0.000159098741
       7        0.000080589403     0.000082607050    -0.000071892878
       8       -0.000001701015     0.000004171851    -0.000000616094
       9        0.000000240565    -0.000002208650     0.000000060727

  **** Optimization is complete! (in 7 steps) ****
    Final optimized geometry and variables:
    Molecular point group: c1

    Geometry (in Angstrom), charge = 0, multiplicity = 1:

    H            1.359896655127    -1.360813998182     0.010191728734
    C            0.784071771029    -0.434503973008     0.057078996532
    N           -0.519909569910    -0.630543857350    -0.200170741097
    O            1.295635025816     0.611621683963     0.302639225424
    C           -1.507335996283     0.424121547867    -0.160718091232
    H           -0.822083943255    -1.563972103886    -0.332830751326
    H           -2.171198507102     0.343855245707    -1.011370863751
    H           -0.997720148230     1.372308687115    -0.202398470254
    H           -2.095973240091     0.386361172882     0.748559565057

  Mulliken Charges: (a.u.)
   Center  Symbol    Alpha    Beta     Spin     Total
       1     H     0.46297  0.46297  0.00000  0.07407
       2     C     2.88098  2.88098  0.00000  0.23803
       3     N     3.60778  3.60778  0.00000 -0.21557
       4     O     4.21481  4.21481  0.00000 -0.42962
       5     C     3.08060  3.08060  0.00000 -0.16121
       6     H     0.40978  0.40978  0.00000  0.18043
       7     H     0.45400  0.45400  0.00000  0.09201
       8     H     0.43373  0.43373  0.00000  0.13254
       9     H     0.45535  0.45535  0.00000  0.08931

   Total alpha = 16.00000, Total beta = 16.00000, Total charge = -0.00000
