  ==> Input File <==

--------------------------------------------------------------------------
set {
	reference rhf
	basis 6-31G*
}

set_num_threads( 4 )
memory 2 gb

molecule MOL {
0 1

O	 0.245889	 0.083504	 2.110099
C	 0.018324	 0.579807	 1.039305
C	 -0.990318	 1.707141	 0.921642
N	 0.623947	 0.147590	 -0.102813
H	 -1.804351	 1.444204	 0.255084
H	 -1.386168	 1.890110	 1.908998
H	 -0.530717	 2.616363	 0.549267
C	 1.665360	 -0.855771	 0.000151
C	 0.559922	 0.846088	 -1.367822
H	 2.465253	 -0.618490	 -0.692587
H	 1.257730	 -1.821716	 -0.242189
H	 2.081488	 -0.891645	 1.004627
H	 0.607243	 0.123839	 -2.174144
H	 -0.363773	 1.392518	 -1.473351
H	 1.388855	 1.540755	 -1.490783

	symmetry c1
}
set optking {
	frozen_dihedral = ("
		2 4 8 10
	")
}

ee = optimize('scf')
oeprop('DIPOLE', 'QUADRUPOLE', 'MULLIKEN_CHARGES')
f=open( 'psi4out.xyz', 'w' )
f.write( "15  " )
f.write( str(ee) + "\n" )
f.write( MOL.save_string_xyz() )
f.close()
--------------------------------------------------------------------------

    Molecular point group: c1
  Charge       = 0
  Multiplicity = 1
  Basis Set: 6-31G*
  Basis Set:
  @DF-RHF Final Energy:  -286.02804863744029
    Total Energy =                       -286.0280486374404063
    Molecular point group: c1
  Basis Set: 6-31G*
  Basis Set:
  Basis Set: 6-31G*
  Basis Set:
  @DF-RHF Final Energy:  -286.02874706191574
    Total Energy =                       -286.0287470619156238
  Basis Set: 6-31G*
  Basis Set:
  Basis Set: 6-31G*
  Basis Set:
  @DF-RHF Final Energy:  -286.02888024973896
    Total Energy =                       -286.0288802497387906
  Basis Set: 6-31G*
  Basis Set:
  Basis Set: 6-31G*
  Basis Set:
  @DF-RHF Final Energy:  -286.02905809522935
    Total Energy =                       -286.0290580952297432
  Basis Set: 6-31G*
  Basis Set:
  @DF-RHF Final Energy:  -286.02917855640646
    Total Energy =                       -286.0291785564065776
  @DF-RHF Final Energy:  -286.02926619227054
    Total Energy =                       -286.0292661922706543
  @DF-RHF Final Energy:  -286.02933194751984
    Total Energy =                       -286.0293319475197222
  @DF-RHF Final Energy:  -286.02943154637296
    Total Energy =                       -286.0294315463729049
  @DF-RHF Final Energy:  -286.02949803785066
    Total Energy =                       -286.0294980378505443
  @DF-RHF Final Energy:  -286.02964087811415
    Total Energy =                       -286.0296408781140372
  @DF-RHF Final Energy:  -286.02975322560519
    Total Energy =                       -286.0297532256050772
  @DF-RHF Final Energy:  -286.02976491991006
    Total Energy =                       -286.0297649199102352
  Basis Set: 6-31G*
  Basis Set:
  @DF-RHF Final Energy:  -286.02980222649467
    Total Energy =                       -286.0298022264947235
  Basis Set: 6-31G*
  Basis Set:
  Basis Set: 6-31G*
  Basis Set:
  @DF-RHF Final Energy:  -286.02981076580181
    Total Energy =                       -286.0298107658016988
  Basis Set: 6-31G*
  Basis Set:
  Basis Set: 6-31G*
  Basis Set:
  @DF-RHF Final Energy:  -286.02981430375257
    Total Energy =                       -286.0298143037524028
  Basis Set: 6-31G*
  Basis Set:
  Charge       = 0
  Multiplicity = 1
  Basis Set: 6-31G*
  Basis Set:

    Orbital Energies (a.u.)
    -----------------------

    Doubly Occupied:

       1A    -20.513896     2A    -15.584066     3A    -11.341697
       4A    -11.266456     5A    -11.247761     6A    -11.228293
       7A     -1.383958     8A     -1.243755     9A     -1.014203
      10A     -0.972732    11A     -0.919373    12A     -0.737983
      13A     -0.681103    14A     -0.659284    15A     -0.651314
      16A     -0.589403    17A     -0.576045    18A     -0.567354
      19A     -0.561515    20A     -0.546933    21A     -0.529607
      22A     -0.503707    23A     -0.409948    24A     -0.366327

  @DF-RHF Final Energy:  -286.02981468235919

   => Energetics <=

    Nuclear Repulsion Energy =            252.3589664570053230
    One-Electron Energy =                -888.5841361624438832
    Two-Electron Energy =                 350.1953550230795145
    DFT Exchange-Correlation Energy =       0.0000000000000000
    Empirical Dispersion Energy =           0.0000000000000000
    PCM Polarization Energy =               0.0000000000000000
    EFP Energy =                            0.0000000000000000
    Total Energy =                       -286.0298146823590741
    Molecular point group: c1
  Basis Set: 6-31G*
  Basis Set:

  -Total Gradient:
     Atom            X                  Y                   Z
    ------   -----------------  -----------------  -----------------
       1        0.000002171900     0.000004730427    -0.000000960877
       2        0.000030377176     0.000031590564     0.000027057535
       3       -0.000030258966    -0.000023296977    -0.000007146882
       4       -0.000038506742    -0.000024174738     0.000001808669
       5        0.000005493214     0.000008285908     0.000005837227
       6        0.000005037443     0.000002797378     0.000001857814
       7        0.000010499374     0.000004100691     0.000000020692
       8       -0.000009378875    -0.000026949830    -0.000053418627
       9        0.000012733995     0.000001002302    -0.000010858320
      10        0.000013223867     0.000018960193     0.000038595216
      11       -0.000000866892     0.000003137183    -0.000001297444
      12       -0.000000835714     0.000003116995     0.000005435364
      13        0.000002296680    -0.000004366452    -0.000004520064
      14       -0.000001002981    -0.000006270700     0.000002719947
      15       -0.000000983477     0.000007337058    -0.000005130251

  **** Optimization is complete! (in 16 steps) ****
    Final optimized geometry and variables:
    Molecular point group: c1

    Geometry (in Angstrom), charge = 0, multiplicity = 1:

    O           -0.193982065389    -0.414940262046     1.660289646522
    C           -0.349240910969     0.153649083530     0.612707530998
    C           -1.413085428590     1.227403754882     0.480278407901
    N            0.421308269598    -0.115049271254    -0.478858076332
    H           -2.153185971415     0.966081524104    -0.268352048608
    H           -1.898439615765     1.320295267119     1.439873259606
    H           -0.980595116216     2.183587937222     0.206653882811
    C            1.375324935102    -1.204250245730    -0.408024639881
    C            0.145761266630     0.379442564304    -1.809802911281
    H            2.294377699393    -0.914088049249    -0.905582125038
    H            0.989834448535    -2.097493822352    -0.894633358584
    H            1.583768354156    -1.431261736565     0.622919531082
    H           -0.447691799116    -0.325357890517    -2.389279995347
    H           -0.373529516342     1.324092391820    -1.783287499678
    H            1.082697987825     0.534966534379    -2.331594964183

  Mulliken Charges: (a.u.)
   Center  Symbol    Alpha    Beta     Spin     Total
       1     O     4.30484  4.30484  0.00000 -0.60968
       2     C     2.62337  2.62337  0.00000  0.75326
       3     C     3.29878  3.29878  0.00000 -0.59757
       4     N     3.82385  3.82385  0.00000 -0.64771
       5     H     0.40783  0.40783  0.00000  0.18435
       6     H     0.39040  0.39040  0.00000  0.21919
       7     H     0.40660  0.40660  0.00000  0.18681
       8     C     3.14545  3.14545  0.00000 -0.29091
       9     C     3.14164  3.14164  0.00000 -0.28328
      10     H     0.41879  0.41879  0.00000  0.16242
      11     H     0.41997  0.41997  0.00000  0.16007
      12     H     0.38410  0.38410  0.00000  0.23180
      13     H     0.41654  0.41654  0.00000  0.16693
      14     H     0.40712  0.40712  0.00000  0.18576
      15     H     0.41073  0.41073  0.00000  0.17855

   Total alpha = 24.00000, Total beta = 24.00000, Total charge =  0.00000
