                              Psi4 1.0.54 Driver

  ==> Input File <==

--------------------------------------------------------------------------
set {
	reference rhf
	basis cc-pvtz
}

set_num_threads( 4 )
memory 2 gb

molecule MOL {
0 1

O	 0.623971	 1.347241	 -0.000777
C	 0.485107	 0.171416	 -0.000134
C	 1.606966	 -0.836201	 0.000174
O	 -0.695554	 -0.422406	 0.000602
C	 2.988788	 -0.202529	 -0.000115
H	 1.465110	 -1.474645	 -0.864821
H	 1.465209	 -1.474077	 0.865596
H	 3.131767	 0.419673	 -0.873407
H	 3.750876	 -0.972315	 0.000098
H	 3.131883	 0.420264	 0.872742
C	 -1.720039	 0.140150	 0.808221
C	 -2.959283	 -0.707191	 0.638584
H	 -1.892279	 1.161524	 0.499227
H	 -1.389005	 0.157733	 1.837021
H	 -3.280690	 -0.718095	 -0.395317
H	 -3.763199	 -0.304300	 1.243259
H	 -2.774594	 -1.727577	 0.950148

	symmetry c1
}
set optking {
	frozen_dihedral = ("
		11 4 2 3
	")
}

ee,wfn = optimize('scf', return_wfn=True)
oeprop( wfn, 'DIPOLE', 'QUADRUPOLE', 'MULLIKEN_CHARGES')
f=open( 'psi4out.xyz', 'w' )
f.write( "17  " )
f.write( str(ee) + "\n" )
f.write( MOL.save_string_xyz() )
f.close()
--------------------------------------------------------------------------

    Molecular point group: c1
  Charge       = 0
  Multiplicity = 1
  Basis Set: CC-PVTZ
  Basis Set:
  @DF-RHF Final Energy:  -345.03277174019098
    Total Energy =                       -345.0327717401910377
    Molecular point group: c1
  Basis Set: CC-PVTZ
  Basis Set:
  Basis Set: CC-PVTZ
  Basis Set:
  @DF-RHF Final Energy:  -345.03013445878366
    Total Energy =                       -345.0301344587830954
  Basis Set: CC-PVTZ
  Basis Set:
  Basis Set: CC-PVTZ
  Basis Set:
  @DF-RHF Final Energy:  -345.03324301008905
    Total Energy =                       -345.0332430100891088
  Basis Set: CC-PVTZ
  Basis Set:
  Basis Set: CC-PVTZ
  Basis Set:
  @DF-RHF Final Energy:  -345.03344537206692
    Total Energy =                       -345.0334453720669217
  Basis Set: CC-PVTZ
  Basis Set:
  Basis Set: CC-PVTZ
  Basis Set:
  @DF-RHF Final Energy:  -345.03350076706863
    Total Energy =                       -345.0335007670685172
  Basis Set: CC-PVTZ
  Basis Set:
  Basis Set: CC-PVTZ
  Basis Set:
  @DF-RHF Final Energy:  -345.03350790024285
    Total Energy =                       -345.0335079002430803
  Basis Set: CC-PVTZ
  Basis Set:
  Charge       = 0
  Multiplicity = 1
  Basis Set: CC-PVTZ
  Basis Set:

    Orbital Energies (a.u.)
    -----------------------

    Doubly Occupied:

       1A    -20.586123     2A    -20.536513     3A    -11.364855
       4A    -11.285492     5A    -11.237333     6A    -11.220942
       7A    -11.214719     8A     -1.466033     9A     -1.365673
      10A     -1.069557    11A     -1.033667    12A     -0.910305
      13A     -0.852182    14A     -0.772968    15A     -0.700393
      16A     -0.686494    17A     -0.667053    18A     -0.631256
      19A     -0.591787    20A     -0.570805    21A     -0.557905
      22A     -0.526851    23A     -0.522680    24A     -0.516417
      25A     -0.504283    26A     -0.495196    27A     -0.454758
      28A     -0.437109

  @DF-RHF Final Energy:  -345.03350848323237

   => Energetics <=

    Nuclear Repulsion Energy =            314.9729464582495666
    One-Electron Energy =               -1094.4542118715926335
    Two-Electron Energy =                 434.4477569301106996
    DFT Exchange-Correlation Energy =       0.0000000000000000
    Empirical Dispersion Energy =           0.0000000000000000
    PCM Polarization Energy =               0.0000000000000000
    EFP Energy =                            0.0000000000000000
    Total Energy =                       -345.0335084832323673
    Molecular point group: c1
  Basis Set: CC-PVTZ
  Basis Set:

  -Total Gradient:
     Atom            X                  Y                   Z
    ------   -----------------  -----------------  -----------------
       1        0.000034714355     0.000025415689    -0.000057019243
       2        0.001445058837    -0.001244532264    -0.006638170698
       3       -0.000254391799    -0.000897983574     0.006414139695
       4       -0.003031609502     0.006971758928    -0.004977429483
       5       -0.000031152201     0.000014644700     0.000065474145
       6        0.000037180928     0.000098136486     0.000109082698
       7       -0.000008150782     0.000069020121    -0.000024451709
       8       -0.000003765622    -0.000028959303     0.000042082332
       9       -0.000002432821     0.000025122422     0.000002681876
      10       -0.000021783818    -0.000056495008    -0.000075189407
      11        0.001852895819    -0.004970954153     0.005145138619
      12       -0.000010098861    -0.000003953828     0.000016365535
      13       -0.000005470800     0.000011351011     0.000013144541
      14        0.000000205705    -0.000002268054    -0.000034023794
      15        0.000001869897     0.000004282057     0.000002921041
      16        0.000001217804    -0.000007554016    -0.000006965596
      17       -0.000004287135    -0.000007031209     0.000002219446

  **** Optimization is complete! (in 7 steps) ****
    Final optimized geometry and variables:
    Molecular point group: c1

    Geometry (in Angstrom), charge = 0, multiplicity = 1:

    O            0.621898098407     1.408740742712     0.069542793788
    C            0.462661169761     0.259982846644    -0.157206160551
    C            1.565446284284    -0.763065209756    -0.240893245484
    O           -0.739779919371    -0.299081546828    -0.272267536406
    C            2.956452494573    -0.159686673106    -0.347007352034
    H            1.352428546906    -1.429070299308    -1.068320973138
    H            1.467284872963    -1.365598969371     0.657349296854
    H            3.056027151944     0.431343293736    -1.248416576928
    H            3.703031837121    -0.944050583375    -0.371633026737
    H            3.164710469774     0.486808009486     0.493997462862
    C           -1.777472243702     0.193277605729     0.564991089997
    C           -2.999529597578    -0.666586325617     0.344621972985
    H           -1.975526269972     1.228038216250     0.326733723084
    H           -1.443519906294     0.144228796609     1.594279031030
    H           -3.322797170477    -0.612992036681    -0.687191902992
    H           -3.809336613159    -0.321015328828     0.976396482985
    H           -2.792791701363    -1.701704583729     0.585446872075

  Mulliken Charges: (a.u.)
   Center  Symbol    Alpha    Beta     Spin     Total
       1     O     4.18878  4.18878  0.00000 -0.37756
       2     C     2.80835  2.80835  0.00000  0.38331
       3     C     3.09192  3.09192  0.00000 -0.18384
       4     O     4.15979  4.15979  0.00000 -0.31959
       5     C     3.14053  3.14053  0.00000 -0.28105
       6     H     0.43898  0.43898  0.00000  0.12205
       7     H     0.44647  0.44647  0.00000  0.10706
       8     H     0.45009  0.45009  0.00000  0.09983
       9     H     0.45050  0.45050  0.00000  0.09899
      10     H     0.44586  0.44586  0.00000  0.10829
      11     C     2.97847  2.97847  0.00000  0.04306
      12     C     3.13373  3.13373  0.00000 -0.26746
      13     H     0.44687  0.44687  0.00000  0.10626
      14     H     0.46288  0.46288  0.00000  0.07425
      15     H     0.44932  0.44932  0.00000  0.10136
      16     H     0.45531  0.45531  0.00000  0.08939
      17     H     0.45217  0.45217  0.00000  0.09566

   Total alpha = 28.00000, Total beta = 28.00000, Total charge =  0.00000

*** Psi4 exiting successfully. Buy a developer a beer!
