  ==> Input File <==

--------------------------------------------------------------------------
set {
	reference rhf
	basis cc-pvtz
}

set_num_threads( 4 )
memory 2 gb

molecule MOL {
0 1

H	 1.114968	 0.135034	 0.874954
C	 0.788096	 -0.429819	 0.000000
N	 -0.537714	 -0.645117	 0.000000
O	 1.555482	 -0.793123	 -0.834175
C	 -1.522613	 0.412524	 0.000000
H	 -0.845894	 -1.585866	 0.000000
H	 -2.150256	 0.356137	 -0.880771
H	 -1.005621	 1.357208	 0.000000
H	 -2.150256	 0.356137	 0.880771

	symmetry c1
}
set optking {
	frozen_dihedral = ("
		1 2 3 6
	")
}

ee = optimize('scf')
oeprop('DIPOLE', 'QUADRUPOLE', 'MULLIKEN_CHARGES')
f=open( 'psi4out.xyz', 'w' )
f.write( "9  " )
f.write( str(ee) + "\n" )
f.write( MOL.save_string_xyz() )
f.close()
--------------------------------------------------------------------------

    Molecular point group: c1
  Charge       = 0
  Multiplicity = 1
  Basis Set: CC-PVTZ
  Basis Set:
  @DF-RHF Final Energy:  -208.01184024114934
    Total Energy =                       -208.0118402411492013
    Molecular point group: c1
  Basis Set: CC-PVTZ
  Basis Set:
  Basis Set: CC-PVTZ
  Basis Set:
  @DF-RHF Final Energy:  -208.01709681360182
    Total Energy =                       -208.0170968136018246
  Basis Set: CC-PVTZ
  Basis Set:
  Basis Set: CC-PVTZ
  Basis Set:
  @DF-RHF Final Energy:  -208.02222175043624
    Total Energy =                       -208.0222217504362447
  Basis Set: CC-PVTZ
  Basis Set:
  Basis Set: CC-PVTZ
  Basis Set:
  @DF-RHF Final Energy:  -208.02677616349797
    Total Energy =                       -208.0267761634979706
  Basis Set: CC-PVTZ
  Basis Set:
  @DF-RHF Final Energy:  -208.02731764757186
    Total Energy =                       -208.0273176475719765
  @DF-RHF Final Energy:  -208.02753916322050
    Total Energy =                       -208.0275391632204958
  @DF-RHF Final Energy:  -208.02761236310556
    Total Energy =                       -208.0276123631055611
  @DF-RHF Final Energy:  -208.02778624051956
    Total Energy =                       -208.0277862405195606
  @DF-RHF Final Energy:  -208.02783339584795
    Total Energy =                       -208.0278333958479777
  @DF-RHF Final Energy:  -208.02787654037229
    Total Energy =                       -208.0278765403723469
  @DF-RHF Final Energy:  -208.02656481466266
    Total Energy =                       -208.0265648146627200
  @DF-RHF Final Energy:  -208.02798492391474
    Total Energy =                       -208.0279849239147723
  @DF-RHF Final Energy:  -208.02824015361020
    Total Energy =                       -208.0282401536102270
  @DF-RHF Final Energy:  -208.02828789499961
    Total Energy =                       -208.0282878949996643
  @DF-RHF Final Energy:  -208.02831352531928
    Total Energy =                       -208.0283135253193336
  @DF-RHF Final Energy:  -208.02832290517495
    Total Energy =                       -208.0283229051749458
  @DF-RHF Final Energy:  -208.02832866261792
    Total Energy =                       -208.0283286626178949
  @DF-RHF Final Energy:  -208.02833098921596
    Total Energy =                       -208.0283309892160162
  @DF-RHF Final Energy:  -208.02832584548275
    Total Energy =                       -208.0283258454828115
  @DF-RHF Final Energy:  -208.02833046411558
    Total Energy =                       -208.0283304641155837
  @DF-RHF Final Energy:  -208.02833030339391
    Total Energy =                       -208.0283303033937727
  @DF-RHF Final Energy:  -208.02833026223868
    Total Energy =                       -208.0283302622386827
  @DF-RHF Final Energy:  -208.02833020622410
    Total Energy =                       -208.0283302062242115
  @DF-RHF Final Energy:  -208.02832705925545
    Total Energy =                       -208.0283270592553890
  @DF-RHF Final Energy:  -208.02833022887776
    Total Energy =                       -208.0283302288776781
  @DF-RHF Final Energy:  -208.02833019618799
    Total Energy =                       -208.0283301961881364
  @DF-RHF Final Energy:  -208.02833016651428
    Total Energy =                       -208.0283301665143085
  @DF-RHF Final Energy:  -208.02833013012904
    Total Energy =                       -208.0283301301291203
  @DF-RHF Final Energy:  -208.02833011103590
    Total Energy =                       -208.0283301110359275
  @DF-RHF Final Energy:  -208.02833009606383
    Total Energy =                       -208.0283300960639110
  @DF-RHF Final Energy:  -208.02833007678959
    Total Energy =                       -208.0283300767895582
  @DF-RHF Final Energy:  -208.02833003741296
    Total Energy =                       -208.0283300374129283
  @DF-RHF Final Energy:  -208.02832999424152
    Total Energy =                       -208.0283299942414601
  @DF-RHF Final Energy:  -208.02832996923490
    Total Energy =                       -208.0283299692349601
  @DF-RHF Final Energy:  -208.02832995534942
    Total Energy =                       -208.0283299553493919
  @DF-RHF Final Energy:  -208.02832994727146
    Total Energy =                       -208.0283299472715726
  Basis Set: CC-PVTZ
  Basis Set:
  @DF-RHF Final Energy:  -208.02832994490385
    Total Energy =                       -208.0283299449039305
  Basis Set: CC-PVTZ
  Basis Set:
  Basis Set: CC-PVTZ
  Basis Set:
  @DF-RHF Final Energy:  -208.02832994480204
    Total Energy =                       -208.0283299448019818
  Basis Set: CC-PVTZ
  Basis Set:
  Basis Set: CC-PVTZ
  Basis Set:
  @DF-RHF Final Energy:  -208.02832994569073
    Total Energy =                       -208.0283299456908139
  Basis Set: CC-PVTZ
  Basis Set:
  Charge       = 0
  Multiplicity = 1
  Basis Set: CC-PVTZ
  Basis Set:

    Orbital Energies (a.u.)
    -----------------------

    Doubly Occupied:

       1A    -20.538280     2A    -15.576382     3A    -11.344986
       4A    -11.266943     5A     -1.410413     6A     -1.237779
       7A     -0.953547     8A     -0.836805     9A     -0.702097
      10A     -0.679274    11A     -0.644281    12A     -0.585766
      13A     -0.565861    14A     -0.540837    15A     -0.441470
      16A     -0.404870

  @DF-RHF Final Energy:  -208.02832994672838

   => Energetics <=

    Nuclear Repulsion Energy =            120.4947884803692659
    One-Electron Energy =                -521.5870578764457832
    Two-Electron Energy =                 193.0639394493481120
    DFT Exchange-Correlation Energy =       0.0000000000000000
    Empirical Dispersion Energy =           0.0000000000000000
    PCM Polarization Energy =               0.0000000000000000
    EFP Energy =                            0.0000000000000000
    Total Energy =                       -208.0283299467284053
    Molecular point group: c1
  Basis Set: CC-PVTZ
  Basis Set:

  -Total Gradient:
     Atom            X                  Y                   Z
    ------   -----------------  -----------------  -----------------
       1       -0.002389120667    -0.009151041071     0.007899832480
       2        0.002095743540     0.013239848766    -0.008170782475
       3        0.004406281003    -0.006617653814    -0.010303040525
       4       -0.000139176175    -0.000213889526     0.000158911572
       5        0.000147568321     0.000506533239    -0.000584468721
       6       -0.004213949007     0.002313217237     0.010914146263
       7        0.000033824162    -0.000044768834    -0.000009930601
       8        0.000056786573    -0.000052192990     0.000049826582
       9        0.000002042255     0.000019946991     0.000045505424

    Molecular point group: c1

    Geometry (in Angstrom), charge = 0, multiplicity = 1:

    H            0.780524127566     0.674242040890     1.043213197536
    C            0.672760388221    -0.020672863321     0.204599923782
    N           -0.611211898659    -0.123681275524    -0.291453587611
    O            1.575619558868    -0.697925718614    -0.143982585157
    C           -1.581192278461     0.847840032600     0.185082540390
    H           -0.953101409377    -1.057149727598    -0.221324434210
    H           -2.511497669104     0.701631488028    -0.344073515066
    H           -1.234571329841     1.847880349574    -0.035388385790
    H           -1.778644421381     0.779516662094     1.252357140849

  Mulliken Charges: (a.u.)
   Center  Symbol    Alpha    Beta     Spin     Total
       1     H     0.47301  0.47301  0.00000  0.05398
       2     C     2.87504  2.87504  0.00000  0.24991
       3     N     3.60157  3.60157  0.00000 -0.20314
       4     O     4.18152  4.18152  0.00000 -0.36304
       5     C     3.08946  3.08946  0.00000 -0.17892
       6     H     0.42409  0.42409  0.00000  0.15182
       7     H     0.44483  0.44483  0.00000  0.11034
       8     H     0.44907  0.44907  0.00000  0.10186
       9     H     0.46140  0.46140  0.00000  0.07720

   Total alpha = 16.00000, Total beta = 16.00000, Total charge =  0.00000
