  ==> Input File <==

--------------------------------------------------------------------------
set {
	reference rhf
	basis cc-pvtz
}

set_num_threads( 4 )
memory 2 gb

molecule MOL {
0 1

H	 -1.968526	 1.711534	 -1.114526
C	 -1.218324	 2.215821	 -0.520293
C	 0.097427	 1.453464	 -0.540926
H	 -1.602861	 2.299267	 0.487369
H	 -1.080440	 3.214156	 -0.918061
C	 0.000000	 0.039916	 0.000014
H	 0.855477	 1.975540	 0.036737
H	 0.493035	 1.392929	 -1.551234
C	 1.286532	 -0.763243	 0.000268
O	 -1.023189	 -0.411346	 0.399798
C	 2.547023	 0.087626	 -0.000114
H	 1.264245	 -1.421103	 -0.864380
H	 1.264290	 -1.420353	 0.865489
H	 2.584452	 0.725630	 -0.872909
H	 3.427035	 -0.544422	 0.000125
H	 2.584484	 0.726356	 0.872143

	symmetry c1
}
set optking {
	frozen_dihedral = ("
		3 6 9 12
	")
}

ee = optimize('scf')
oeprop('DIPOLE', 'QUADRUPOLE', 'MULLIKEN_CHARGES')
f=open( 'psi4out.xyz', 'w' )
f.write( "16  " )
f.write( str(ee) + "\n" )
f.write( MOL.save_string_xyz() )
f.close()
--------------------------------------------------------------------------

    Molecular point group: c1
  Charge       = 0
  Multiplicity = 1
  Basis Set: CC-PVTZ
  Basis Set:
  @DF-RHF Final Energy:  -270.12579288956761
    Total Energy =                       -270.1257928895673786
    Molecular point group: c1
  Basis Set: CC-PVTZ
  Basis Set:
  Basis Set: CC-PVTZ
  Basis Set:
  @DF-RHF Final Energy:  -270.12705151599380
    Total Energy =                       -270.1270515159940260
  Basis Set: CC-PVTZ
  Basis Set:
  Basis Set: CC-PVTZ
  Basis Set:
  @DF-RHF Final Energy:  -270.12785558000002
    Total Energy =                       -270.1278555800000731
  Basis Set: CC-PVTZ
  Basis Set:
  Basis Set: CC-PVTZ
  Basis Set:
  @DF-RHF Final Energy:  -270.12761719588502
    Total Energy =                       -270.1276171958852501
  Basis Set: CC-PVTZ
  Basis Set:
  Basis Set: CC-PVTZ
  Basis Set:
  @DF-RHF Final Energy:  -270.12793645242289
    Total Energy =                       -270.1279364524226594
  Basis Set: CC-PVTZ
  Basis Set:
  Basis Set: CC-PVTZ
  Basis Set:
  @DF-RHF Final Energy:  -270.12794799019309
    Total Energy =                       -270.1279479901932064
  Basis Set: CC-PVTZ
  Basis Set:
  Charge       = 0
  Multiplicity = 1
  Basis Set: CC-PVTZ
  Basis Set:

    Orbital Energies (a.u.)
    -----------------------

    Doubly Occupied:

       1A    -20.535587     2A    -11.318171     3A    -11.232326
       4A    -11.231628     5A    -11.225849     6A    -11.211218
       7A     -1.396974     8A     -1.073244     9A     -1.036130
      10A     -0.908365    11A     -0.867669    12A     -0.723175
      13A     -0.658323    14A     -0.646004    15A     -0.633082
      16A     -0.609609    17A     -0.554964    18A     -0.543216
      19A     -0.537449    20A     -0.511474    21A     -0.507791
      22A     -0.501391    23A     -0.475822    24A     -0.398253

  @DF-RHF Final Energy:  -270.12794823070135

   => Energetics <=

    Nuclear Repulsion Energy =            240.8775986815000465
    One-Electron Energy =                -843.3356659285161641
    Two-Electron Energy =                 332.3301190163146543
    DFT Exchange-Correlation Energy =       0.0000000000000000
    Empirical Dispersion Energy =           0.0000000000000000
    PCM Polarization Energy =               0.0000000000000000
    EFP Energy =                            0.0000000000000000
    Total Energy =                       -270.1279482307014064
    Molecular point group: c1
  Basis Set: CC-PVTZ
  Basis Set:

  -Total Gradient:
     Atom            X                  Y                   Z
    ------   -----------------  -----------------  -----------------
       1       -0.000008039838     0.000005702930     0.000001820940
       2       -0.000012425479    -0.000021419186    -0.000020313780
       3        0.000273786094     0.000414322763     0.001073946528
       4       -0.000001900886     0.000001254212     0.000003574763
       5        0.000005052244    -0.000005185832     0.000001074992
       6       -0.000526950568    -0.000778933720    -0.001415392939
       7        0.000007605080     0.000013493354    -0.000002966894
       8       -0.000005994758    -0.000018527994     0.000008262920
       9        0.000890284395     0.001388629321    -0.000450758986
      10        0.000014927665     0.000013614626     0.000004350812
      11        0.000005527018    -0.000009228309    -0.000014801692
      12       -0.000632220211    -0.000988234760     0.000808412862
      13       -0.000002322630    -0.000005418106     0.000005037780
      14        0.000002340084     0.000001629136    -0.000003812608
      15        0.000001211956    -0.000003914417     0.000000907769
      16       -0.000010880165    -0.000007784020     0.000000657532

  **** Optimization is complete! (in 7 steps) ****
    Final optimized geometry and variables:
    Molecular point group: c1

    Geometry (in Angstrom), charge = 0, multiplicity = 1:

    H           -2.279279595007     1.197738159289    -1.061279475714
    C           -1.580095100029     1.741022552637    -0.439714391896
    C           -0.222880072242     1.055463348186    -0.415631699673
    H           -2.003759112789     1.797208342542     0.553753276346
    H           -1.484805627103     2.747361155431    -0.829891103148
    C           -0.265044470540    -0.360741016979     0.120435496914
    H            0.481566883647     1.618406271217     0.189328010113
    H            0.212136765299     1.023109204337    -1.411124449428
    C            1.010513967636    -1.191629227470     0.109598674807
    O           -1.272460605345    -0.840362870594     0.529277223316
    C            2.343518765757    -0.450377204727     0.093583482460
    H            0.931921521190    -1.840701628571    -0.758868182736
    H            0.948931120303    -1.845350152959     0.969920139996
    H            2.463173749509     0.162246844230    -0.791063590663
    H            3.158531697604    -1.163161890999     0.108862169116
    H            2.454118251540     0.189404524702     0.961548995300

  Mulliken Charges: (a.u.)
   Center  Symbol    Alpha    Beta     Spin     Total
       1     H     0.44817  0.44817  0.00000  0.10366
       2     C     3.14208  3.14208  0.00000 -0.28416
       3     C     3.10639  3.10639  0.00000 -0.21278
       4     H     0.44700  0.44700  0.00000  0.10600
       5     H     0.45095  0.45095  0.00000  0.09810
       6     C     2.87045  2.87045  0.00000  0.25909
       7     H     0.44318  0.44318  0.00000  0.11364
       8     H     0.44355  0.44355  0.00000  0.11290
       9     C     3.09088  3.09088  0.00000 -0.18177
      10     O     4.17633  4.17633  0.00000 -0.35266
      11     C     3.15892  3.15892  0.00000 -0.31785
      12     H     0.44379  0.44379  0.00000  0.11241
      13     H     0.43643  0.43643  0.00000  0.12714
      14     H     0.45119  0.45119  0.00000  0.09761
      15     H     0.44122  0.44122  0.00000  0.11755
      16     H     0.44945  0.44945  0.00000  0.10111

   Total alpha = 24.00000, Total beta = 24.00000, Total charge = -0.00000
