  ==> Input File <==

--------------------------------------------------------------------------
set {
	reference rhf
	basis 6-31G*
}

set_num_threads( 4 )
memory 2 gb

molecule MOL {
0 1

H	 1.723609	 -1.631022	 1.020409
C	 0.858008	 -1.023765	 1.230239
O	 0.464886	 -0.454746	 -0.000158
H	 1.124444	 -0.256048	 1.946932
H	 0.072810	 -1.648636	 1.638970
C	 -0.590998	 0.343045	 0.000118
O	 -1.699443	 -0.054298	 0.000227
H	 -0.340329	 1.404368	 0.000207

	symmetry c1
}
set optking {
	frozen_dihedral = ("
		2 3 6 7
	")
}

ee = optimize('scf')
oeprop('DIPOLE', 'QUADRUPOLE', 'MULLIKEN_CHARGES')
f=open( 'psi4out.xyz', 'w' )
f.write( "8  " )
f.write( str(ee) + "\n" )
f.write( MOL.save_string_xyz() )
f.close()
--------------------------------------------------------------------------

    Molecular point group: c1
  Charge       = 0
  Multiplicity = 1
  Basis Set: 6-31G*
  Basis Set:
  @DF-RHF Final Energy:  -227.76886181072524
    Total Energy =                       -227.7688618107250988
    Molecular point group: c1
  Basis Set: 6-31G*
  Basis Set:
  Basis Set: 6-31G*
  Basis Set:
  @DF-RHF Final Energy:  -227.76623618423540
    Total Energy =                       -227.7662361842355097
  Basis Set: 6-31G*
  Basis Set:
  Basis Set: 6-31G*
  Basis Set:
  @DF-RHF Final Energy:  -227.76925748901562
    Total Energy =                       -227.7692574890156720
  Basis Set: 6-31G*
  Basis Set:
  Basis Set: 6-31G*
  Basis Set:
  @DF-RHF Final Energy:  -227.76950588230397
    Total Energy =                       -227.7695058823040881
  Basis Set: 6-31G*
  Basis Set:
  Basis Set: 6-31G*
  Basis Set:
  @DF-RHF Final Energy:  -227.76950991191546
    Total Energy =                       -227.7695099119155202
  Basis Set: 6-31G*
  Basis Set:
  Charge       = 0
  Multiplicity = 1
  Basis Set: 6-31G*
  Basis Set:

    Orbital Energies (a.u.)
    -----------------------

    Doubly Occupied:

       1A    -20.596857     2A    -20.573587     3A    -11.383506
       4A    -11.297871     5A     -1.469441     6A     -1.380517
       7A     -0.987418     8A     -0.831190     9A     -0.738004
      10A     -0.685704    11A     -0.665490    12A     -0.625972
      13A     -0.561897    14A     -0.511294    15A     -0.471800
      16A     -0.456591

  @DF-RHF Final Energy:  -227.76951029158869

   => Energetics <=

    Nuclear Repulsion Energy =            121.9138823224845538
    One-Electron Energy =                -552.8925050396867391
    Two-Electron Energy =                 203.2091124256135117
    DFT Exchange-Correlation Energy =       0.0000000000000000
    Empirical Dispersion Energy =           0.0000000000000000
    PCM Polarization Energy =               0.0000000000000000
    EFP Energy =                            0.0000000000000000
    Total Energy =                       -227.7695102915886878
    Molecular point group: c1
  Basis Set: 6-31G*
  Basis Set:

  -Total Gradient:
     Atom            X                  Y                   Z
    ------   -----------------  -----------------  -----------------
       1       -0.000014070364     0.000009703925    -0.000016191721
       2        0.001807258845     0.002572314754     0.000686727053
       3       -0.002672629398    -0.003678295631    -0.003065057014
       4        0.000010508039    -0.000006703250    -0.000002836321
       5        0.000011035912    -0.000019334504     0.000010967206
       6        0.000788245669     0.000979857371     0.006574952695
       7        0.000070730895     0.000158946982    -0.004187850900
       8       -0.000001079598    -0.000016489648    -0.000000710997

  **** Optimization is complete! (in 6 steps) ****
    Final optimized geometry and variables:
    Molecular point group: c1

    Geometry (in Angstrom), charge = 0, multiplicity = 1:

    H            1.947696945692    -1.346046906488     0.699507855106
    C            1.094824923691    -0.720632745069     0.909173287900
    O            0.718347620410    -0.131532158948    -0.322381603288
    H            1.375277403599     0.041063516264     1.628671848657
    H            0.287384682289    -1.321750649546     1.306011747786
    C           -0.373134975010     0.647072065259    -0.309620609092
    O           -1.479143587164     0.244700176937    -0.335549494486
    H           -0.129013524859     1.706549882623    -0.331118514456

  Mulliken Charges: (a.u.)
   Center  Symbol    Alpha    Beta     Spin     Total
       1     H     0.40114  0.40114  0.00000  0.19773
       2     C     3.09361  3.09361  0.00000 -0.18722
       3     O     4.29753  4.29753  0.00000 -0.59506
       4     H     0.41874  0.41874  0.00000  0.16251
       5     H     0.40651  0.40651  0.00000  0.18698
       6     C     2.73312  2.73312  0.00000  0.53376
       7     O     4.22798  4.22798  0.00000 -0.45596
       8     H     0.42137  0.42137  0.00000  0.15726

   Total alpha = 16.00000, Total beta = 16.00000, Total charge =  0.00000
