  ==> Input File <==

--------------------------------------------------------------------------
set {
	reference rhf
	basis 6-31G*
}

set_num_threads( 4 )
memory 2 gb

molecule MOL {
0 1

H	 0.104498	 -0.846293	 -1.735941
C	 0.300078	 0.232467	 -1.694350
C	 0.065331	 0.871482	 -0.349150
O	 0.672634	 0.809478	 -2.663875
C	 -1.339775	 0.583656	 0.198860
H	 0.244732	 1.936555	 -0.440515
H	 0.807907	 0.463641	 0.335254
C	 -1.808407	 -0.848507	 -0.061364
H	 -2.036183	 1.280685	 -0.256307
H	 -1.360094	 0.788874	 1.267089
H	 -1.828843	 -1.063152	 -1.125336
H	 -2.808409	 -1.004529	 0.329750
H	 -1.153967	 -1.577789	 0.406873

	symmetry c1
}
set optking {
	frozen_dihedral = ("
		6 3 5 9
	")
}

ee = optimize('scf')
oeprop('DIPOLE', 'QUADRUPOLE', 'MULLIKEN_CHARGES')
f=open( 'psi4out.xyz', 'w' )
f.write( "13  " )
f.write( str(ee) + "\n" )
f.write( MOL.save_string_xyz() )
f.close()
--------------------------------------------------------------------------

    Molecular point group: c1
  Charge       = 0
  Multiplicity = 1
  Basis Set: 6-31G*
  Basis Set:
  @DF-RHF Final Energy:  -230.97838015998542
    Total Energy =                       -230.9783801599854769
    Molecular point group: c1
  Basis Set: 6-31G*
  Basis Set:
  Basis Set: 6-31G*
  Basis Set:
  @DF-RHF Final Energy:  -230.97889005645115
    Total Energy =                       -230.9788900564513483
  Basis Set: 6-31G*
  Basis Set:
  Basis Set: 6-31G*
  Basis Set:
  @DF-RHF Final Energy:  -230.97731906662011
    Total Energy =                       -230.9773190666199980
  Basis Set: 6-31G*
  Basis Set:
  Basis Set: 6-31G*
  Basis Set:
  @DF-RHF Final Energy:  -230.98100311284827
    Total Energy =                       -230.9810031128481285
  Basis Set: 6-31G*
  Basis Set:
  @DF-RHF Final Energy:  -230.98132816494780
    Total Energy =                       -230.9813281649477403
  Basis Set: 6-31G*
  Basis Set:
  @DF-RHF Final Energy:  -230.98139994375387
    Total Energy =                       -230.9813999437539280
  Basis Set: 6-31G*
  Basis Set:
  Basis Set: 6-31G*
  Basis Set:
  @DF-RHF Final Energy:  -230.98146920266353
    Total Energy =                       -230.9814692026636180
  Basis Set: 6-31G*
  Basis Set:
  Basis Set: 6-31G*
  Basis Set:
  @DF-RHF Final Energy:  -230.98149317532472
    Total Energy =                       -230.9814931753247151
  Basis Set: 6-31G*
  Basis Set:
  Charge       = 0
  Multiplicity = 1
  Basis Set: 6-31G*
  Basis Set:

    Orbital Energies (a.u.)
    -----------------------

    Doubly Occupied:

       1A    -20.562236     2A    -11.325619     3A    -11.238583
       4A    -11.235135     5A    -11.225421     6A     -1.401835
       7A     -1.084082     8A     -0.973046     9A     -0.857200
      10A     -0.775741    11A     -0.680949    12A     -0.640742
      13A     -0.613193    14A     -0.603201    15A     -0.562823
      16A     -0.532849    17A     -0.511772    18A     -0.491194
      19A     -0.479877    20A     -0.407973

  @DF-RHF Final Energy:  -230.98149425071284

   => Energetics <=

    Nuclear Repulsion Energy =            174.0226931018611367
    One-Electron Energy =                -657.6014378422933078
    Two-Electron Energy =                 252.5972504897192437
    DFT Exchange-Correlation Energy =       0.0000000000000000
    Empirical Dispersion Energy =           0.0000000000000000
    PCM Polarization Energy =               0.0000000000000000
    EFP Energy =                            0.0000000000000000
    Total Energy =                       -230.9814942507129274
    Molecular point group: c1
  Basis Set: 6-31G*
  Basis Set:

  -Total Gradient:
     Atom            X                  Y                   Z
    ------   -----------------  -----------------  -----------------
       1       -0.000013211767    -0.000006670730     0.000018288999
       2        0.000008130754     0.000022197897    -0.000012325874
       3        0.001732490687     0.000607379428     0.005247279737
       4       -0.000006351182     0.000001082792    -0.000006477173
       5       -0.000999308974    -0.003121442492    -0.004468291823
       6       -0.001253387219    -0.000025226662    -0.003749720280
       7       -0.000035106671     0.000004648500     0.000018089710
       8       -0.000012705215     0.000015661044    -0.000017263868
       9        0.000597702924     0.002488785910     0.002969182694
      10       -0.000014548485     0.000008993250     0.000002651350
      11       -0.000000371175    -0.000004507971    -0.000003082865
      12       -0.000005149832    -0.000006168915    -0.000000849545
      13        0.000001816156     0.000015267946     0.000002518942

  **** Optimization is complete! (in 9 steps) ****
    Final optimized geometry and variables:
    Molecular point group: c1

    Geometry (in Angstrom), charge = 0, multiplicity = 1:

    H            1.028377251132    -1.159217250132    -0.821878728975
    C            0.846193569753    -0.081026600710    -0.769205247309
    C            0.587366972507     0.485975834579     0.606990627472
    O            0.851964357806     0.571324921363    -1.763449112049
    C           -0.858249149085     0.243539087208     1.089275334622
    H            0.774395358049     1.550798760583     0.537556891106
    H            1.291056005921     0.039276530283     1.304644006161
    C           -1.384390570176    -1.178976035856     0.892907033278
    H           -1.512600401385     0.961823383394     0.605845661361
    H           -0.892318387633     0.487551956846     2.147252878173
    H           -1.484169410180    -1.435439200636    -0.157099757921
    H           -2.364354208065    -1.284271451874     1.345752830378
    H           -0.728111669426    -1.911437492093     1.355099145365

  Mulliken Charges: (a.u.)
   Center  Symbol    Alpha    Beta     Spin     Total
       1     H     0.42927  0.42927  0.00000  0.14146
       2     C     2.83797  2.83797  0.00000  0.32405
       3     C     3.20513  3.20513  0.00000 -0.41026
       4     O     4.23708  4.23708  0.00000 -0.47416
       5     C     3.15885  3.15885  0.00000 -0.31770
       6     H     0.39850  0.39850  0.00000  0.20300
       7     H     0.41373  0.41373  0.00000  0.17255
       8     C     3.24919  3.24919  0.00000 -0.49838
       9     H     0.40918  0.40918  0.00000  0.18164
      10     H     0.41383  0.41383  0.00000  0.17234
      11     H     0.41532  0.41532  0.00000  0.16936
      12     H     0.41239  0.41239  0.00000  0.17523
      13     H     0.41956  0.41956  0.00000  0.16088

   Total alpha = 20.00000, Total beta = 20.00000, Total charge = -0.00000
