  ==> Input File <==

--------------------------------------------------------------------------
set {
	reference rhf
	basis 6-31G*
}

set_num_threads( 4 )
memory 2 gb

molecule MOL {
0 1

H	 2.774917	 0.058468	 -0.349884
C	 1.951159	 -0.223429	 0.317018
C	 0.692068	 0.589600	 0.160137
O	 2.088707	 -1.113780	 1.091928
C	 -0.558097	 -0.297372	 0.091132
H	 0.791645	 1.202255	 -0.728243
H	 0.616171	 1.253469	 1.020572
C	 -1.850991	 0.512573	 -0.019058
H	 -0.476753	 -0.965681	 -0.762987
H	 -0.604799	 -0.930658	 0.975228
C	 -3.096943	 -0.368295	 -0.099594
H	 -1.800724	 1.150330	 -0.898172
H	 -1.931651	 1.177355	 0.838044
H	 -3.060452	 -1.020287	 -0.967456
H	 -3.996858	 0.233488	 -0.175704
H	 -3.191959	 -0.995686	 0.782074

	symmetry c1
}
set optking {
	frozen_dihedral = ("
		4 2 3 6
	")
}

ee = optimize('scf')
oeprop('DIPOLE', 'QUADRUPOLE', 'MULLIKEN_CHARGES')
f=open( 'psi4out.xyz', 'w' )
f.write( "16  " )
f.write( str(ee) + "\n" )
f.write( MOL.save_string_xyz() )
f.close()
--------------------------------------------------------------------------

    Molecular point group: c1
  Charge       = 0
  Multiplicity = 1
  Basis Set: 6-31G*
  Basis Set:
  @DF-RHF Final Energy:  -270.01862697661534
    Total Energy =                       -270.0186269766151099
    Molecular point group: c1
  Basis Set: 6-31G*
  Basis Set:
  Basis Set: 6-31G*
  Basis Set:
  @DF-RHF Final Energy:  -270.01865704016552
    Total Energy =                       -270.0186570401656923
  Basis Set: 6-31G*
  Basis Set:
  Basis Set: 6-31G*
  Basis Set:
  @DF-RHF Final Energy:  -270.01891151323525
    Total Energy =                       -270.0189115132352526
  Basis Set: 6-31G*
  Basis Set:
  Basis Set: 6-31G*
  Basis Set:
  @DF-RHF Final Energy:  -270.01901244202122
    Total Energy =                       -270.0190124420211646
  Basis Set: 6-31G*
  Basis Set:
  Basis Set: 6-31G*
  Basis Set:
  @DF-RHF Final Energy:  -270.01900049969004
    Total Energy =                       -270.0190004996901507
  Basis Set: 6-31G*
  Basis Set:
  Basis Set: 6-31G*
  Basis Set:
  @DF-RHF Final Energy:  -270.01901317209655
    Total Energy =                       -270.0190131720966633
  Basis Set: 6-31G*
  Basis Set:
  Charge       = 0
  Multiplicity = 1
  Basis Set: 6-31G*
  Basis Set:

    Orbital Energies (a.u.)
    -----------------------

    Doubly Occupied:

       1A    -20.562948     2A    -11.328157     3A    -11.235952
       4A    -11.226518     5A    -11.223845     6A    -11.213699
       7A     -1.403365     8A     -1.089503     9A     -1.014455
      10A     -0.906792    11A     -0.813550    12A     -0.777451
      13A     -0.679972    14A     -0.648224    15A     -0.628020
      16A     -0.599464    17A     -0.581171    18A     -0.543557
      19A     -0.526885    20A     -0.501288    21A     -0.481199
      22A     -0.479635    23A     -0.472453    24A     -0.409126

  @DF-RHF Final Energy:  -270.01901368571936

   => Energetics <=

    Nuclear Repulsion Energy =            231.2699663582514518
    One-Electron Energy =                -823.8835056484659845
    Two-Electron Energy =                 322.5945256044952316
    DFT Exchange-Correlation Energy =       0.0000000000000000
    Empirical Dispersion Energy =           0.0000000000000000
    PCM Polarization Energy =               0.0000000000000000
    EFP Energy =                            0.0000000000000000
    Total Energy =                       -270.0190136857192442
    Molecular point group: c1
  Basis Set: 6-31G*
  Basis Set:

  -Total Gradient:
     Atom            X                  Y                   Z
    ------   -----------------  -----------------  -----------------
       1        0.000013826243    -0.000005345583     0.000017759799
       2       -0.000676217643    -0.001322447654    -0.001581458732
       3       -0.000508171884    -0.001082533055    -0.000634198696
       4        0.000580992121     0.001126272488     0.001241842742
       5        0.000035676112     0.000028010288    -0.000022653847
       6        0.000622719570     0.001213697423     0.000975503738
       7       -0.000004896670     0.000025831776     0.000018067948
       8       -0.000037286824    -0.000014222428    -0.000013376254
       9       -0.000010885799    -0.000015158547     0.000012408753
      10        0.000030712007     0.000020424954    -0.000007129478
      11       -0.000021200435     0.000028470758    -0.000016790660
      12       -0.000017004964     0.000012033092     0.000007145553
      13       -0.000010229874    -0.000014574894     0.000002060849
      14        0.000005041177    -0.000001833065     0.000000737177
      15       -0.000007222199    -0.000006386508    -0.000004474942
      16        0.000004149057     0.000007760956     0.000004556049

  **** Optimization is complete! (in 7 steps) ****
    Final optimized geometry and variables:
    Molecular point group: c1

    Geometry (in Angstrom), charge = 0, multiplicity = 1:

    H            2.962181290631     0.251828375653    -0.546503095708
    C            2.104599346573    -0.055308274007     0.061513071558
    C            0.829864466096     0.738477651013    -0.122380001710
    O            2.218018566090    -0.947131187616     0.839423649402
    C           -0.423017332359    -0.139599809357    -0.184798977127
    H            0.920066089250     1.369951049558    -1.001516061131
    H            0.762746479609     1.412958648399     0.730532834403
    C           -1.711819623168     0.677833908362    -0.280915218077
    H           -0.352224123632    -0.806385868266    -1.041327373988
    H           -0.448177573450    -0.771369968053     0.696154570211
    C           -2.961920397274    -0.198098854167    -0.352640010966
    H           -1.670656042784     1.320673808198    -1.157738750508
    H           -1.783396465627     1.339170559138     0.579920540246
    H           -2.936423758818    -0.847241955760    -1.223167242057
    H           -3.860960876830     0.406619532352    -0.417046247948
    H           -3.048660492406    -0.828857741117     0.527163801009

  Mulliken Charges: (a.u.)
   Center  Symbol    Alpha    Beta     Spin     Total
       1     H     0.42588  0.42588  0.00000  0.14824
       2     C     2.84256  2.84256  0.00000  0.31487
       3     C     3.20621  3.20621  0.00000 -0.41242
       4     O     4.23707  4.23707  0.00000 -0.47413
       5     C     3.15419  3.15419  0.00000 -0.30838
       6     H     0.41496  0.41496  0.00000  0.17008
       7     H     0.40187  0.40187  0.00000  0.19626
       8     C     3.15321  3.15321  0.00000 -0.30642
       9     H     0.41873  0.41873  0.00000  0.16253
      10     H     0.40374  0.40374  0.00000  0.19253
      11     C     3.24002  3.24002  0.00000 -0.48004
      12     H     0.42284  0.42284  0.00000  0.15433
      13     H     0.42131  0.42131  0.00000  0.15738
      14     H     0.42054  0.42054  0.00000  0.15893
      15     H     0.41800  0.41800  0.00000  0.16399
      16     H     0.41887  0.41887  0.00000  0.16225

   Total alpha = 24.00000, Total beta = 24.00000, Total charge =  0.00000
