  ==> Input File <==

--------------------------------------------------------------------------
set {
	reference rhf
	basis cc-pvtz
}

set_num_threads( 4 )
memory 2 gb

molecule MOL {
0 1

H	 -2.816458	 -0.841657	 -0.064679
N	 -1.878861	 -0.711874	 0.250184
C	 -1.341419	 0.551458	 -0.220231
H	 -1.333674	 -1.468530	 -0.105118
C	 0.082190	 0.731516	 0.254705
H	 -1.357065	 0.652078	 -1.304747
H	 -1.939897	 1.357530	 0.189797
O	 0.881195	 -0.248324	 -0.336237
H	 0.440901	 1.722476	 -0.020063
H	 0.119896	 0.643586	 1.338114
C	 1.519765	 -1.091264	 0.564263
H	 2.106415	 -1.799918	 -0.002339
H	 2.183622	 -0.537759	 1.225035
H	 0.804064	 -1.637139	 1.174472

	symmetry c1
}
set optking {
	frozen_dihedral = ("
		11 8 5 3
	")
}

ee = optimize('scf')
oeprop('DIPOLE', 'QUADRUPOLE', 'MULLIKEN_CHARGES')
f=open( 'psi4out.xyz', 'w' )
f.write( "14  " )
f.write( str(ee) + "\n" )
f.write( MOL.save_string_xyz() )
f.close()
--------------------------------------------------------------------------

    Molecular point group: c1
  Charge       = 0
  Multiplicity = 1
  Basis Set: CC-PVTZ
  Basis Set:
  @DF-RHF Final Energy:  -248.22160230874354
    Total Energy =                       -248.2216023087437975
    Molecular point group: c1
  Basis Set: CC-PVTZ
  Basis Set:
  Basis Set: CC-PVTZ
  Basis Set:
  @DF-RHF Final Energy:  -248.22234120557292
    Total Energy =                       -248.2223412055726612
  Basis Set: CC-PVTZ
  Basis Set:
  Basis Set: CC-PVTZ
  Basis Set:
  @DF-RHF Final Energy:  -248.22242942237787
    Total Energy =                       -248.2224294223778998
  Basis Set: CC-PVTZ
  Basis Set:
  Basis Set: CC-PVTZ
  Basis Set:
  @DF-RHF Final Energy:  -248.22243629296025
    Total Energy =                       -248.2224362929604240
  Basis Set: CC-PVTZ
  Basis Set:
  Charge       = 0
  Multiplicity = 1
  Basis Set: CC-PVTZ
  Basis Set:

    Orbital Energies (a.u.)
    -----------------------

    Doubly Occupied:

       1A    -20.545511     2A    -15.528371     3A    -11.262474
       4A    -11.260583     5A    -11.240243     6A     -1.377053
       7A     -1.178815     8A     -1.000139     9A     -0.907648
      10A     -0.814001    11A     -0.687449    12A     -0.669770
      13A     -0.643765    14A     -0.617747    15A     -0.601687
      16A     -0.539951    17A     -0.531867    18A     -0.505554
      19A     -0.470360    20A     -0.416192    21A     -0.384440

  @DF-RHF Final Energy:  -248.22243685067352

   => Energetics <=

    Nuclear Repulsion Energy =            196.3636710769406761
    One-Electron Energy =                -726.8049765532496167
    Two-Electron Energy =                 282.2188686256353662
    DFT Exchange-Correlation Energy =       0.0000000000000000
    Empirical Dispersion Energy =           0.0000000000000000
    PCM Polarization Energy =               0.0000000000000000
    EFP Energy =                            0.0000000000000000
    Total Energy =                       -248.2224368506735459
    Molecular point group: c1
  Basis Set: CC-PVTZ
  Basis Set:

  -Total Gradient:
     Atom            X                  Y                   Z
    ------   -----------------  -----------------  -----------------
       1       -0.000008792018     0.000002093728    -0.000003180037
       2       -0.000021478812     0.000024992248    -0.000000518188
       3       -0.000172348551    -0.000692875338     0.000859995214
       4        0.000015584529     0.000010041094    -0.000004029882
       5       -0.000113884895     0.000534811880    -0.001234227908
       6       -0.000007354874    -0.000017487999     0.000023548494
       7       -0.000016628522     0.000010220768     0.000015976286
       8        0.001322836612     0.000932579438     0.000360027003
       9       -0.000001703288     0.000015425191    -0.000011592976
      10       -0.000007232428    -0.000025227936    -0.000006385080
      11       -0.001008136988    -0.000787431649    -0.000014249154
      12       -0.000005971208     0.000007207411     0.000006351611
      13        0.000015615768    -0.000003672023     0.000006701106
      14        0.000009494677    -0.000010676815     0.000001583509

  **** Optimization is complete! (in 5 steps) ****
    Final optimized geometry and variables:
    Molecular point group: c1

    Geometry (in Angstrom), charge = 0, multiplicity = 1:

    H           -2.714920472794    -0.620066974833    -0.109401702397
    N           -1.744044394806    -0.543739676063     0.106744238165
    C           -1.214923719646     0.738106109723    -0.325160478391
    H           -1.276444085480    -1.284508485690    -0.371697929878
    C            0.215088035369     0.913024701184     0.142688606124
    H           -1.247972414371     0.871793784103    -1.405629128531
    H           -1.813952747134     1.527701740124     0.116147584208
    O            1.041049013940    -0.072533503807    -0.414551084837
    H            0.583535786844     1.887703125308    -0.161861620062
    H            0.243687192014     0.864789722558     1.226167241333
    C            1.696327924806    -0.906211621241     0.488410140986
    H            2.262117494038    -1.626668591682    -0.085367980679
    H            2.385701807466    -0.349094309233     1.118304712252
    H            0.995394034998    -1.435206329497     1.126668984826

  Mulliken Charges: (a.u.)
   Center  Symbol    Alpha    Beta     Spin     Total
       1     H     0.42954  0.42954  0.00000  0.14092
       2     N     3.69598  3.69598  0.00000 -0.39197
       3     C     3.02481  3.02481  0.00000 -0.04963
       4     H     0.42239  0.42239  0.00000  0.15521
       5     C     2.97134  2.97134  0.00000  0.05733
       6     H     0.46511  0.46511  0.00000  0.06978
       7     H     0.45829  0.45829  0.00000  0.08342
       8     O     4.18986  4.18986  0.00000 -0.37972
       9     H     0.45595  0.45595  0.00000  0.08810
      10     H     0.46827  0.46827  0.00000  0.06346
      11     C     3.03696  3.03696  0.00000 -0.07391
      12     H     0.45010  0.45010  0.00000  0.09979
      13     H     0.46600  0.46600  0.00000  0.06800
      14     H     0.46539  0.46539  0.00000  0.06922

   Total alpha = 21.00000, Total beta = 21.00000, Total charge = -0.00000
