                              Psi4 1.0.54 Driver

  ==> Input File <==

--------------------------------------------------------------------------
set {
	reference rhf
	basis cc-pvtz
}

set_num_threads( 4 )
memory 2 gb

molecule MOL {
0 1

H	 -2.357199	 -1.586197	 0.157129
O	 -2.658848	 -0.704215	 -0.000460
C	 -1.605397	 0.107680	 0.001145
C	 -0.310616	 -0.658853	 0.000791
O	 -1.718351	 1.284629	 -0.000627
C	 0.926581	 0.227233	 0.000178
H	 -0.327628	 -1.313681	 -0.864448
H	 -0.327041	 -1.313334	 0.866298
C	 2.220156	 -0.582071	 -0.000088
H	 0.899945	 0.878221	 -0.866390
H	 0.900542	 0.878581	 0.866486
C	 3.466689	 0.296012	 -0.000457
H	 2.239073	 -1.234095	 -0.869382
H	 2.239505	 -1.233985	 0.869270
H	 3.493549	 0.935857	 -0.875887
H	 4.368821	 -0.304526	 -0.001199
H	 3.494559	 0.935166	 0.875458

	symmetry c1
}
set optking {
	frozen_dihedral = ("
		1 2 3 5
	")
}

ee,wfn = optimize('scf', return_wfn=True)
oeprop( wfn, 'DIPOLE', 'QUADRUPOLE', 'MULLIKEN_CHARGES')
f=open( 'psi4out.xyz', 'w' )
f.write( "17  " )
f.write( str(ee) + "\n" )
f.write( MOL.save_string_xyz() )
f.close()
--------------------------------------------------------------------------

    Molecular point group: c1
  Charge       = 0
  Multiplicity = 1
  Basis Set: CC-PVTZ
  Basis Set:
  @DF-RHF Final Energy:  -345.03786254798780
    Total Energy =                       -345.0378625479879702
    Molecular point group: c1
  Basis Set: CC-PVTZ
  Basis Set:
  Basis Set: CC-PVTZ
  Basis Set:
  @DF-RHF Final Energy:  -345.03903385854511
    Total Energy =                       -345.0390338585452241
  Basis Set: CC-PVTZ
  Basis Set:
  Basis Set: CC-PVTZ
  Basis Set:
  @DF-RHF Final Energy:  -345.03914608178394
    Total Energy =                       -345.0391460817836560
  Basis Set: CC-PVTZ
  Basis Set:
  Basis Set: CC-PVTZ
  Basis Set:
  @DF-RHF Final Energy:  -345.03919070173055
    Total Energy =                       -345.0391907017310018
  Basis Set: CC-PVTZ
  Basis Set:
  Basis Set: CC-PVTZ
  Basis Set:
  @DF-RHF Final Energy:  -345.03929961461859
    Total Energy =                       -345.0392996146186988
  Basis Set: CC-PVTZ
  Basis Set:
  Charge       = 0
  Multiplicity = 1
  Basis Set: CC-PVTZ
  Basis Set:

    Orbital Energies (a.u.)
    -----------------------

    Doubly Occupied:

       1A    -20.604052     2A    -20.536420     3A    -11.372744
       4A    -11.250438     5A    -11.226698     6A    -11.225892
       7A    -11.214275     8A     -1.471266     9A     -1.373253
      10A     -1.097688    11A     -1.021187    12A     -0.909181
      13A     -0.837063    14A     -0.807914    15A     -0.718062
      16A     -0.677013    17A     -0.662810    18A     -0.633447
      19A     -0.606344    20A     -0.581885    21A     -0.574758
      22A     -0.544871    23A     -0.515730    24A     -0.487522
      25A     -0.484047    26A     -0.481723    27A     -0.476761
      28A     -0.442333

  @DF-RHF Final Energy:  -345.03930686388310

   => Energetics <=

    Nuclear Repulsion Energy =            304.7973875311820393
    One-Electron Energy =               -1074.0026303796596494
    Two-Electron Energy =                 424.1659359845943982
    DFT Exchange-Correlation Energy =       0.0000000000000000
    Empirical Dispersion Energy =           0.0000000000000000
    PCM Polarization Energy =               0.0000000000000000
    EFP Energy =                            0.0000000000000000
    Total Energy =                       -345.0393068638832119
    Molecular point group: c1
  Basis Set: CC-PVTZ
  Basis Set:

  -Total Gradient:
     Atom            X                  Y                   Z
    ------   -----------------  -----------------  -----------------
       1       -0.000207563691     0.000293883407     0.002376334497
       2        0.000207649010    -0.000352272871    -0.002100067076
       3        0.000041557525     0.000090910374    -0.002352437678
       4       -0.000016134378    -0.000034318044    -0.000031836330
       5       -0.000081442841     0.000000775310     0.002070472841
       6        0.000001632215     0.000012360129     0.000027095219
       7        0.000003948447     0.000008186044     0.000030307620
       8        0.000015686497     0.000004521957    -0.000006587205
       9        0.000019757761    -0.000005542099    -0.000002903666
      10       -0.000007905301    -0.000014888558     0.000005496079
      11        0.000002671499    -0.000002589536    -0.000010239585
      12        0.000009309988    -0.000005148310    -0.000003380610
      13        0.000005108284    -0.000001833075     0.000000885583
      14       -0.000001788556     0.000002358730    -0.000002564768
      15        0.000001272943     0.000001770155    -0.000001146027
      16        0.000006623511     0.000002350227    -0.000000995755
      17       -0.000000382924    -0.000000523839     0.000001566864

  **** Optimization is complete! (in 6 steps) ****
    Final optimized geometry and variables:
    Molecular point group: c1

    Geometry (in Angstrom), charge = 0, multiplicity = 1:

    H           -2.524034045358    -1.550167642793     0.098800537123
    O           -2.717611765640    -0.638866294074    -0.034184371893
    C           -1.614911364181     0.115405096972    -0.011769264610
    C           -0.313927102819    -0.655911550237    -0.019603616311
    O           -1.701977214703     1.287861523113     0.013033614203
    C            0.924159268806     0.228713491040     0.011323809305
    H           -0.313864519681    -1.288045258653    -0.903729308096
    H           -0.323199925069    -1.329061141324     0.834847267110
    C            2.218760596682    -0.578933310338     0.002135916817
    H            0.900473199899     0.899136606133    -0.839665796324
    H            0.887532292344     0.858844924884     0.892200885272
    C            3.463194428235     0.301621249053     0.031486481135
    H            2.246074715838    -1.210452103236    -0.882076870543
    H            2.233557161192    -1.250576155128     0.856659604808
    H            3.495081701265     0.961041805025    -0.828957676120
    H            4.366460805407    -0.297018273481     0.024166853757
    H            3.482480973735     0.920644581125     0.921817104929

  Mulliken Charges: (a.u.)
   Center  Symbol    Alpha    Beta     Spin     Total
       1     H     0.38821  0.38821  0.00000  0.22358
       2     O     4.14553  4.14553  0.00000 -0.29106
       3     C     2.80213  2.80213  0.00000  0.39573
       4     C     3.13006  3.13006  0.00000 -0.26011
       5     O     4.17571  4.17571  0.00000 -0.35142
       6     C     3.08571  3.08571  0.00000 -0.17143
       7     H     0.44002  0.44002  0.00000  0.11996
       8     H     0.44606  0.44606  0.00000  0.10788
       9     C     3.08678  3.08678  0.00000 -0.17356
      10     H     0.44293  0.44293  0.00000  0.11414
      11     H     0.44346  0.44346  0.00000  0.11308
      12     C     3.14936  3.14936  0.00000 -0.29871
      13     H     0.45513  0.45513  0.00000  0.08974
      14     H     0.45542  0.45542  0.00000  0.08917
      15     H     0.45282  0.45282  0.00000  0.09436
      16     H     0.44772  0.44772  0.00000  0.10456
      17     H     0.45295  0.45295  0.00000  0.09409

   Total alpha = 28.00000, Total beta = 28.00000, Total charge = -0.00000

*** Psi4 exiting successfully. Buy a developer a beer!
