  ==> Input File <==

--------------------------------------------------------------------------
set {
	reference rhf
	basis 6-31G*
}

set_num_threads( 4 )
memory 2 gb

molecule MOL {
0 1

O	 -0.682937	 1.318834	 -0.186099
C	 -0.860635	 0.152188	 -0.042321
C	 -2.173363	 -0.477127	 0.338347
O	 0.083258	 -0.765189	 -0.202595
H	 -2.477673	 -1.180929	 -0.427595
H	 -2.923125	 0.290956	 0.455536
H	 -2.058825	 -1.029004	 1.264191
C	 1.391937	 -0.334737	 -0.569838
C	 2.273066	 -0.130938	 0.648655
H	 1.316984	 0.568944	 -1.155401
H	 1.773135	 -1.129419	 -1.194873
H	 3.281137	 0.121904	 0.334659
H	 1.897132	 0.675073	 1.266221
H	 2.318453	 -1.037430	 1.242478

	symmetry c1
}
set optking {
	frozen_dihedral = ("
		10 8 4 2
	")
}

ee = optimize('scf')
oeprop('DIPOLE', 'QUADRUPOLE', 'MULLIKEN_CHARGES')
f=open( 'psi4out.xyz', 'w' )
f.write( "14  " )
f.write( str(ee) + "\n" )
f.write( MOL.save_string_xyz() )
f.close()
--------------------------------------------------------------------------

    Molecular point group: c1
  Charge       = 0
  Multiplicity = 1
  Basis Set: 6-31G*
  Basis Set:
  @DF-RHF Final Energy:  -305.87519792804397
    Total Energy =                       -305.8751979280441446
    Molecular point group: c1
  Basis Set: 6-31G*
  Basis Set:
  Basis Set: 6-31G*
  Basis Set:
  @DF-RHF Final Energy:  -305.87522391835165
    Total Energy =                       -305.8752239183514803
  Basis Set: 6-31G*
  Basis Set:
  Basis Set: 6-31G*
  Basis Set:
  @DF-RHF Final Energy:  -305.87498723845863
    Total Energy =                       -305.8749872384586297
  Basis Set: 6-31G*
  Basis Set:
  Basis Set: 6-31G*
  Basis Set:
  @DF-RHF Final Energy:  -305.87527198089640
    Total Energy =                       -305.8752719808962865
  Basis Set: 6-31G*
  Basis Set:
  Basis Set: 6-31G*
  Basis Set:
  @DF-RHF Final Energy:  -305.87527649390779
    Total Energy =                       -305.8752764939078475
  Basis Set: 6-31G*
  Basis Set:
  Charge       = 0
  Multiplicity = 1
  Basis Set: 6-31G*
  Basis Set:

    Orbital Energies (a.u.)
    -----------------------

    Doubly Occupied:

       1A    -20.601713     2A    -20.544572     3A    -11.376169
       4A    -11.284662     5A    -11.233318     6A    -11.219506
       7A     -1.467267     8A     -1.362996     9A     -1.055501
      10A     -0.998952    11A     -0.881292    12A     -0.767761
      13A     -0.699230    14A     -0.682024    15A     -0.656580
      16A     -0.611113    17A     -0.585829    18A     -0.569793
      19A     -0.560002    20A     -0.528237    21A     -0.517478
      22A     -0.494638    23A     -0.449619    24A     -0.439616

  @DF-RHF Final Energy:  -305.87527658194040

   => Energetics <=

    Nuclear Repulsion Energy =            248.1745032612069224
    One-Electron Energy =                -908.9238267446503414
    Two-Electron Energy =                 354.8740469015028793
    DFT Exchange-Correlation Energy =       0.0000000000000000
    Empirical Dispersion Energy =           0.0000000000000000
    PCM Polarization Energy =               0.0000000000000000
    EFP Energy =                            0.0000000000000000
    Total Energy =                       -305.8752765819405113
    Molecular point group: c1
  Basis Set: 6-31G*
  Basis Set:

  -Total Gradient:
     Atom            X                  Y                   Z
    ------   -----------------  -----------------  -----------------
       1        0.000000266273    -0.000012386539     0.000000597862
       2       -0.000263035688    -0.000079732599    -0.001007289797
       3       -0.000012383894    -0.000004779486    -0.000018302331
       4        0.000422183515     0.000302642952     0.001705587756
       5        0.000001085288    -0.000002765740     0.000007425370
       6       -0.000002377502    -0.000000720258     0.000001973696
       7        0.000002050772     0.000005102886     0.000005311662
       8       -0.000252202204    -0.000863365265    -0.001693739400
       9        0.000021162837    -0.000009856809    -0.000005693159
      10        0.000085093296     0.000659074921     0.000996247102
      11        0.000000466520     0.000001831070     0.000000032212
      12        0.000001093525     0.000002564623     0.000005425931
      13       -0.000000404080     0.000002277281     0.000002146494
      14       -0.000002998658     0.000000112965     0.000000276601

  **** Optimization is complete! (in 6 steps) ****
    Final optimized geometry and variables:
    Molecular point group: c1

    Geometry (in Angstrom), charge = 0, multiplicity = 1:

    O           -0.688621198365     1.360368078681    -0.161109213644
    C           -0.870365106289     0.192274014130    -0.036966063184
    C           -2.186256564039    -0.438277392827     0.330579558166
    O            0.070717070287    -0.727287136379    -0.204631842997
    H           -2.491513006645    -1.128214977845    -0.447507018183
    H           -2.933412815218     0.330554365873     0.458980541677
    H           -2.075591699715    -1.005761789987     1.247404613154
    C            1.378679193011    -0.306794649949    -0.585648142556
    C            2.250775011448    -0.088387156485     0.636757815583
    H            1.306016950362     0.594662934091    -1.173258813286
    H            1.761964874240    -1.107958338137    -1.201207262215
    H            3.260450858569     0.167427196563     0.330547137957
    H            1.863866243239     0.722895374970     1.242205129083
    H            2.294186661386    -0.986576581509     1.242851947683

  Mulliken Charges: (a.u.)
   Center  Symbol    Alpha    Beta     Spin     Total
       1     O     4.28432  4.28432  0.00000 -0.56864
       2     C     2.61992  2.61992  0.00000  0.76016
       3     C     3.28173  3.28173  0.00000 -0.56346
       4     O     4.30726  4.30726  0.00000 -0.61451
       5     H     0.40032  0.40032  0.00000  0.19936
       6     H     0.39707  0.39707  0.00000  0.20586
       7     H     0.40039  0.40039  0.00000  0.19923
       8     C     3.00924  3.00924  0.00000 -0.01848
       9     C     3.25191  3.25191  0.00000 -0.50382
      10     H     0.39972  0.39972  0.00000  0.20057
      11     H     0.41058  0.41058  0.00000  0.17884
      12     H     0.41765  0.41765  0.00000  0.16470
      13     H     0.40612  0.40612  0.00000  0.18777
      14     H     0.41379  0.41379  0.00000  0.17242

   Total alpha = 24.00000, Total beta = 24.00000, Total charge =  0.00000
