  ==> Input File <==

--------------------------------------------------------------------------
set {
	reference rhf
	basis cc-pvtz
}

set_num_threads( 4 )
memory 2 gb

molecule MOL {
0 1

H	 -3.162190	 0.493205	 -0.000107
C	 -2.363908	 -0.234727	 0.000005
O	 -1.158738	 0.454634	 -0.000087
H	 -2.464314	 -0.863616	 -0.882153
H	 -2.464327	 -0.863359	 0.882345
C	 -0.028611	 -0.359694	 0.000037
C	 1.212847	 0.509314	 -0.000053
H	 -0.034155	 -1.007047	 -0.877198
H	 -0.034195	 -1.006836	 0.877430
C	 2.410753	 -0.186638	 -0.636468
H	 0.990542	 1.429187	 -0.529524
H	 1.441483	 0.785090	 1.023482
H	 2.211870	 -0.449992	 -1.669994
H	 3.282585	 0.455823	 -0.623330
H	 2.666009	 -1.098222	 -0.106442

	symmetry c1
}
set optking {
	frozen_dihedral = ("
		11 7 6 8
	")
}

ee = optimize('scf')
oeprop('DIPOLE', 'QUADRUPOLE', 'MULLIKEN_CHARGES')
f=open( 'psi4out.xyz', 'w' )
f.write( "15  " )
f.write( str(ee) + "\n" )
f.write( MOL.save_string_xyz() )
f.close()
--------------------------------------------------------------------------

    Molecular point group: c1
  Charge       = 0
  Multiplicity = 1
  Basis Set: CC-PVTZ
  Basis Set:
  @DF-RHF Final Energy:  -232.22565886214048
    Total Energy =                       -232.2256588621402784
    Molecular point group: c1
  Basis Set: CC-PVTZ
  Basis Set:
  Basis Set: CC-PVTZ
  Basis Set:
  @DF-RHF Final Energy:  -232.22593814830969
    Total Energy =                       -232.2259381483098082
  Basis Set: CC-PVTZ
  Basis Set:
  Basis Set: CC-PVTZ
  Basis Set:
  @DF-RHF Final Energy:  -232.22598916675503
    Total Energy =                       -232.2259891667548573
  Basis Set: CC-PVTZ
  Basis Set:
  Basis Set: CC-PVTZ
  Basis Set:
  @DF-RHF Final Energy:  -232.22599091462646
    Total Energy =                       -232.2259909146263226
  Basis Set: CC-PVTZ
  Basis Set:
  Charge       = 0
  Multiplicity = 1
  Basis Set: CC-PVTZ
  Basis Set:

    Orbital Energies (a.u.)
    -----------------------

    Doubly Occupied:

       1A    -20.548569     2A    -11.264447     3A    -11.262053
       4A    -11.212525     5A    -11.210667     6A     -1.382729
       7A     -1.057162     8A     -0.956359     9A     -0.878173
      10A     -0.810132    11A     -0.674887    12A     -0.657905
      13A     -0.633409    14A     -0.604509    15A     -0.566744
      16A     -0.542549    17A     -0.502868    18A     -0.491283
      19A     -0.476484    20A     -0.463025    21A     -0.415572

  @DF-RHF Final Energy:  -232.22599109206195

   => Energetics <=

    Nuclear Repulsion Energy =            189.9235065386920667
    One-Electron Energy =                -691.0748876232901239
    Two-Electron Energy =                 268.9253899925363385
    DFT Exchange-Correlation Energy =       0.0000000000000000
    Empirical Dispersion Energy =           0.0000000000000000
    PCM Polarization Energy =               0.0000000000000000
    EFP Energy =                            0.0000000000000000
    Total Energy =                       -232.2259910920616903
    Molecular point group: c1
  Basis Set: CC-PVTZ
  Basis Set:

  -Total Gradient:
     Atom            X                  Y                   Z
    ------   -----------------  -----------------  -----------------
       1       -0.000001755216     0.000001186146    -0.000002601739
       2        0.000009952138    -0.000001300271     0.000003375713
       3       -0.000011312846    -0.000003439819     0.000002581201
       4       -0.000004684352     0.000000139884    -0.000003208556
       5       -0.000003462337     0.000000333802     0.000001583788
       6       -0.002852646957     0.004241409490    -0.001972532089
       7        0.002113616038    -0.003007647294    -0.003977933308
       8        0.002085889483    -0.003066629124     0.002238312647
       9       -0.000017534379     0.000008823322     0.000006095884
      10        0.000001551385     0.000011659717    -0.000003562819
      11       -0.001308881713     0.001816440811     0.003686273292
      12       -0.000002312446    -0.000005730029     0.000009560152
      13       -0.000000371910     0.000005722187     0.000010879855
      14        0.000000238494    -0.000002719138    -0.000001805425
      15       -0.000008285387     0.000001750317     0.000002981403

  **** Optimization is complete! (in 5 steps) ****
    Final optimized geometry and variables:
    Molecular point group: c1

    Geometry (in Angstrom), charge = 0, multiplicity = 1:

    H           -3.153418201538     0.461367652247     0.179313753554
    C           -2.352388348975    -0.263537619580     0.168512587811
    O           -1.150639370965     0.429943098288     0.116992990779
    H           -2.477468173476    -0.909858117965    -0.697806794457
    H           -2.422104101601    -0.875359444351     1.065437453609
    C           -0.019462329446    -0.379642789518     0.086681836631
    C            1.231550896153     0.486013976561     0.105894703401
    H           -0.023490126642    -1.024343594168    -0.792759184431
    H           -0.019429106195    -1.049308924791     0.947443198806
    C            2.451400701273    -0.214843533994    -0.477603899637
    H            1.013196557173     1.407005325411    -0.421825805271
    H            1.435598504639     0.781691940021     1.130172998343
    H            2.305359063411    -0.450080032602    -1.526174457619
    H            3.333244556164     0.409028117463    -0.396782040449
    H            2.658938814070    -1.144192953003     0.043538641394

  Mulliken Charges: (a.u.)
   Center  Symbol    Alpha    Beta     Spin     Total
       1     H     0.44682  0.44682  0.00000  0.10637
       2     C     3.03161  3.03161  0.00000 -0.06322
       3     O     4.17121  4.17121  0.00000 -0.34241
       4     H     0.47247  0.47247  0.00000  0.05505
       5     H     0.47158  0.47158  0.00000  0.05683
       6     C     2.95717  2.95717  0.00000  0.08567
       7     C     3.08266  3.08266  0.00000 -0.16531
       8     H     0.47717  0.47717  0.00000  0.04567
       9     H     0.47541  0.47541  0.00000  0.04918
      10     C     3.15423  3.15423  0.00000 -0.30847
      11     H     0.44804  0.44804  0.00000  0.10391
      12     H     0.45403  0.45403  0.00000  0.09193
      13     H     0.45440  0.45440  0.00000  0.09121
      14     H     0.44704  0.44704  0.00000  0.10591
      15     H     0.45616  0.45616  0.00000  0.08767

   Total alpha = 21.00000, Total beta = 21.00000, Total charge = -0.00000
