                              Psi4 1.0.54 Driver

  ==> Input File <==

--------------------------------------------------------------------------
set {
	reference rhf
	basis cc-pvtz
}

set_num_threads( 4 )
memory 2 gb

molecule MOL {
0 1

H	 2.753606	 0.105174	 -0.000000
N	 1.779424	 0.314646	 -0.000000
C	 1.145578	 -0.197413	 1.198281
C	 1.145578	 -0.197413	 -1.198281
H	 1.631452	 0.230757	 2.066583
H	 1.219378	 -1.283894	 1.273989
C	 -0.322048	 0.190075	 1.196711
H	 1.631452	 0.230757	 -2.066583
H	 1.219378	 -1.283894	 -1.273989
C	 -0.322048	 0.190075	 -1.196711
H	 -0.402590	 1.277874	 1.279154
H	 -0.810877	 -0.241696	 2.062008
N	 -0.976554	 -0.298710	 -0.000000
H	 -0.810877	 -0.241696	 -2.062008
H	 -0.402590	 1.277874	 -1.279154
C	 -2.391133	 -0.021001	 -0.000000
H	 -2.853931	 -0.458726	 -0.875714
H	 -2.853931	 -0.458726	 0.875714
H	 -2.614014	 1.049775	 -0.000000

	symmetry c1
}
ee,wfn = energy('scf', return_wfn=True)
oeprop( wfn, 'DIPOLE', 'QUADRUPOLE', 'MULLIKEN_CHARGES')
oeprop( wfn, 'GRID_ESP')
f=open( 'psi4out.xyz', 'w' )
f.write( "19  " )
f.write( str(ee) + "\n" )
f.write( MOL.save_string_xyz() )
f.close()
--------------------------------------------------------------------------

    Molecular point group: c1

    Geometry (in Angstrom), charge = 0, multiplicity = 1:

       Center              X                  Y                   Z               Mass
    ------------   -----------------  -----------------  -----------------  -----------------
           H          2.753583213089     0.105171992014    -0.000000000000     1.007825032070
           N          1.779401213089     0.314643992014    -0.000000000000    14.003074004780
           C          1.145555213089    -0.197415007986     1.198281000000    12.000000000000
           C          1.145555213089    -0.197415007986    -1.198281000000    12.000000000000
           H          1.631429213089     0.230754992014     2.066583000000     1.007825032070
           H          1.219355213089    -1.283896007986     1.273989000000     1.007825032070
           C         -0.322070786911     0.190072992014     1.196711000000    12.000000000000
           H          1.631429213089     0.230754992014    -2.066583000000     1.007825032070
           H          1.219355213089    -1.283896007986    -1.273989000000     1.007825032070
           C         -0.322070786911     0.190072992014    -1.196711000000    12.000000000000
           H         -0.402612786911     1.277871992014     1.279154000000     1.007825032070
           H         -0.810899786911    -0.241698007986     2.062008000000     1.007825032070
           N         -0.976576786911    -0.298712007986    -0.000000000000    14.003074004780
           H         -0.810899786911    -0.241698007986    -2.062008000000     1.007825032070
           H         -0.402612786911     1.277871992014    -1.279154000000     1.007825032070
           C         -2.391155786911    -0.021003007986    -0.000000000000    12.000000000000
           H         -2.853953786911    -0.458728007986    -0.875714000000     1.007825032070
           H         -2.853953786911    -0.458728007986     0.875714000000     1.007825032070
           H         -2.614036786911     1.049772992014    -0.000000000000     1.007825032070

  Charge       = 0
  Multiplicity = 1
  Basis Set: CC-PVTZ
  Basis Set:

    Orbital Energies (a.u.)
    -----------------------

    Doubly Occupied:

       1A    -15.536619     2A    -15.531264     3A    -11.237293
       4A    -11.237276     5A    -11.235841     6A    -11.235829
       7A    -11.233216     8A     -1.249481     9A     -1.187862
      10A     -1.024097    11A     -0.965862    12A     -0.861864
      13A     -0.858277    14A     -0.757553    15A     -0.692857
      16A     -0.635363    17A     -0.627677    18A     -0.609512
      19A     -0.605429    20A     -0.581529    21A     -0.543724
      22A     -0.529003    23A     -0.512497    24A     -0.490688
      25A     -0.467925    26A     -0.458407    27A     -0.366174
      28A     -0.348149

  @DF-RHF Final Energy:  -305.30909527018122

   => Energetics <=

    Nuclear Repulsion Energy =            340.3400305947404263
    One-Electron Energy =               -1088.0558327402770828
    Two-Electron Energy =                 442.4067068753554395
    DFT Exchange-Correlation Energy =       0.0000000000000000
    Empirical Dispersion Energy =           0.0000000000000000
    PCM Polarization Energy =               0.0000000000000000
    EFP Energy =                            0.0000000000000000
    Total Energy =                       -305.3090952701811602

  Mulliken Charges: (a.u.)
   Center  Symbol    Alpha    Beta     Spin     Total
       1     H     0.43998  0.43998  0.00000  0.12003
       2     N     3.64289  3.64289  0.00000 -0.28579
       3     C     3.04078  3.04078  0.00000 -0.08155
       4     C     3.04078  3.04078  0.00000 -0.08155
       5     H     0.45241  0.45241  0.00000  0.09517
       6     H     0.46532  0.46532  0.00000  0.06936
       7     C     3.03440  3.03440  0.00000 -0.06880
       8     H     0.45241  0.45241  0.00000  0.09517
       9     H     0.46532  0.46532  0.00000  0.06936
      10     C     3.03440  3.03440  0.00000 -0.06880
      11     H     0.46841  0.46841  0.00000  0.06318
      12     H     0.45407  0.45407  0.00000  0.09185
      13     N     3.61438  3.61438  0.00000 -0.22875
      14     H     0.45407  0.45407  0.00000  0.09185
      15     H     0.46841  0.46841  0.00000  0.06318
      16     C     3.09691  3.09691  0.00000 -0.19383
      17     H     0.45238  0.45238  0.00000  0.09524
      18     H     0.45238  0.45238  0.00000  0.09524
      19     H     0.47028  0.47028  0.00000  0.05944

   Total alpha = 28.00000, Total beta = 28.00000, Total charge =  0.00000

*** Psi4 exiting successfully. Buy a developer a beer!
