  ==> Input File <==

--------------------------------------------------------------------------
set {
	reference rhf
	basis 6-31G*
}

set_num_threads( 4 )
memory 2 gb

molecule MOL {
0 1

H	 -0.916387	 2.402738	 -0.387003
C	 -0.790605	 1.350776	 -0.222809
C	 -1.912702	 0.481825	 -0.014607
C	 0.430827	 0.801939	 -0.205545
H	 -2.906829	 0.892543	 -0.022769
C	 -1.730383	 -0.830757	 0.188744
H	 1.321454	 1.382827	 -0.353051
N	 0.640212	 -0.532897	 -0.000111
H	 -2.544793	 -1.510308	 0.347810
C	 -0.401158	 -1.427743	 0.207437
C	 2.010177	 -1.032049	 0.000042
O	 -0.195171	 -2.602315	 0.386758
H	 2.187698	 -1.635381	 -0.882279
H	 2.677579	 -0.189247	 -0.001871
H	 2.188882	 -1.632203	 0.884288

	symmetry c1
}
set optking {
	frozen_dihedral = ("
		10 8 11 13
	")
}

ee = optimize('scf')
oeprop('DIPOLE', 'QUADRUPOLE', 'MULLIKEN_CHARGES')
f=open( 'psi4out.xyz', 'w' )
f.write( "15  " )
f.write( str(ee) + "\n" )
f.write( MOL.save_string_xyz() )
f.close()
--------------------------------------------------------------------------

    Molecular point group: c1
  Charge       = 0
  Multiplicity = 1
  Basis Set: 6-31G*
  Basis Set:
  @DF-RHF Final Energy:  -360.59601269151744
    Total Energy =                       -360.5960126915175579
    Molecular point group: c1
  Basis Set: 6-31G*
  Basis Set:
  Basis Set: 6-31G*
  Basis Set:
  @DF-RHF Final Energy:  -360.59662725165094
    Total Energy =                       -360.5966272516506024
  Basis Set: 6-31G*
  Basis Set:
  Basis Set: 6-31G*
  Basis Set:
  @DF-RHF Final Energy:  -360.59670120152271
    Total Energy =                       -360.5967012015228761
  Basis Set: 6-31G*
  Basis Set:
  Basis Set: 6-31G*
  Basis Set:
  @DF-RHF Final Energy:  -360.59669833474089
    Total Energy =                       -360.5966983347412906
  Basis Set: 6-31G*
  Basis Set:
  Charge       = 0
  Multiplicity = 1
  Basis Set: 6-31G*
  Basis Set:

    Orbital Energies (a.u.)
    -----------------------

    Doubly Occupied:

       1A    -20.508863     2A    -15.622504     3A    -11.341506
       4A    -11.298141     5A    -11.266893     6A    -11.260426
       7A    -11.232736     8A    -11.228768     9A     -1.385207
      10A     -1.281127    11A     -1.114900    12A     -1.026321
      13A     -0.970343    14A     -0.872996    15A     -0.835797
      16A     -0.716079    17A     -0.697407    18A     -0.661409
      19A     -0.648789    20A     -0.622935    21A     -0.606483
      22A     -0.573263    23A     -0.548379    24A     -0.547425
      25A     -0.528014    26A     -0.477996    27A     -0.413902
      28A     -0.405909    29A     -0.304363

  @DF-RHF Final Energy:  -360.59670430146707

   => Energetics <=

    Nuclear Repulsion Energy =            358.0036421848144528
    One-Electron Energy =               -1199.2029281199822890
    Two-Electron Energy =                 480.6025816337007655
    DFT Exchange-Correlation Energy =       0.0000000000000000
    Empirical Dispersion Energy =           0.0000000000000000
    PCM Polarization Energy =               0.0000000000000000
    EFP Energy =                            0.0000000000000000
    Total Energy =                       -360.5967043014670708
    Molecular point group: c1
  Basis Set: 6-31G*
  Basis Set:

  -Total Gradient:
     Atom            X                  Y                   Z
    ------   -----------------  -----------------  -----------------
       1       -0.000030465383     0.000018705902    -0.000023276444
       2        0.000013066603    -0.000076113072     0.000010890996
       3       -0.000029279999    -0.000003907795    -0.000014064296
       4       -0.000124976951    -0.000055251196     0.000112570959
       5        0.000016470274     0.000049185192    -0.000007295524
       6       -0.000097777176    -0.000003861184     0.000016860028
       7        0.000074256669    -0.000072201632    -0.000021990222
       8       -0.000000517010    -0.000059396001    -0.000729327925
       9        0.000020884767     0.000017985458     0.000009287416
      10        0.000014913559     0.000271904547     0.000367556478
      11       -0.000233872386    -0.000526612096     0.000576910436
      12        0.000077062054    -0.000032587649     0.000024670910
      13        0.000234584797     0.000491986553    -0.000329677433
      14        0.000037406422    -0.000008265648    -0.000030084397
      15        0.000028243760    -0.000011571381     0.000036969017

  **** Optimization is complete! (in 5 steps) ****
    Final optimized geometry and variables:
    Molecular point group: c1

    Geometry (in Angstrom), charge = 0, multiplicity = 1:

    H           -0.755217276504     2.923824562480    -0.441164710334
    C           -0.617897458197     1.873889362740    -0.273608183672
    C           -1.730182773740     0.995887366971    -0.058836422489
    C            0.611734152667     1.340000156768    -0.256005714004
    H           -2.727430244923     1.398992284046    -0.064937209773
    C           -1.536976408805    -0.315594916452     0.148667534935
    H            1.493483010132     1.931917064125    -0.406907542774
    N            0.830890816855     0.009743260425    -0.044396922787
    H           -2.344705555625    -1.002135742689     0.312272707873
    C           -0.201638961263    -0.893818246476     0.158451346942
    C            2.183364033091    -0.533194810783    -0.040388670201
    O            0.037841411054    -2.064116009182     0.325397288081
    H            2.351475211668    -1.138294633195    -0.921387647524
    H            2.890441005073     0.284021774680    -0.027209476707
    H            2.325524315362    -1.150840202809     0.832575394325

  Mulliken Charges: (a.u.)
   Center  Symbol    Alpha    Beta     Spin     Total
       1     H     0.39310  0.39310  0.00000  0.21381
       2     C     3.16250  3.16250  0.00000 -0.32500
       3     C     3.05815  3.05815  0.00000 -0.11630
       4     C     2.92159  2.92159  0.00000  0.15681
       5     H     0.39091  0.39091  0.00000  0.21818
       6     C     3.16981  3.16981  0.00000 -0.33962
       7     H     0.38741  0.38741  0.00000  0.22518
       8     N     3.86306  3.86306  0.00000 -0.72611
       9     H     0.38648  0.38648  0.00000  0.22705
      10     C     2.59709  2.59709  0.00000  0.80582
      11     C     3.13951  3.13951  0.00000 -0.27902
      12     O     4.32159  4.32159  0.00000 -0.64317
      13     H     0.40076  0.40076  0.00000  0.19847
      14     H     0.41592  0.41592  0.00000  0.16816
      15     H     0.39213  0.39213  0.00000  0.21574

   Total alpha = 29.00000, Total beta = 29.00000, Total charge = -0.00000
