  ==> Input File <==

--------------------------------------------------------------------------
set {
	reference rhf
	basis 6-31G*
}

set_num_threads( 1 )
memory 2 gb

molecule MOL {
0 1

H	 -3.621319	 1.856435	 -1.241613
O	 -2.909927	 1.277372	 -1.475092
C	 -1.992113	 1.205279	 -0.414427
C	 -0.867754	 0.269961	 -0.822768
H	 -1.591903	 2.192259	 -0.186372
H	 -2.477089	 0.833795	 0.487315
C	 0.198102	 0.111031	 0.262842
H	 -0.418748	 0.653025	 -1.735120
H	 -1.299269	 -0.696264	 -1.069102
C	 1.331804	 -0.827780	 -0.158768
H	 0.601355	 1.089119	 0.513651
H	 -0.263176	 -0.273082	 1.171797
C	 2.723619	 -0.410569	 0.329459
H	 1.342964	 -0.912588	 -1.244120
H	 1.116806	 -1.824343	 0.220779
C	 3.243875	 0.895854	 -0.272975
H	 3.424222	 -1.207124	 0.091250
H	 2.714788	 -0.329854	 1.414619
H	 3.251977	 0.848779	 -1.358681
H	 2.637085	 1.747371	 0.016682
H	 4.259473	 1.094070	 0.055697

	symmetry c1
}
set optking {
	frozen_dihedral = ("
		2 3 4 8,
		8 4 7 10,
		16 13 10 14,
		1 2 3 5
	")
}

ee = energy('scf')
oeprop('DIPOLE', 'QUADRUPOLE', 'MULLIKEN_CHARGES')
f=open( 'psi4out.xyz', 'w' )
f.write( "21  " )
f.write( str(ee) + "\n" )
f.write( MOL.save_string_xyz() )
f.close()
--------------------------------------------------------------------------

    Molecular point group: c1

    Geometry (in Angstrom), charge = 0, multiplicity = 1:

       Center              X                  Y                   Z               Mass
    ------------   -----------------  -----------------  -----------------  -----------------
           H         -3.806024460310     1.460095315274    -0.855741164305     1.007825032070
           O         -3.094632460310     0.881032315274    -1.089220164305    15.994914619560
           C         -2.176818460310     0.808939315274    -0.028555164305    12.000000000000
           C         -1.052459460310    -0.126378684726    -0.436896164305    12.000000000000
           H         -1.776608460310     1.795919315274     0.199499835695     1.007825032070
           H         -2.661794460310     0.437455315274     0.873186835695     1.007825032070
           C          0.013396539690    -0.285308684726     0.648713835695    12.000000000000
           H         -0.603453460310     0.256685315274    -1.349248164305     1.007825032070
           H         -1.483974460310    -1.092603684726    -0.683230164305     1.007825032070
           C          1.147098539690    -1.224119684726     0.227103835695    12.000000000000
           H          0.416649539690     0.692779315274     0.899522835695     1.007825032070
           H         -0.447881460310    -0.669421684726     1.557668835695     1.007825032070
           C          2.538913539690    -0.806908684726     0.715330835695    12.000000000000
           H          1.158258539690    -1.308927684726    -0.858248164305     1.007825032070
           H          0.932100539690    -2.220682684726     0.606650835695     1.007825032070
           C          3.059169539690     0.499514315274     0.112896835695    12.000000000000
           H          3.239516539690    -1.603463684726     0.477121835695     1.007825032070
           H          2.530082539690    -0.726193684726     1.800490835695     1.007825032070
           H          3.067271539690     0.452439315274    -0.972809164305     1.007825032070
           H          2.452379539690     1.351031315274     0.402553835695     1.007825032070
           H          4.074767539690     0.697730315274     0.441568835695     1.007825032070

  Charge       = 0
  Multiplicity = 1
  Basis Set: 6-31G*
  Basis Set:

    Orbital Energies (a.u.)
    -----------------------

    Doubly Occupied:

       1A    -20.551564     2A    -11.266499     3A    -11.215236
       4A    -11.214423     5A    -11.212452     6A    -11.210624
       7A    -11.208197     8A     -1.358386     9A     -1.086364
      10A     -1.032543    11A     -0.954502    12A     -0.875670
      13A     -0.806980    14A     -0.778993    15A     -0.692292
      16A     -0.660885    17A     -0.618514    18A     -0.613284
      19A     -0.586640    20A     -0.561374    21A     -0.544796
      22A     -0.521672    23A     -0.503086    24A     -0.489582
      25A     -0.481472    26A     -0.459009    27A     -0.452740
      28A     -0.442290    29A     -0.433866

  @DF-RHF Final Energy:  -310.20867689002392

   => Energetics <=

    Nuclear Repulsion Energy =            314.5043313007922166
    One-Electron Energy =               -1043.7586085694665599
    Two-Electron Energy =                 419.0456003786496240
    DFT Exchange-Correlation Energy =       0.0000000000000000
    Empirical Dispersion Energy =           0.0000000000000000
    PCM Polarization Energy =               0.0000000000000000
    EFP Energy =                            0.0000000000000000
    Total Energy =                       -310.2086768900246625

  Mulliken Charges: (a.u.)
   Center  Symbol    Alpha    Beta     Spin     Total
       1     H     0.28124  0.28124  0.00000  0.43752
       2     O     4.37180  4.37180  0.00000 -0.74359
       3     C     2.99014  2.99014  0.00000  0.01972
       4     C     3.16098  3.16098  0.00000 -0.32196
       5     H     0.43301  0.43301  0.00000  0.13398
       6     H     0.43299  0.43299  0.00000  0.13403
       7     C     3.16283  3.16283  0.00000 -0.32566
       8     H     0.41449  0.41449  0.00000  0.17102
       9     H     0.41450  0.41450  0.00000  0.17100
      10     C     3.15385  3.15385  0.00000 -0.30770
      11     H     0.42139  0.42139  0.00000  0.15723
      12     H     0.42157  0.42157  0.00000  0.15687
      13     C     3.15378  3.15378  0.00000 -0.30755
      14     H     0.42067  0.42067  0.00000  0.15866
      15     H     0.41989  0.41989  0.00000  0.16022
      16     C     3.24080  3.24080  0.00000 -0.48159
      17     H     0.42106  0.42106  0.00000  0.15789
      18     H     0.42368  0.42368  0.00000  0.15265
      19     H     0.42140  0.42140  0.00000  0.15720
      20     H     0.42101  0.42101  0.00000  0.15797
      21     H     0.41894  0.41894  0.00000  0.16212

   Total alpha = 29.00000, Total beta = 29.00000, Total charge =  0.00000
