                              Psi4 1.0.54 Driver

  ==> Input File <==

--------------------------------------------------------------------------
set {
	reference rhf
	basis cc-pvtz
}

set_num_threads( 4 )
memory 2 gb

molecule MOL {
0 1

H	 3.083659	 -1.378387	 0.000000
O	 2.179005	 -1.633391	 0.000000
C	 1.366950	 -0.558201	 0.000000
C	 1.841867	 0.728537	 0.203565
C	 0.020063	 -0.770221	 -0.212045
H	 2.891396	 0.891889	 0.368598
C	 0.970350	 1.798740	 0.194668
H	 -0.349821	 -1.762801	 -0.369571
C	 -0.846389	 0.308006	 -0.219376
H	 1.349175	 2.789778	 0.353288
C	 -0.378458	 1.595176	 -0.016749
C	 -2.299505	 0.093139	 -0.446671
H	 -1.058562	 2.425412	 -0.024214
O	 -2.804656	 -0.960771	 -0.629747
H	 -2.903952	 1.005335	 -0.434781

	symmetry c1
}
set optking {
	frozen_dihedral = ("
		4 3 2 1
	")
}

ee,wfn = optimize('scf', return_wfn=True)
oeprop( wfn, 'DIPOLE', 'QUADRUPOLE', 'MULLIKEN_CHARGES')
f=open( 'psi4out.xyz', 'w' )
f.write( "15  " )
f.write( str(ee) + "\n" )
f.write( MOL.save_string_xyz() )
f.close()
--------------------------------------------------------------------------

    Molecular point group: c1
  Charge       = 0
  Multiplicity = 1
  Basis Set: CC-PVTZ
  Basis Set:
  @DF-RHF Final Energy:  -418.43877032291601
    Total Energy =                       -418.4387703229158433
    Molecular point group: c1
  Basis Set: CC-PVTZ
  Basis Set:
  Basis Set: CC-PVTZ
  Basis Set:
  @DF-RHF Final Energy:  -418.43877520390936
    Total Energy =                       -418.4387752039093584
  Basis Set: CC-PVTZ
  Basis Set:
  Basis Set: CC-PVTZ
  Basis Set:
  @DF-RHF Final Energy:  -418.43878796054855
    Total Energy =                       -418.4387879605488934
  Basis Set: CC-PVTZ
  Basis Set:
  Basis Set: CC-PVTZ
  Basis Set:
  @DF-RHF Final Energy:  -418.43872211743371
    Total Energy =                       -418.4387221174335991
  Basis Set: CC-PVTZ
  Basis Set:
  Basis Set: CC-PVTZ
  Basis Set:
  @DF-RHF Final Energy:  -418.43878859867687
    Total Energy =                       -418.4387885986770925
  Basis Set: CC-PVTZ
  Basis Set:
  Charge       = 0
  Multiplicity = 1
  Basis Set: CC-PVTZ
  Basis Set:

    Orbital Energies (a.u.)
    -----------------------

    Doubly Occupied:

       1A    -20.595384     2A    -20.554378     3A    -11.327469
       4A    -11.311614     5A    -11.251050     6A    -11.250669
       7A    -11.247769     8A    -11.243378     9A    -11.237375
      10A     -1.427030    11A     -1.410140    12A     -1.174341
      13A     -1.052132    14A     -1.030975    15A     -0.902681
      16A     -0.850205    17A     -0.816732    18A     -0.740380
      19A     -0.706206    20A     -0.690016    21A     -0.644585
      22A     -0.640617    23A     -0.614974    24A     -0.609448
      25A     -0.577990    26A     -0.556857    27A     -0.545916
      28A     -0.516187    29A     -0.492711    30A     -0.426806
      31A     -0.358323    32A     -0.331267

  @DF-RHF Final Energy:  -418.43878883006300

   => Energetics <=

    Nuclear Repulsion Energy =            404.0887532198580629
    One-Electron Energy =               -1370.7838702078101960
    Two-Electron Energy =                 548.2563281578896976
    DFT Exchange-Correlation Energy =       0.0000000000000000
    Empirical Dispersion Energy =           0.0000000000000000
    PCM Polarization Energy =               0.0000000000000000
    EFP Energy =                            0.0000000000000000
    Total Energy =                       -418.4387888300624354
    Molecular point group: c1
  Basis Set: CC-PVTZ
  Basis Set:

  -Total Gradient:
     Atom            X                  Y                   Z
    ------   -----------------  -----------------  -----------------
       1        0.000019896828     0.000000304145    -0.000814458259
       2       -0.000080209303    -0.000046302187     0.001356470799
       3        0.000242310262     0.000178233838    -0.001132915675
       4       -0.000072516791    -0.000175611482     0.000575619151
       5       -0.000105997297     0.000045391060    -0.000001096202
       6       -0.000000311101     0.000007380076    -0.000003254044
       7       -0.000120192268     0.000031204327     0.000047572943
       8        0.000007987355    -0.000004497691    -0.000004478726
       9        0.000006409346    -0.000113050115     0.000014342618
      10        0.000007526278    -0.000001846658    -0.000005795846
      11        0.000096507485     0.000076212248    -0.000034687618
      12        0.000008345275     0.000017880240     0.000000211154
      13       -0.000004767222    -0.000003496030    -0.000000009626
      14       -0.000003352917    -0.000012794179    -0.000000813501
      15       -0.000001635941     0.000000992407     0.000003292833

  **** Optimization is complete! (in 6 steps) ****
    Final optimized geometry and variables:
    Molecular point group: c1

    Geometry (in Angstrom), charge = 0, multiplicity = 1:

    H            3.074555209278    -1.385623465021     0.149853215449
    O            2.169876526484    -1.640793968792     0.136573503263
    C            1.358147955394    -0.565025430447     0.126441234416
    C            1.832071793183     0.721145496974     0.338754582481
    C            0.011675258574    -0.776854552469    -0.085406977087
    H            2.880721959684     0.882892517359     0.510911807769
    C            0.960835036827     1.791116656143     0.331042657099
    H           -0.357931407779    -1.768950774068    -0.247139616226
    C           -0.855704900074     0.301194304148    -0.087270397528
    H            1.338885912087     2.781721699780     0.494215776146
    C           -0.388275311942     1.587615814375     0.118491817429
    C           -2.308902791483     0.086556684042    -0.315027257960
    H           -1.068627153370     2.417734979867     0.113727481114
    O           -2.813555405285    -0.966687441020    -0.502481428626
    H           -2.913297841333     0.998953117829    -0.298865719377

  Mulliken Charges: (a.u.)
   Center  Symbol    Alpha    Beta     Spin     Total
       1     H     0.38713  0.38713  0.00000  0.22573
       2     O     4.17029  4.17029  0.00000 -0.34058
       3     C     2.84277  2.84277  0.00000  0.31447
       4     C     3.12573  3.12573  0.00000 -0.25145
       5     C     3.11866  3.11866  0.00000 -0.23732
       6     H     0.43066  0.43066  0.00000  0.13869
       7     C     3.06299  3.06299  0.00000 -0.12597
       8     H     0.40480  0.40480  0.00000  0.19039
       9     C     2.97076  2.97076  0.00000  0.05847
      10     H     0.41937  0.41937  0.00000  0.16126
      11     C     3.10927  3.10927  0.00000 -0.21854
      12     C     2.90900  2.90900  0.00000  0.18199
      13     H     0.42324  0.42324  0.00000  0.15351
      14     O     4.16885  4.16885  0.00000 -0.33769
      15     H     0.45648  0.45648  0.00000  0.08704

   Total alpha = 32.00000, Total beta = 32.00000, Total charge =  0.00000

*** Psi4 exiting successfully. Buy a developer a beer!
