  ==> Input File <==

--------------------------------------------------------------------------
set {
	reference rhf
	basis cc-pvtz
}

set_num_threads( 4 )
memory 2 gb

molecule MOL {
0 1

H	 -2.123894	 -0.667238	 -0.609809
O	 -2.041679	 -0.058866	 0.103463
C	 -0.959304	 0.780994	 -0.094939
C	 0.354905	 0.037902	 -0.006215
H	 -0.985899	 1.279578	 -1.057596
H	 -0.969809	 1.529522	 0.682889
F	 0.297929	 -1.104754	 -0.667185
F	 1.323069	 0.756113	 -0.535770
F	 0.691456	 -0.241046	 1.230269

	symmetry c1
}
set optking {
	frozen_dihedral = ("
		7 4 3 5
	")
}

ee = optimize('scf')
oeprop('DIPOLE', 'QUADRUPOLE', 'MULLIKEN_CHARGES')
f=open( 'psi4out.xyz', 'w' )
f.write( "9  " )
f.write( str(ee) + "\n" )
f.write( MOL.save_string_xyz() )
f.close()
--------------------------------------------------------------------------

    Molecular point group: c1
  Charge       = 0
  Multiplicity = 1
  Basis Set: CC-PVTZ
  Basis Set:
  @DF-RHF Final Energy:  -450.84613873786151
    Total Energy =                       -450.8461387378616223
    Molecular point group: c1
  Basis Set: CC-PVTZ
  Basis Set:
  Basis Set: CC-PVTZ
  Basis Set:
  @DF-RHF Final Energy:  -450.84627234505541
    Total Energy =                       -450.8462723450553540
  Basis Set: CC-PVTZ
  Basis Set:
  Basis Set: CC-PVTZ
  Basis Set:
  @DF-RHF Final Energy:  -450.84631940896810
    Total Energy =                       -450.8463194089681565
  Basis Set: CC-PVTZ
  Basis Set:
  Basis Set: CC-PVTZ
  Basis Set:
  @DF-RHF Final Energy:  -450.84632196593094
    Total Energy =                       -450.8463219659308834
  Basis Set: CC-PVTZ
  Basis Set:
  Charge       = 0
  Multiplicity = 1
  Basis Set: CC-PVTZ
  Basis Set:

    Orbital Energies (a.u.)
    -----------------------

    Doubly Occupied:

       1A    -26.340786     2A    -26.340661     3A    -26.334778
       4A    -20.583980     5A    -11.494586     6A    -11.309886
       7A     -1.748383     8A     -1.646616     9A     -1.642032
      10A     -1.407842    11A     -1.049958    12A     -0.930244
      13A     -0.837591    14A     -0.837084    15A     -0.813754
      16A     -0.730355    17A     -0.719558    18A     -0.704485
      19A     -0.672608    20A     -0.666408    21A     -0.649534
      22A     -0.632592    23A     -0.620016    24A     -0.532737
      25A     -0.484795

  @DF-RHF Final Energy:  -450.84632237786326

   => Energetics <=

    Nuclear Repulsion Energy =            277.6159791629683582
    One-Electron Energy =               -1177.4620651944005658
    Two-Electron Energy =                 448.9997636535690617
    DFT Exchange-Correlation Energy =       0.0000000000000000
    Empirical Dispersion Energy =           0.0000000000000000
    PCM Polarization Energy =               0.0000000000000000
    EFP Energy =                            0.0000000000000000
    Total Energy =                       -450.8463223778630891
    Molecular point group: c1
  Basis Set: CC-PVTZ
  Basis Set:

  -Total Gradient:
     Atom            X                  Y                   Z
    ------   -----------------  -----------------  -----------------
       1        0.000008431355     0.000011902805    -0.000008086952
       2        0.000053373985     0.000051643278    -0.000000573375
       3       -0.002231400671    -0.004137273613    -0.001050466220
       4        0.001598158025     0.002460847341    -0.002990113865
       5        0.001545102067     0.002938151111     0.001517908100
       6       -0.000001701561     0.000008218703     0.000013687064
       7       -0.001004320500    -0.001392020051     0.002555323091
       8        0.000050712222     0.000040946544    -0.000016208481
       9       -0.000018354926     0.000017583880    -0.000021469356

  **** Optimization is complete! (in 5 steps) ****
    Final optimized geometry and variables:
    Molecular point group: c1

    Geometry (in Angstrom), charge = 0, multiplicity = 1:

    H           -2.114217332601    -0.689652507799    -0.570015485423
    O           -2.046930367512    -0.044295380420     0.111494615703
    C           -0.960777604679     0.782002530690    -0.106214408500
    C            0.357011653969     0.038170955290    -0.013759389923
    H           -0.985987808698     1.293112410303    -1.062483928280
    H           -0.959222778076     1.535681538032     0.667373638666
    F            0.312634456429    -1.097519090655    -0.685032631458
    F            1.336152239525     0.764487109781    -0.508498886397
    F            0.671243067727    -0.261200132305     1.226640439174

  Mulliken Charges: (a.u.)
   Center  Symbol    Alpha    Beta     Spin     Total
       1     H     0.38576  0.38576  0.00000  0.22848
       2     O     4.19123  4.19123  0.00000 -0.38245
       3     C     2.99257  2.99257  0.00000  0.01487
       4     C     2.68205  2.68205  0.00000  0.63590
       5     H     0.46312  0.46312  0.00000  0.07375
       6     H     0.44864  0.44864  0.00000  0.10271
       7     F     4.61652  4.61652  0.00000 -0.23303
       8     F     4.61099  4.61099  0.00000 -0.22197
       9     F     4.60913  4.60913  0.00000 -0.21826

   Total alpha = 25.00000, Total beta = 25.00000, Total charge = -0.00000
