                              Psi4 1.0.54 Driver

  ==> Input File <==

--------------------------------------------------------------------------
set {
	reference rhf
	basis cc-pvtz
}

set_num_threads( 4 )
memory 2 gb

molecule MOL {
0 1

O	 0.948244	 0.918600	 0.801257
C	 0.576499	 0.134701	 -0.003900
C	 -0.765656	 -0.550508	 -0.002152
O	 1.314404	 -0.256743	 -1.029687
C	 -1.945526	 0.411052	 0.000603
H	 -0.794329	 -1.203792	 -0.868145
H	 -0.791555	 -1.205429	 0.862701
C	 -3.282915	 -0.321280	 0.002596
H	 -1.880300	 1.059126	 -0.864925
H	 -1.877207	 1.057892	 0.866807
H	 -3.388495	 -0.952755	 -0.873419
H	 -4.107811	 0.380864	 0.004116
H	 -3.385717	 -0.953283	 0.878571
C	 2.605510	 0.305409	 -1.152335
H	 2.545306	 1.378121	 -1.260583
H	 3.038170	 -0.134378	 -2.036123
H	 3.206895	 0.071475	 -0.286510

	symmetry c1
}
set optking {
	frozen_dihedral = ("
		1 2 3 6
	")
}

ee,wfn = optimize('scf', return_wfn=True)
oeprop( wfn, 'DIPOLE', 'QUADRUPOLE', 'MULLIKEN_CHARGES')
f=open( 'psi4out.xyz', 'w' )
f.write( "17  " )
f.write( str(ee) + "\n" )
f.write( MOL.save_string_xyz() )
f.close()
--------------------------------------------------------------------------

    Molecular point group: c1
  Charge       = 0
  Multiplicity = 1
  Basis Set: CC-PVTZ
  Basis Set:
  @DF-RHF Final Energy:  -345.03344200528909
    Total Energy =                       -345.0334420052889755
    Molecular point group: c1
  Basis Set: CC-PVTZ
  Basis Set:
  Basis Set: CC-PVTZ
  Basis Set:
  @DF-RHF Final Energy:  -345.03396125864037
    Total Energy =                       -345.0339612586406020
  Basis Set: CC-PVTZ
  Basis Set:
  Basis Set: CC-PVTZ
  Basis Set:
  @DF-RHF Final Energy:  -345.03393308684196
    Total Energy =                       -345.0339330868419552
  Basis Set: CC-PVTZ
  Basis Set:
  Basis Set: CC-PVTZ
  Basis Set:
  @DF-RHF Final Energy:  -345.03404286683968
    Total Energy =                       -345.0340428668396271
  Basis Set: CC-PVTZ
  Basis Set:
  Basis Set: CC-PVTZ
  Basis Set:
  @DF-RHF Final Energy:  -345.03405134049189
    Total Energy =                       -345.0340513404917147
  Basis Set: CC-PVTZ
  Basis Set:
  Charge       = 0
  Multiplicity = 1
  Basis Set: CC-PVTZ
  Basis Set:

    Orbital Energies (a.u.)
    -----------------------

    Doubly Occupied:

       1A    -20.599124     2A    -20.531637     3A    -11.364462
       4A    -11.278849     5A    -11.232914     6A    -11.226242
       7A    -11.214812     8A     -1.472982     9A     -1.364993
      10A     -1.082893    11A     -1.001651    12A     -0.942015
      13A     -0.828938    14A     -0.773772    15A     -0.701114
      16A     -0.684150    17A     -0.676121    18A     -0.637689
      19A     -0.596114    20A     -0.582909    21A     -0.561665
      22A     -0.535493    23A     -0.526706    24A     -0.504003
      25A     -0.485719    26A     -0.482423    27A     -0.458809
      28A     -0.438159

  @DF-RHF Final Energy:  -345.03405171725092

   => Energetics <=

    Nuclear Repulsion Energy =            313.3686298179160303
    One-Electron Energy =               -1091.2326555792092222
    Two-Electron Energy =                 432.8299740440425012
    DFT Exchange-Correlation Energy =       0.0000000000000000
    Empirical Dispersion Energy =           0.0000000000000000
    PCM Polarization Energy =               0.0000000000000000
    EFP Energy =                            0.0000000000000000
    Total Energy =                       -345.0340517172506907
    Molecular point group: c1
  Basis Set: CC-PVTZ
  Basis Set:

  -Total Gradient:
     Atom            X                  Y                   Z
    ------   -----------------  -----------------  -----------------
       1        0.000198798969    -0.000345389251     0.000260983956
       2       -0.000232803969     0.000477558291    -0.000239958504
       3       -0.000148527701     0.000293222749    -0.000216242977
       4        0.000013978264    -0.000048558367    -0.000016829459
       5        0.000030001933    -0.000016580412    -0.000005586570
       6        0.000164389573    -0.000384351046     0.000196030401
       7        0.000003300047    -0.000006984118     0.000004344361
       8        0.000003317419    -0.000003644722     0.000013083413
       9        0.000005999310    -0.000002905810    -0.000006075660
      10       -0.000009149477     0.000031517441     0.000022559257
      11       -0.000000922270    -0.000005896542    -0.000017644557
      12       -0.000005753282     0.000009033277     0.000003881008
      13       -0.000004324798    -0.000011824075     0.000010413762
      14       -0.000039761470     0.000025873435    -0.000020298169
      15        0.000013118138     0.000003997318     0.000000091724
      16        0.000006439077    -0.000006624253    -0.000006847866
      17        0.000001900235    -0.000008443915     0.000018095875

  **** Optimization is complete! (in 6 steps) ****
    Final optimized geometry and variables:
    Molecular point group: c1

    Geometry (in Angstrom), charge = 0, multiplicity = 1:

    O            0.976134189613     0.746344172525     1.024269003077
    C            0.621428232758     0.004246939952     0.171619087757
    C           -0.721191199262    -0.682899244201     0.152965042131
    O            1.373034017141    -0.316369820946    -0.866620989320
    C           -1.876802279791     0.316099284708     0.228522777325
    H           -0.798796607433    -1.304423731384    -0.727951220991
    H           -0.746934305148    -1.333414040550     1.020950082191
    C           -3.233806277391    -0.375980481902     0.279155859542
    H           -1.837455156909     0.974780636374    -0.633732807916
    H           -1.743964491099     0.939846266978     1.103083240822
    H           -3.396711334692    -0.990630885302    -0.599766748691
    H           -4.036166045424     0.350364317412     0.328136364132
    H           -3.313409580710    -1.016737155017     1.150871592096
    C            2.660450794049     0.263984480964    -0.936908061482
    H            2.590868449293     1.340717288655    -0.978581588386
    H            3.108973092593    -0.116175396650    -1.840314676850
    H            3.252061073778    -0.017958395924    -0.078689020202

  Mulliken Charges: (a.u.)
   Center  Symbol    Alpha    Beta     Spin     Total
       1     O     4.20435  4.20435  0.00000 -0.40871
       2     C     2.81273  2.81273  0.00000  0.37454
       3     C     3.08134  3.08134  0.00000 -0.16269
       4     O     4.14346  4.14346  0.00000 -0.28693
       5     C     3.08694  3.08694  0.00000 -0.17387
       6     H     0.43993  0.43993  0.00000  0.12014
       7     H     0.44556  0.44556  0.00000  0.10887
       8     C     3.15129  3.15129  0.00000 -0.30258
       9     H     0.45190  0.45190  0.00000  0.09621
      10     H     0.43971  0.43971  0.00000  0.12059
      11     H     0.45517  0.45517  0.00000  0.08967
      12     H     0.44600  0.44600  0.00000  0.10800
      13     H     0.45376  0.45376  0.00000  0.09248
      14     C     3.03458  3.03458  0.00000 -0.06917
      15     H     0.45407  0.45407  0.00000  0.09186
      16     H     0.44512  0.44512  0.00000  0.10976
      17     H     0.45409  0.45409  0.00000  0.09181

   Total alpha = 28.00000, Total beta = 28.00000, Total charge =  0.00000

*** Psi4 exiting successfully. Buy a developer a beer!
