  ==> Input File <==

--------------------------------------------------------------------------
set {
	reference rhf
	basis 6-31G*
}

set_num_threads( 4 )
memory 2 gb

molecule MOL {
0 1

H	 -1.836216	 1.387520	 -0.000064
C	 -1.301823	 0.443321	 -0.000031
O	 -0.003969	 0.658512	 0.000451
O	 -1.829879	 -0.616434	 -0.000857
C	 0.850537	 -0.484732	 0.000380
C	 2.200005	 -0.042897	 0.523866
H	 0.917169	 -0.870043	 -1.007793
H	 0.408924	 -1.250623	 0.623022
H	 2.623463	 0.729880	 -0.107428
H	 2.882653	 -0.886090	 0.539678
H	 2.112926	 0.347493	 1.531289

	symmetry c1
}
set optking {
	frozen_dihedral = ("
		7 5 3 2
	")
}

ee = optimize('scf')
oeprop('DIPOLE', 'QUADRUPOLE', 'MULLIKEN_CHARGES')
f=open( 'psi4out.xyz', 'w' )
f.write( "11  " )
f.write( str(ee) + "\n" )
f.write( MOL.save_string_xyz() )
f.close()
--------------------------------------------------------------------------

    Molecular point group: c1
  Charge       = 0
  Multiplicity = 1
  Basis Set: 6-31G*
  Basis Set:
  @DF-RHF Final Energy:  -266.82824842612592
    Total Energy =                       -266.8282484261261516
    Molecular point group: c1
  Basis Set: 6-31G*
  Basis Set:
  Basis Set: 6-31G*
  Basis Set:
  @DF-RHF Final Energy:  -266.82831169255724
    Total Energy =                       -266.8283116925572358
  Basis Set: 6-31G*
  Basis Set:
  Basis Set: 6-31G*
  Basis Set:
  @DF-RHF Final Energy:  -266.82811999075943
    Total Energy =                       -266.8281199907594328
  Basis Set: 6-31G*
  Basis Set:
  Basis Set: 6-31G*
  Basis Set:
  @DF-RHF Final Energy:  -266.82834837031464
    Total Energy =                       -266.8283483703146999
  Basis Set: 6-31G*
  Basis Set:
  Basis Set: 6-31G*
  Basis Set:
  @DF-RHF Final Energy:  -266.82837295224238
    Total Energy =                       -266.8283729522423755
  Basis Set: 6-31G*
  Basis Set:
  Charge       = 0
  Multiplicity = 1
  Basis Set: 6-31G*
  Basis Set:

    Orbital Energies (a.u.)
    -----------------------

    Doubly Occupied:

       1A    -20.612843     2A    -20.556763     3A    -11.378703
       4A    -11.291633     5A    -11.226717     6A     -1.475636
       7A     -1.374118     8A     -1.052798     9A     -0.903287
      10A     -0.804651    11A     -0.739091    12A     -0.688657
      13A     -0.677033    14A     -0.593801    15A     -0.574456
      16A     -0.556912    17A     -0.522758    18A     -0.510469
      19A     -0.460022    20A     -0.453419

  @DF-RHF Final Energy:  -266.82837365574994

   => Energetics <=

    Nuclear Repulsion Energy =            179.2318338891349185
    One-Electron Energy =                -719.2128809430631691
    Two-Electron Energy =                 273.1526733981783082
    DFT Exchange-Correlation Energy =       0.0000000000000000
    Empirical Dispersion Energy =           0.0000000000000000
    PCM Polarization Energy =               0.0000000000000000
    EFP Energy =                            0.0000000000000000
    Total Energy =                       -266.8283736557499424
    Molecular point group: c1
  Basis Set: 6-31G*
  Basis Set:

  -Total Gradient:
     Atom            X                  Y                   Z
    ------   -----------------  -----------------  -----------------
       1        0.000018478406    -0.000012702310    -0.000003683849
       2        0.000049282480    -0.000052444352     0.001310917851
       3        0.000303600131     0.000331677353    -0.001937095585
       4       -0.000056762406    -0.000008323135     0.000012397204
       5       -0.001495720555    -0.001088823513     0.000847724369
       6       -0.000021704119    -0.000002457905    -0.000009047217
       7        0.001194452079     0.000872228374    -0.000219007087
       8        0.000011116815    -0.000036384891    -0.000000298315
       9        0.000001175584     0.000001086943    -0.000000246356
      10        0.000001424890    -0.000001832723     0.000001450997
      11       -0.000005343304    -0.000002023841    -0.000003112011

  **** Optimization is complete! (in 6 steps) ****
    Final optimized geometry and variables:
    Molecular point group: c1

    Geometry (in Angstrom), charge = 0, multiplicity = 1:

    H           -1.808598000159     1.408931989985    -0.088646529405
    C           -1.286497870018     0.458159111047    -0.108566897682
    O            0.013754232086     0.660401247433    -0.097725698890
    O           -1.829958834535    -0.593366444024    -0.136766827086
    C            0.871689539535    -0.480944395774    -0.084868286532
    C            2.225081970101    -0.028202998214     0.421615414508
    H            0.942155170253    -0.864068364635    -1.094707415766
    H            0.439795338921    -1.244588694173     0.543733247312
    H            2.632689744841     0.751065656136    -0.211941484006
    H            2.915950613225    -0.865014190722     0.424257780428
    H            2.147874063452     0.356891377199     1.431968044600

  Mulliken Charges: (a.u.)
   Center  Symbol    Alpha    Beta     Spin     Total
       1     H     0.41088  0.41088  0.00000  0.17825
       2     C     2.72739  2.72739  0.00000  0.54521
       3     O     4.29148  4.29148  0.00000 -0.58295
       4     O     4.26313  4.26313  0.00000 -0.52626
       5     C     3.00823  3.00823  0.00000 -0.01647
       6     C     3.24877  3.24877  0.00000 -0.49754
       7     H     0.41136  0.41136  0.00000  0.17728
       8     H     0.40205  0.40205  0.00000  0.19591
       9     H     0.41017  0.41017  0.00000  0.17966
      10     H     0.41535  0.41535  0.00000  0.16929
      11     H     0.41119  0.41119  0.00000  0.17762

   Total alpha = 20.00000, Total beta = 20.00000, Total charge = -0.00000
