  ==> Input File <==

--------------------------------------------------------------------------
set {
	reference rhf
	basis 6-31G*
}

set_num_threads( 4 )
memory 2 gb

molecule MOL {
0 1

H	 -3.042581	 -0.665861	 0.004336
O	 -2.245037	 -1.176175	 0.000806
C	 -1.162163	 -0.365336	 0.001020
C	 -0.329003	 -0.238001	 -1.095776
C	 -0.905280	 0.349413	 1.164624
H	 -0.525304	 -0.793416	 -1.997414
C	 0.764598	 0.612673	 -1.016397
H	 -1.571912	 0.224669	 1.998385
C	 0.184774	 1.198446	 1.242331
H	 1.415940	 0.712286	 -1.866615
C	 1.025415	 1.325473	 0.136367
C	 0.451543	 1.994408	 2.498667
H	 1.878632	 1.979040	 0.183272
H	 1.506168	 1.982747	 2.752476
H	 -0.101943	 1.599527	 3.342222
H	 0.158759	 3.032249	 2.366348

	symmetry c1
}
set optking {
	frozen_dihedral = ("
		5 3 2 1
	")
}

ee = optimize('scf')
oeprop('DIPOLE', 'QUADRUPOLE', 'MULLIKEN_CHARGES')
f=open( 'psi4out.xyz', 'w' )
f.write( "16  " )
f.write( str(ee) + "\n" )
f.write( MOL.save_string_xyz() )
f.close()
--------------------------------------------------------------------------

    Molecular point group: c1
  Charge       = 0
  Multiplicity = 1
  Basis Set: 6-31G*
  Basis Set:
  @DF-RHF Final Energy:  -344.58990900161274
    Total Energy =                       -344.5899090016124546
    Molecular point group: c1
  Basis Set: 6-31G*
  Basis Set:
  Basis Set: 6-31G*
  Basis Set:
  @DF-RHF Final Energy:  -344.59108251344236
    Total Energy =                       -344.5910825134423021
  Basis Set: 6-31G*
  Basis Set:
  Basis Set: 6-31G*
  Basis Set:
  @DF-RHF Final Energy:  -344.59115790455121
    Total Energy =                       -344.5911579045510962
  Basis Set: 6-31G*
  Basis Set:
  Basis Set: 6-31G*
  Basis Set:
  @DF-RHF Final Energy:  -344.59116568255195
    Total Energy =                       -344.5911656825517753
  Basis Set: 6-31G*
  Basis Set:
  Basis Set: 6-31G*
  Basis Set:
  @DF-RHF Final Energy:  -344.59116720122000
    Total Energy =                       -344.5911672012200597
  Basis Set: 6-31G*
  Basis Set:
  Charge       = 0
  Multiplicity = 1
  Basis Set: 6-31G*
  Basis Set:

    Orbital Energies (a.u.)
    -----------------------

    Doubly Occupied:

       1A    -20.576209     2A    -11.287469     3A    -11.241859
       4A    -11.232340     5A    -11.222643     6A    -11.221798
       7A    -11.221261     8A    -11.220165     9A     -1.391346
      10A     -1.149979    11A     -1.043395    12A     -1.003074
      13A     -0.936956    14A     -0.830558    15A     -0.802280
      16A     -0.719067    17A     -0.676644    18A     -0.651471
      19A     -0.616373    20A     -0.589495    21A     -0.576270
      22A     -0.567065    23A     -0.551724    24A     -0.514398
      25A     -0.502059    26A     -0.480081    27A     -0.462653
      28A     -0.329355    29A     -0.316378

  @DF-RHF Final Energy:  -344.59116762054276

   => Energetics <=

    Nuclear Repulsion Energy =            345.0325718203317251
    One-Electron Energy =               -1151.3787433611198594
    Two-Electron Energy =                 461.7550039202455991
    DFT Exchange-Correlation Energy =       0.0000000000000000
    Empirical Dispersion Energy =           0.0000000000000000
    PCM Polarization Energy =               0.0000000000000000
    EFP Energy =                            0.0000000000000000
    Total Energy =                       -344.5911676205425920
    Molecular point group: c1
  Basis Set: 6-31G*
  Basis Set:

  -Total Gradient:
     Atom            X                  Y                   Z
    ------   -----------------  -----------------  -----------------
       1        0.000032740638     0.000073604520    -0.001586712381
       2        0.000252906661    -0.000575488083     0.002164697132
       3       -0.000960071076     0.001361521394    -0.001008719296
       4        0.000016252271     0.000008191186    -0.000000533889
       5        0.000662494225    -0.000884410961     0.000433337875
       6       -0.000008506024    -0.000004713645     0.000005870604
       7       -0.000019802761    -0.000007088985     0.000008553058
       8        0.000016346213     0.000001194590    -0.000018124519
       9        0.000009269768     0.000008963716     0.000002533573
      10       -0.000001344676     0.000002850246    -0.000000971721
      11       -0.000002308861     0.000005402093    -0.000002504504
      12        0.000000158354     0.000010117195    -0.000008713464
      13       -0.000006473263     0.000003270190     0.000007711297
      14        0.000002719685    -0.000012487750     0.000002632177
      15       -0.000006290726     0.000005612304     0.000004671584
      16        0.000011909573     0.000003461993    -0.000003727528

  **** Optimization is complete! (in 6 steps) ****
    Final optimized geometry and variables:
    Molecular point group: c1

    Geometry (in Angstrom), charge = 0, multiplicity = 1:

    H           -2.719589181130    -1.168200760458    -0.426649844412
    O           -1.903989474103    -1.650618943982    -0.436754820443
    C           -0.842898531857    -0.786950732383    -0.380060776522
    C           -0.008271727424    -0.674540062007    -1.475355114112
    C           -0.576785314680    -0.081036875070     0.783809420935
    H           -0.223027522479    -1.241451282044    -2.362105926088
    C            1.093873801648     0.162819602883    -1.397708660695
    H           -1.229974623590    -0.209799229129     1.629221127608
    C            0.518803135994     0.766588555455     0.862867122210
    H            1.751211243867     0.254842424507    -2.244089638684
    C            1.355014400001     0.880025117979    -0.244215864707
    C            0.796550264125     1.558355523170     2.119859347337
    H            2.214532422564     1.526094681651    -0.199412741903
    H            1.852135876805     1.540315519064     2.369140645958
    H            0.246153986544     1.163081049501     2.965651482513
    H            0.508494953343     2.598566484310     1.994596443940

  Mulliken Charges: (a.u.)
   Center  Symbol    Alpha    Beta     Spin     Total
       1     H     0.27197  0.27197  0.00000  0.45606
       2     O     4.38753  4.38753  0.00000 -0.77505
       3     C     2.81142  2.81142  0.00000  0.37715
       4     C     3.12228  3.12228  0.00000 -0.24456
       5     C     3.14053  3.14053  0.00000 -0.28107
       6     H     0.39386  0.39386  0.00000  0.21229
       7     C     3.09299  3.09299  0.00000 -0.18598
       8     H     0.39961  0.39961  0.00000  0.20077
       9     C     2.97323  2.97323  0.00000  0.05355
      10     H     0.39853  0.39853  0.00000  0.20295
      11     C     3.11795  3.11795  0.00000 -0.23590
      12     C     3.25430  3.25430  0.00000 -0.50861
      13     H     0.40250  0.40250  0.00000  0.19501
      14     H     0.41107  0.41107  0.00000  0.17786
      15     H     0.41236  0.41236  0.00000  0.17527
      16     H     0.40987  0.40987  0.00000  0.18026

   Total alpha = 29.00000, Total beta = 29.00000, Total charge = -0.00000
