  ==> Input File <==

--------------------------------------------------------------------------
set {
	reference rhf
	basis 6-31G*
}

set_num_threads( 4 )
memory 2 gb

molecule MOL {
0 1

O	 -3.259760	 0.420976	 0.989744
C	 -2.668563	 0.129746	 -0.000350
C	 -3.185711	 0.384488	 -1.392805
O	 -1.481751	 -0.454642	 0.000584
H	 -3.364848	 1.446743	 -1.508502
H	 -2.493019	 0.044393	 -2.148418
H	 -4.136036	 -0.122679	 -1.509183
C	 -0.334255	 0.388708	 0.000906
C	 0.891947	 -0.504646	 0.000751
H	 -0.365390	 1.025305	 -0.873475
H	 -0.365484	 1.024911	 0.875569
C	 2.191998	 0.301789	 0.000897
H	 0.855148	 -1.151283	 -0.871571
H	 0.855132	 -1.151660	 0.872805
C	 3.441114	 -0.581407	 0.000108
H	 2.215074	 0.954890	 -0.869742
H	 2.215465	 0.953923	 0.872248
C	 4.739576	 0.224112	 -0.001102
H	 3.419457	 -1.233487	 -0.870178
H	 3.420834	 -1.233096	 0.870717
H	 4.804918	 0.861552	 -0.878265
H	 5.606527	 -0.429058	 -0.001824
H	 4.806469	 0.861674	 0.875853

	symmetry c1
}
set optking {
	frozen_dihedral = ("
		1 2 4 8
	")
}

ee = optimize('scf')
oeprop('DIPOLE', 'QUADRUPOLE', 'MULLIKEN_CHARGES')
f=open( 'psi4out.xyz', 'w' )
f.write( "23  " )
f.write( str(ee) + "\n" )
f.write( MOL.save_string_xyz() )
f.close()
--------------------------------------------------------------------------

    Molecular point group: c1
  Charge       = 0
  Multiplicity = 1
  Basis Set: 6-31G*
  Basis Set:
  @DF-RHF Final Energy:  -422.95757389356476
    Total Energy =                       -422.9575738935643585
    Molecular point group: c1
  Basis Set: 6-31G*
  Basis Set:
  Basis Set: 6-31G*
  Basis Set:
  @DF-RHF Final Energy:  -422.95779230962165
    Total Energy =                       -422.9577923096218228
  Basis Set: 6-31G*
  Basis Set:
  Basis Set: 6-31G*
  Basis Set:
  @DF-RHF Final Energy:  -422.95878000562891
    Total Energy =                       -422.9587800056285687
  Basis Set: 6-31G*
  Basis Set:
  Basis Set: 6-31G*
  Basis Set:
  @DF-RHF Final Energy:  -422.95903454261975
    Total Energy =                       -422.9590345426199747
  Basis Set: 6-31G*
  Basis Set:
  @DF-RHF Final Energy:  -422.95905326812897
    Total Energy =                       -422.9590532681287414
  @DF-RHF Final Energy:  -422.95907226849687
    Total Energy =                       -422.9590722684963566
  @DF-RHF Final Energy:  -422.95907492880440
    Total Energy =                       -422.9590749288045117
  @DF-RHF Final Energy:  -422.95919638783334
    Total Energy =                       -422.9591963878331171
  @DF-RHF Final Energy:  -422.95937762162089
    Total Energy =                       -422.9593776216207743
  @DF-RHF Final Energy:  -422.95971900731655
    Total Energy =                       -422.9597190073163802
  @DF-RHF Final Energy:  -422.96031704209656
    Total Energy =                       -422.9603170420958804
  @DF-RHF Final Energy:  -422.96027017897666
    Total Energy =                       -422.9602701789762023
  @DF-RHF Final Energy:  -422.96049812845115
    Total Energy =                       -422.9604981284505811
  @DF-RHF Final Energy:  -422.96061957862122
    Total Energy =                       -422.9606195786212766
  @DF-RHF Final Energy:  -422.96067275150341
    Total Energy =                       -422.9606727515033526
  @DF-RHF Final Energy:  -422.96070528569561
    Total Energy =                       -422.9607052856961218
  Basis Set: 6-31G*
  Basis Set:
  @DF-RHF Final Energy:  -422.96073615018588
    Total Energy =                       -422.9607361501856531
  Basis Set: 6-31G*
  Basis Set:
  Basis Set: 6-31G*
  Basis Set:
  @DF-RHF Final Energy:  -422.96077434596532
    Total Energy =                       -422.9607743459652056
  Basis Set: 6-31G*
  Basis Set:
  Basis Set: 6-31G*
  Basis Set:
  @DF-RHF Final Energy:  -422.96078695299792
    Total Energy =                       -422.9607869529977506
  Basis Set: 6-31G*
  Basis Set:
  Charge       = 0
  Multiplicity = 1
  Basis Set: 6-31G*
  Basis Set:

    Orbital Energies (a.u.)
    -----------------------

    Doubly Occupied:

       1A    -20.582364     2A    -20.555636     3A    -11.376501
       4A    -11.292516     5A    -11.236741     6A    -11.226926
       7A    -11.226253     8A    -11.223404     9A    -11.214571
      10A     -1.457168    11A     -1.366022    12A     -1.095004
      13A     -1.037208    14A     -1.008672    15A     -0.934571
      16A     -0.842813    17A     -0.805140    18A     -0.774648
      19A     -0.697565    20A     -0.686545    21A     -0.654098
      22A     -0.649171    23A     -0.619454    24A     -0.591183
      25A     -0.582414    26A     -0.575722    27A     -0.560765
      28A     -0.548697    29A     -0.516134    30A     -0.501806
      31A     -0.490091    32A     -0.479431    33A     -0.473606
      34A     -0.472168    35A     -0.452015    36A     -0.433723

  @DF-RHF Final Energy:  -422.96078738661527

   => Energetics <=

    Nuclear Repulsion Energy =            448.8079035330951001
    One-Electron Energy =               -1465.0558881839872356
    Two-Electron Energy =                 593.2871972642772107
    DFT Exchange-Correlation Energy =       0.0000000000000000
    Empirical Dispersion Energy =           0.0000000000000000
    PCM Polarization Energy =               0.0000000000000000
    EFP Energy =                            0.0000000000000000
    Total Energy =                       -422.9607873866149248
    Molecular point group: c1
  Basis Set: 6-31G*
  Basis Set:

  -Total Gradient:
     Atom            X                  Y                   Z
    ------   -----------------  -----------------  -----------------
       1       -0.001383907852    -0.002638753437     0.000095920161
       2        0.002013123760     0.003813587195    -0.001251445692
       3        0.000040523596     0.000035922292    -0.000012850619
       4       -0.000551852025    -0.001095371403     0.003564371472
       5       -0.000006752390    -0.000006604129    -0.000002735624
       6       -0.000009950292    -0.000011113733     0.000004506169
       7       -0.000007754680    -0.000014672073    -0.000002103094
       8       -0.000044309918    -0.000067862401    -0.002436480749
       9       -0.000013050120    -0.000017032094     0.000031837160
      10       -0.000007971025     0.000025238051    -0.000007932170
      11       -0.000013671824    -0.000019176119     0.000007661780
      12       -0.000006609246     0.000007942300    -0.000018504321
      13       -0.000005546350     0.000008363153     0.000002550348
      14        0.000013782289    -0.000019364137     0.000010179756
      15       -0.000010716945    -0.000004322795     0.000029962269
      16       -0.000012227255     0.000002951652    -0.000004763366
      17        0.000013107687    -0.000002273032    -0.000002243199
      18       -0.000004708476     0.000003632014    -0.000015664589
      19        0.000010290563     0.000001690575     0.000001351457
      20       -0.000010343068    -0.000002161294     0.000000359299
      21       -0.000003299511     0.000008590732     0.000006986256
      22       -0.000001858671    -0.000001299760    -0.000008297280
      23        0.000003701773    -0.000007911556     0.000007334575

  **** Optimization is complete! (in 20 steps) ****
    Final optimized geometry and variables:
    Molecular point group: c1

    Geometry (in Angstrom), charge = 0, multiplicity = 1:

    O           -3.234026541983     0.489638140198     1.049561902019
    C           -2.697681788542     0.170916293715     0.046419667070
    C           -3.293808413193     0.333177513807    -1.326880757430
    O           -1.502783289804    -0.461493168320     0.045040843062
    H           -4.232257833034     0.864136867468    -1.265712987149
    H           -2.609581399565     0.865340533483    -1.978654385624
    H           -3.452802425405    -0.649036302310    -1.758836564199
    C           -0.339796026688     0.351626093213     0.005575967676
    C            0.871888553134    -0.559498680963     0.056107651279
    H           -0.337471349387     0.943371650415    -0.906260229973
    H           -0.352216724978     1.030079368623     0.851483487734
    C            2.187953302723     0.219399792032     0.022744199361
    H            0.822300549114    -1.248263266661    -0.782365650692
    H            0.811952197666    -1.157899908760     0.959991974045
    C            3.417744009703    -0.689099013572     0.075715370236
    H            2.230972153233     0.826074708642    -0.880524089550
    H            2.221003594460     0.914442498055     0.859907293343
    C            4.733092357262     0.087882249254     0.045332334235
    H            3.388039584034    -1.382901794827    -0.761390303068
    H            3.376724520160    -1.295927636546     0.977226047339
    H            4.817702582288     0.681362147063    -0.860645383228
    H            5.585581336428    -0.582949002739     0.081666935193
    H            4.808578105755     0.764662971319     0.891642948302

  Mulliken Charges: (a.u.)
   Center  Symbol    Alpha    Beta     Spin     Total
       1     O     4.24934  4.24934  0.00000 -0.49868
       2     C     2.62693  2.62693  0.00000  0.74615
       3     C     3.28711  3.28711  0.00000 -0.57423
       4     O     4.32116  4.32116  0.00000 -0.64232
       5     H     0.39696  0.39696  0.00000  0.20607
       6     H     0.40729  0.40729  0.00000  0.18542
       7     H     0.39761  0.39761  0.00000  0.20477
       8     C     2.99456  2.99456  0.00000  0.01089
       9     C     3.16301  3.16301  0.00000 -0.32602
      10     H     0.42585  0.42585  0.00000  0.14831
      11     H     0.41186  0.41186  0.00000  0.17628
      12     C     3.16102  3.16102  0.00000 -0.32204
      13     H     0.41351  0.41351  0.00000  0.17299
      14     H     0.40855  0.40855  0.00000  0.18290
      15     C     3.15164  3.15164  0.00000 -0.30328
      16     H     0.42277  0.42277  0.00000  0.15447
      17     H     0.42028  0.42028  0.00000  0.15943
      18     C     3.23998  3.23998  0.00000 -0.47995
      19     H     0.42120  0.42120  0.00000  0.15760
      20     H     0.41992  0.41992  0.00000  0.16017
      21     H     0.42145  0.42145  0.00000  0.15710
      22     H     0.41742  0.41742  0.00000  0.16516
      23     H     0.42059  0.42059  0.00000  0.15882

   Total alpha = 36.00000, Total beta = 36.00000, Total charge =  0.00000
