  ==> Input File <==

--------------------------------------------------------------------------
set {
	reference rhf
	basis 6-31G*
}

set_num_threads( 1 )
memory 2 gb

molecule MOL {
0 1

H	 -3.301617	 0.570527	 0.000000
C	 -2.250981	 0.344174	 0.000000
C	 -1.813665	 -0.976045	 0.000000
C	 -1.315303	 1.358057	 0.000000
H	 -2.528860	 -1.779366	 0.000000
C	 -0.467298	 -1.270142	 0.000000
H	 -1.635074	 2.385107	 0.000000
C	 0.047081	 1.078114	 0.000000
H	 -0.115948	 -2.285222	 0.000000
C	 0.472063	 -0.241155	 0.000000
H	 0.749976	 1.888426	 0.000000
O	 1.765256	 -0.628444	 0.000000
C	 2.773129	 0.317516	 -0.210772
H	 2.679347	 0.787812	 -1.184096
H	 3.707513	 -0.221759	 -0.166948
H	 2.767523	 1.082240	 0.558967

	symmetry c1
}
set optking {
	frozen_dihedral = ("
		10 12 13 14
	")
}

ee = energy('scf')
oeprop('DIPOLE', 'QUADRUPOLE', 'MULLIKEN_CHARGES')
f=open( 'psi4out.xyz', 'w' )
f.write( "16  " )
f.write( str(ee) + "\n" )
f.write( MOL.save_string_xyz() )
f.close()
--------------------------------------------------------------------------

    Molecular point group: c1

    Geometry (in Angstrom), charge = 0, multiplicity = 1:

       Center              X                  Y                   Z               Mass
    ------------   -----------------  -----------------  -----------------  -----------------
           H         -3.300843962193     0.573108197472     0.030794147281     1.007825032070
           C         -2.250207962193     0.346755197472     0.030794147281    12.000000000000
           C         -1.812891962193    -0.973463802528     0.030794147281    12.000000000000
           C         -1.314529962193     1.360638197472     0.030794147281    12.000000000000
           H         -2.528086962193    -1.776784802528     0.030794147281     1.007825032070
           C         -0.466524962193    -1.267560802528     0.030794147281    12.000000000000
           H         -1.634300962193     2.387688197472     0.030794147281     1.007825032070
           C          0.047854037807     1.080695197472     0.030794147281    12.000000000000
           H         -0.115174962193    -2.282640802528     0.030794147281     1.007825032070
           C          0.472836037807    -0.238573802528     0.030794147281    12.000000000000
           H          0.750749037807     1.891007197472     0.030794147281     1.007825032070
           O          1.766029037807    -0.625862802528     0.030794147281    15.994914619560
           C          2.773902037807     0.320097197472    -0.179977852719    12.000000000000
           H          2.680120037807     0.790393197472    -1.153301852719     1.007825032070
           H          3.708286037807    -0.219177802528    -0.136153852719     1.007825032070
           H          2.768296037807     1.084821197472     0.589761147281     1.007825032070

  Charge       = 0
  Multiplicity = 1
  Basis Set: 6-31G*
  Basis Set:

    Orbital Energies (a.u.)
    -----------------------

    Doubly Occupied:

       1A    -20.584721     2A    -11.293829     3A    -11.279867
       4A    -11.232839     5A    -11.231288     6A    -11.223811
       7A    -11.219335     8A    -11.219151     9A     -1.414014
      10A     -1.145734    11A     -1.021645    12A     -1.012672
      13A     -0.941404    14A     -0.830346    15A     -0.804590
      16A     -0.721506    17A     -0.663993    18A     -0.661922
      19A     -0.655598    20A     -0.616766    21A     -0.586814
      22A     -0.575755    23A     -0.524802    24A     -0.519556
      25A     -0.508545    26A     -0.475882    27A     -0.461054
      28A     -0.334562    29A     -0.305123

  @DF-RHF Final Energy:  -344.58248803829451

   => Energetics <=

    Nuclear Repulsion Energy =            348.1142638910339429
    One-Electron Energy =               -1157.2590181375571774
    Two-Electron Energy =                 464.5622662082282659
    DFT Exchange-Correlation Energy =       0.0000000000000000
    Empirical Dispersion Energy =           0.0000000000000000
    PCM Polarization Energy =               0.0000000000000000
    EFP Energy =                            0.0000000000000000
    Total Energy =                       -344.5824880382949686

  Mulliken Charges: (a.u.)
   Center  Symbol    Alpha    Beta     Spin     Total
       1     H     0.40122  0.40122  0.00000  0.19756
       2     C     3.11192  3.11192  0.00000 -0.22383
       3     C     3.09194  3.09194  0.00000 -0.18389
       4     C     3.09115  3.09115  0.00000 -0.18229
       5     H     0.39881  0.39881  0.00000  0.20238
       6     C     3.12532  3.12532  0.00000 -0.25065
       7     H     0.39967  0.39967  0.00000  0.20066
       8     C     3.14422  3.14422  0.00000 -0.28843
       9     H     0.39296  0.39296  0.00000  0.21408
      10     C     2.78273  2.78273  0.00000  0.43453
      11     H     0.39751  0.39751  0.00000  0.20499
      12     O     4.32623  4.32623  0.00000 -0.65246
      13     C     3.09169  3.09169  0.00000 -0.18338
      14     H     0.41902  0.41902  0.00000  0.16197
      15     H     0.40490  0.40490  0.00000  0.19019
      16     H     0.42071  0.42071  0.00000  0.15858

   Total alpha = 29.00000, Total beta = 29.00000, Total charge = -0.00000
