  ==> Input File <==

--------------------------------------------------------------------------
set {
	reference rhf
	basis 6-31G*
}

set_num_threads( 4 )
memory 2 gb

molecule MOL {
0 1

O	 1.371310	 2.124431	 0.143720
C	 0.299044	 2.564922	 0.407028
C	 -0.995819	 1.789624	 0.396518
O	 0.099431	 3.829205	 0.757570
C	 -0.823008	 0.326187	 0.001381
H	 -1.436997	 1.881048	 1.385314
H	 -1.675624	 2.302153	 -0.278685
C	 -2.149452	 -0.435131	 -0.000098
H	 -0.125786	 -0.148680	 0.684441
H	 -0.365736	 0.272777	 -0.981654
C	 -3.368779	 0.488503	 -0.000883
H	 -2.193746	 -1.087250	 -0.871175
H	 -2.195311	 -1.087803	 0.870418
C	 -4.693822	 -0.272754	 -0.001129
H	 -3.325798	 1.139422	 -0.871284
H	 -3.326423	 1.139959	 0.869145
H	 -4.781274	 -0.907928	 -0.878124
H	 -5.538651	 0.408946	 -0.001420
H	 -4.781694	 -0.907783	 0.875984
C	 1.238120	 4.669252	 0.809156
H	 1.952158	 4.297664	 1.529990
H	 0.875278	 5.640147	 1.108463
H	 1.710794	 4.728752	 -0.160661

	symmetry c1
}
set optking {
	frozen_dihedral = ("
		9 5 8 12
	")
}

ee = optimize('scf')
oeprop('DIPOLE', 'QUADRUPOLE', 'MULLIKEN_CHARGES')
f=open( 'psi4out.xyz', 'w' )
f.write( "23  " )
f.write( str(ee) + "\n" )
f.write( MOL.save_string_xyz() )
f.close()
--------------------------------------------------------------------------

    Molecular point group: c1
  Charge       = 0
  Multiplicity = 1
  Basis Set: 6-31G*
  Basis Set:
  @DF-RHF Final Energy:  -422.96334745055566
    Total Energy =                       -422.9633474505558297
    Molecular point group: c1
  Basis Set: 6-31G*
  Basis Set:
  Basis Set: 6-31G*
  Basis Set:
  @DF-RHF Final Energy:  -422.96336968711296
    Total Energy =                       -422.9633696871128450
  Basis Set: 6-31G*
  Basis Set:
  Basis Set: 6-31G*
  Basis Set:
  @DF-RHF Final Energy:  -422.96706293141580
    Total Energy =                       -422.9670629314155121
  Basis Set: 6-31G*
  Basis Set:
  Basis Set: 6-31G*
  Basis Set:
  @DF-RHF Final Energy:  -422.96758230361650
    Total Energy =                       -422.9675823036161546
  Basis Set: 6-31G*
  Basis Set:
  @DF-RHF Final Energy:  -422.96742742999692
    Total Energy =                       -422.9674274299960643
  Basis Set: 6-31G*
  Basis Set:
  @DF-RHF Final Energy:  -422.96761475109435
    Total Energy =                       -422.9676147510947430
  Basis Set: 6-31G*
  Basis Set:
  Basis Set: 6-31G*
  Basis Set:
  @DF-RHF Final Energy:  -422.96768292582721
    Total Energy =                       -422.9676829258271482
  Basis Set: 6-31G*
  Basis Set:
  Basis Set: 6-31G*
  Basis Set:
  @DF-RHF Final Energy:  -422.96768665231093
    Total Energy =                       -422.9676866523118406
  Basis Set: 6-31G*
  Basis Set:
  Charge       = 0
  Multiplicity = 1
  Basis Set: 6-31G*
  Basis Set:

    Orbital Energies (a.u.)
    -----------------------

    Doubly Occupied:

       1A    -20.603226     2A    -20.545200     3A    -11.371837
       4A    -11.280608     5A    -11.234682     6A    -11.219682
       7A    -11.219334     8A    -11.218145     9A    -11.211233
      10A     -1.468983    11A     -1.362439    12A     -1.091061
      13A     -1.041617    14A     -0.985987    15A     -0.932391
      16A     -0.853627    17A     -0.792188    18A     -0.758857
      19A     -0.698915    20A     -0.683414    21A     -0.670483
      22A     -0.649948    23A     -0.610223    24A     -0.601056
      25A     -0.576989    26A     -0.560416    27A     -0.549120
      28A     -0.525250    29A     -0.521909    30A     -0.511597
      31A     -0.496217    32A     -0.466434    33A     -0.459009
      34A     -0.455405    35A     -0.452024    36A     -0.437473

  @DF-RHF Final Energy:  -422.96768701432819

   => Energetics <=

    Nuclear Repulsion Energy =            458.4687372475746656
    One-Electron Energy =               -1484.6388874355329790
    Two-Electron Energy =                 603.2024631736301217
    DFT Exchange-Correlation Energy =       0.0000000000000000
    Empirical Dispersion Energy =           0.0000000000000000
    PCM Polarization Energy =               0.0000000000000000
    EFP Energy =                            0.0000000000000000
    Total Energy =                       -422.9676870143282486
    Molecular point group: c1
  Basis Set: 6-31G*
  Basis Set:

  -Total Gradient:
     Atom            X                  Y                   Z
    ------   -----------------  -----------------  -----------------
       1        0.000002424103     0.000014087551    -0.000003462188
       2       -0.000007232366    -0.000011268407     0.000003384312
       3        0.000004586019    -0.000016194363     0.000021870650
       4        0.000013256299     0.000000345475     0.000003350090
       5        0.001667086275    -0.002946930457    -0.005423985796
       6       -0.000004710795     0.000009515968    -0.000003798335
       7        0.000003631564    -0.000008937844    -0.000006668599
       8        0.002440696929    -0.003880652743     0.004331882157
       9       -0.001788564907     0.003090262053     0.003918065524
      10        0.000005665489    -0.000005791630    -0.000003042563
      11        0.000007129017    -0.000007681932    -0.000056181277
      12       -0.002368735743     0.003770363308    -0.002802518953
      13        0.000017392388    -0.000010484621     0.000004778967
      14        0.000002816023    -0.000006366629     0.000018246998
      15        0.000001839693     0.000022028645    -0.000005995821
      16        0.000000251258    -0.000019240194     0.000000865996
      17        0.000001442496     0.000007426065     0.000000486257
      18        0.000002175778     0.000001768432     0.000004159210
      19       -0.000002683851    -0.000007851021     0.000000115933
      20       -0.000001392977     0.000004357575    -0.000002177174
      21       -0.000000692780    -0.000000335124     0.000000360989
      22        0.000002367381     0.000000935015     0.000000445958
      23        0.000001252703     0.000000644881    -0.000000182335

  **** Optimization is complete! (in 9 steps) ****
    Final optimized geometry and variables:
    Molecular point group: c1

    Geometry (in Angstrom), charge = 0, multiplicity = 1:

    O            2.363811721979     0.396211232341    -0.165125392022
    C            1.320614167089     0.886128663738     0.126326404006
    C           -0.014677973530     0.180742542711     0.135706725909
    O            1.192837770730     2.155902750075     0.491610710544
    C            0.094149775419    -1.287936508544    -0.280780346602
    H           -0.421311120298     0.284121944403     1.137370881006
    H           -0.675656362334     0.745558380998    -0.512734833455
    C           -1.231438111848    -2.090494308327    -0.250386513965
    H            0.798499628708    -1.747468464328     0.402913388798
    H            0.539265531941    -1.334072020632    -1.267200361694
    C           -2.535290731638    -1.282464108723    -0.300529946450
    H           -1.247143040105    -2.746297600794    -1.116660872722
    H           -1.253913062719    -2.726395791398     0.629947918768
    C           -3.766778271726    -2.187821561358    -0.328720527968
    H           -2.542030714132    -0.647216875711    -1.183462657358
    H           -2.605928869722    -0.619081498459     0.556781433934
    H           -3.756943434576    -2.837867648617    -1.198959154078
    H           -4.681881339829    -1.604731177400    -0.361579547627
    H           -3.808710756000    -2.819793653800     0.553956605855
    C            2.373505375569     2.936687358352     0.525719459957
    H            3.082731008601     2.523001712724     1.228152844698
    H            2.066781191491     3.921974935240     0.840589800063
    H            2.828305839169     2.981174790461    -0.453419099179

  Mulliken Charges: (a.u.)
   Center  Symbol    Alpha    Beta     Spin     Total
       1     O     4.28601  4.28601  0.00000 -0.57203
       2     C     2.60450  2.60450  0.00000  0.79100
       3     C     3.21219  3.21219  0.00000 -0.42437
       4     O     4.30758  4.30758  0.00000 -0.61516
       5     C     3.15597  3.15597  0.00000 -0.31195
       6     H     0.40058  0.40058  0.00000  0.19884
       7     H     0.39901  0.39901  0.00000  0.20198
       8     C     3.15533  3.15533  0.00000 -0.31066
       9     H     0.40929  0.40929  0.00000  0.18142
      10     H     0.40951  0.40951  0.00000  0.18097
      11     C     3.15744  3.15744  0.00000 -0.31487
      12     H     0.41896  0.41896  0.00000  0.16208
      13     H     0.41985  0.41985  0.00000  0.16030
      14     C     3.23887  3.23887  0.00000 -0.47774
      15     H     0.42275  0.42275  0.00000  0.15449
      16     H     0.42213  0.42213  0.00000  0.15574
      17     H     0.42103  0.42103  0.00000  0.15793
      18     H     0.41861  0.41861  0.00000  0.16278
      19     H     0.42122  0.42122  0.00000  0.15757
      20     C     3.09232  3.09232  0.00000 -0.18464
      21     H     0.40917  0.40917  0.00000  0.18166
      22     H     0.40852  0.40852  0.00000  0.18297
      23     H     0.40915  0.40915  0.00000  0.18169

   Total alpha = 36.00000, Total beta = 36.00000, Total charge = -0.00000
