  ==> Input File <==

--------------------------------------------------------------------------
set {
	reference rhf
	basis 6-31G*
}

set_num_threads( 4 )
memory 2 gb

molecule MOL {
0 1

H	 2.261501	 2.530596	 -0.056528
N	 1.470857	 1.922872	 -0.151925
C	 1.865559	 0.531981	 0.018834
H	 1.100262	 2.072304	 -1.071250
C	 0.645745	 -0.382037	 -0.029944
H	 2.342656	 0.441631	 0.989954
H	 2.597430	 0.199562	 -0.721613
C	 -0.679275	 0.379305	 0.025956
H	 0.698998	 -0.976915	 -0.937203
H	 0.693479	 -1.083846	 0.802235
C	 -1.903357	 -0.536963	 -0.023547
H	 -0.726309	 1.082987	 -0.803784
H	 -0.717680	 0.977832	 0.934877
C	 -3.225172	 0.228290	 0.028445
H	 -1.867824	 -1.134999	 -0.931459
H	 -1.860449	 -1.239604	 0.805977
H	 -3.313397	 0.915643	 -0.808262
H	 -4.073500	 -0.448134	 -0.008893
H	 -3.306061	 0.809945	 0.942516

	symmetry c1
}
set optking {
	frozen_dihedral = ("
		6 3 5 9
	")
}

ee = optimize('scf')
oeprop('DIPOLE', 'QUADRUPOLE', 'MULLIKEN_CHARGES')
f=open( 'psi4out.xyz', 'w' )
f.write( "19  " )
f.write( str(ee) + "\n" )
f.write( MOL.save_string_xyz() )
f.close()
--------------------------------------------------------------------------

    Molecular point group: c1
  Charge       = 0
  Multiplicity = 1
  Basis Set: 6-31G*
  Basis Set:
  @DF-RHF Final Energy:  -251.34041649471277
    Total Energy =                       -251.3404164947128265
    Molecular point group: c1
  Basis Set: 6-31G*
  Basis Set:
  Basis Set: 6-31G*
  Basis Set:
  @DF-RHF Final Energy:  -251.34106364420106
    Total Energy =                       -251.3410636442013697
  Basis Set: 6-31G*
  Basis Set:
  Basis Set: 6-31G*
  Basis Set:
  @DF-RHF Final Energy:  -251.34338726504501
    Total Energy =                       -251.3433872650449530
  Basis Set: 6-31G*
  Basis Set:
  Basis Set: 6-31G*
  Basis Set:
  @DF-RHF Final Energy:  -251.34357527999236
    Total Energy =                       -251.3435752799923080
  Basis Set: 6-31G*
  Basis Set:
  Basis Set: 6-31G*
  Basis Set:
  @DF-RHF Final Energy:  -251.34358709945607
    Total Energy =                       -251.3435870994564993
  Basis Set: 6-31G*
  Basis Set:
  Basis Set: 6-31G*
  Basis Set:
  @DF-RHF Final Energy:  -251.34358904532121
    Total Energy =                       -251.3435890453214370
  Basis Set: 6-31G*
  Basis Set:
  Basis Set: 6-31G*
  Basis Set:
  @DF-RHF Final Energy:  -251.34359462613355
    Total Energy =                       -251.3435946261336085
  Basis Set: 6-31G*
  Basis Set:
  Charge       = 0
  Multiplicity = 1
  Basis Set: 6-31G*
  Basis Set:

    Orbital Energies (a.u.)
    -----------------------

    Doubly Occupied:

       1A    -15.533532     2A    -11.241168     3A    -11.210069
       4A    -11.208829     5A    -11.203968     6A    -11.203176
       7A     -1.176530     8A     -1.065601     9A     -0.992360
      10A     -0.903814    11A     -0.812276    12A     -0.776096
      13A     -0.667003    14A     -0.635248    15A     -0.616131
      16A     -0.581323    17A     -0.565164    18A     -0.547351
      19A     -0.526596    20A     -0.496959    21A     -0.475710
      22A     -0.462323    23A     -0.452256    24A     -0.444660
      25A     -0.378074

  @DF-RHF Final Energy:  -251.34359475203314

   => Energetics <=

    Nuclear Repulsion Energy =            249.4514191041793083
    One-Electron Energy =                -833.2375919238014603
    Two-Electron Energy =                 332.4425780675888404
    DFT Exchange-Correlation Energy =       0.0000000000000000
    Empirical Dispersion Energy =           0.0000000000000000
    PCM Polarization Energy =               0.0000000000000000
    EFP Energy =                            0.0000000000000000
    Total Energy =                       -251.3435947520333116
    Molecular point group: c1
  Basis Set: 6-31G*
  Basis Set:

  -Total Gradient:
     Atom            X                  Y                   Z
    ------   -----------------  -----------------  -----------------
       1        0.000007420149    -0.000010659085     0.000003752485
       2        0.000019247169     0.000019779071    -0.000016507348
       3       -0.002811632026     0.003817244502     0.002642173137
       4        0.000000556527     0.000004007419    -0.000002602752
       5       -0.002215695916     0.003542856555    -0.003506983232
       6        0.002767710317    -0.003762165578    -0.001651493441
       7       -0.000010937166     0.000007971266     0.000010459154
       8       -0.000025030811    -0.000004888187     0.000114746094
       9        0.002270853541    -0.003612778925     0.002513578140
      10       -0.000003268351     0.000017139898    -0.000020662100
      11        0.000005473890    -0.000006919449    -0.000049699633
      12       -0.000004391467    -0.000005010838    -0.000016942802
      13        0.000002964861    -0.000003089465    -0.000013059813
      14        0.000002714647     0.000001844526     0.000000563253
      15       -0.000010955087    -0.000017975223    -0.000004465633
      16        0.000006290995     0.000012710829    -0.000002904199
      17       -0.000002096686    -0.000001601691    -0.000000122140
      18       -0.000000635218    -0.000000234234     0.000001376232
      19        0.000001410634     0.000001768609    -0.000001205401

  **** Optimization is complete! (in 8 steps) ****
    Final optimized geometry and variables:
    Molecular point group: c1

    Geometry (in Angstrom), charge = 0, multiplicity = 1:

    H            2.743697859540     2.102652800782     0.029667613554
    N            1.910682312407     1.576640195584    -0.152010368219
    C            2.157977314509     0.159220177963     0.072070517493
    H            1.667151116407     1.747598382086    -1.108934304087
    C            0.890266790732    -0.721730347556    -0.033770927988
    H            2.592184334650     0.045665694126     1.059278161160
    H            2.908276066314    -0.242161786785    -0.612286555781
    C           -0.450325928984     0.010110540911     0.046803815228
    H            0.937655514193    -1.322769021016    -0.939264961391
    H            0.927529231132    -1.450502995342     0.773326625865
    C           -1.638744718780    -0.953547710615     0.024641830266
    H           -0.545754549810     0.710572392273    -0.778252708061
    H           -0.481105608418     0.610216065497     0.950900522703
    C           -2.986816792385    -0.236573518414     0.093762603525
    H           -1.599340393004    -1.559051778527    -0.878979154298
    H           -1.557914737173    -1.647645251711     0.858830794794
    H           -3.115642318084     0.438065925086    -0.748028881826
    H           -3.810956466800    -0.943483506405     0.079988080292
    H           -3.070667528645     0.352349285879     1.002707098439

  Mulliken Charges: (a.u.)
   Center  Symbol    Alpha    Beta     Spin     Total
       1     H     0.33135  0.33135  0.00000  0.33729
       2     N     3.92191  3.92191  0.00000 -0.84382
       3     C     3.06066  3.06066  0.00000 -0.12131
       4     H     0.33449  0.33449  0.00000  0.33102
       5     C     3.16847  3.16847  0.00000 -0.33694
       6     H     0.41947  0.41947  0.00000  0.16106
       7     H     0.43248  0.43248  0.00000  0.13504
       8     C     3.14026  3.14026  0.00000 -0.28051
       9     H     0.42344  0.42344  0.00000  0.15312
      10     H     0.42111  0.42111  0.00000  0.15778
      11     C     3.15269  3.15269  0.00000 -0.30538
      12     H     0.42605  0.42605  0.00000  0.14790
      13     H     0.41418  0.41418  0.00000  0.17164
      14     C     3.23846  3.23846  0.00000 -0.47691
      15     H     0.42557  0.42557  0.00000  0.14885
      16     H     0.42456  0.42456  0.00000  0.15089
      17     H     0.42258  0.42258  0.00000  0.15484
      18     H     0.42097  0.42097  0.00000  0.15806
      19     H     0.42131  0.42131  0.00000  0.15738

   Total alpha = 25.00000, Total beta = 25.00000, Total charge =  0.00000
