  ==> Input File <==

--------------------------------------------------------------------------
set {
	reference rhf
	basis cc-pvtz
}

set_num_threads( 4 )
memory 2 gb

molecule MOL {
0 1

O	 -1.272382	 -1.312652	 -1.935252
C	 -0.519254	 -1.237337	 -1.024771
C	 0.748218	 -2.040711	 -0.876572
O	 -0.695554	 -0.422406	 0.000602
C	 0.997741	 -2.995243	 -2.033110
H	 0.683149	 -2.571694	 0.066706
H	 1.564014	 -1.335247	 -0.763728
H	 0.189514	 -3.707482	 -2.131604
H	 1.918413	 -3.542593	 -1.871496
H	 1.078382	 -2.459805	 -2.969609
C	 -1.852370	 0.402254	 0.000718
C	 -3.063338	 -0.501097	 -0.000437
H	 -1.831732	 1.039442	 -0.872158
H	 -1.832493	 1.038301	 0.874430
H	 -3.071944	 -1.133732	 -0.879113
H	 -3.966302	 0.097976	 -0.000483
H	 -3.072764	 -1.134834	 0.877435

	symmetry c1
}
set optking {
	frozen_dihedral = ("
		2 4 11 13
	")
}

ee = optimize('scf')
oeprop('DIPOLE', 'QUADRUPOLE', 'MULLIKEN_CHARGES')
f=open( 'psi4out.xyz', 'w' )
f.write( "17  " )
f.write( str(ee) + "\n" )
f.write( MOL.save_string_xyz() )
f.close()
--------------------------------------------------------------------------

    Molecular point group: c1
  Charge       = 0
  Multiplicity = 1
  Basis Set: CC-PVTZ
  Basis Set:
  @DF-RHF Final Energy:  -345.03133737760862
    Total Energy =                       -345.0313373776088497
    Molecular point group: c1
  Basis Set: CC-PVTZ
  Basis Set:
  Basis Set: CC-PVTZ
  Basis Set:
  @DF-RHF Final Energy:  -345.03733331698209
    Total Energy =                       -345.0373333169820853
  Basis Set: CC-PVTZ
  Basis Set:
  Basis Set: CC-PVTZ
  Basis Set:
  @DF-RHF Final Energy:  -345.03802703525207
    Total Energy =                       -345.0380270352519005
  Basis Set: CC-PVTZ
  Basis Set:
  Basis Set: CC-PVTZ
  Basis Set:
  @DF-RHF Final Energy:  -345.03632484578708
    Total Energy =                       -345.0363248457871350
  Basis Set: CC-PVTZ
  Basis Set:
  Basis Set: CC-PVTZ
  Basis Set:
  @DF-RHF Final Energy:  -345.03811401856137
    Total Energy =                       -345.0381140185616573
  Basis Set: CC-PVTZ
  Basis Set:
  Basis Set: CC-PVTZ
  Basis Set:
  @DF-RHF Final Energy:  -345.03812388512091
    Total Energy =                       -345.0381238851214221
  Basis Set: CC-PVTZ
  Basis Set:
  Basis Set: CC-PVTZ
  Basis Set:
  @DF-RHF Final Energy:  -345.03812548522421
    Total Energy =                       -345.0381254852242705
  Basis Set: CC-PVTZ
  Basis Set:
  Charge       = 0
  Multiplicity = 1
  Basis Set: CC-PVTZ
  Basis Set:

    Orbital Energies (a.u.)
    -----------------------

    Doubly Occupied:

       1A    -20.592627     2A    -20.532564     3A    -11.364112
       4A    -11.284306     5A    -11.235402     6A    -11.214972
       7A    -11.213622     8A     -1.468912     9A     -1.364839
      10A     -1.069385    11A     -1.028579    12A     -0.918235
      13A     -0.856109    14A     -0.755292    15A     -0.703716
      16A     -0.683370    17A     -0.663539    18A     -0.622878
      19A     -0.612285    20A     -0.569332    21A     -0.547068
      22A     -0.533206    23A     -0.521824    24A     -0.517343
      25A     -0.496732    26A     -0.490707    27A     -0.454865
      28A     -0.436684

  @DF-RHF Final Energy:  -345.03812576799317

   => Energetics <=

    Nuclear Repulsion Energy =            319.7675217939626009
    One-Electron Energy =               -1104.1062851416145350
    Two-Electron Energy =                 439.3006375796585985
    DFT Exchange-Correlation Energy =       0.0000000000000000
    Empirical Dispersion Energy =           0.0000000000000000
    PCM Polarization Energy =               0.0000000000000000
    EFP Energy =                            0.0000000000000000
    Total Energy =                       -345.0381257679933356
    Molecular point group: c1
  Basis Set: CC-PVTZ
  Basis Set:

  -Total Gradient:
     Atom            X                  Y                   Z
    ------   -----------------  -----------------  -----------------
       1        0.000068696775     0.000006177787    -0.000026334759
       2       -0.001802073590    -0.002699944798     0.001796136877
       3       -0.000022221670    -0.000031311378     0.000021180300
       4        0.002968534055     0.004816088962    -0.002162399867
       5        0.000010605976     0.000018411031    -0.000002892568
       6        0.000013188411     0.000018172596    -0.000011066818
       7        0.000010193939     0.000019151020    -0.000011114769
       8       -0.000003796623    -0.000006915097     0.000000066654
       9       -0.000003605120    -0.000004257780     0.000001079170
      10       -0.000003543746    -0.000001574583     0.000004021026
      11       -0.003469954010    -0.004968300514    -0.001682048764
      12       -0.000076228764    -0.000032837315     0.000018964155
      13        0.002181109001     0.002882827454     0.002044237822
      14        0.000106112597    -0.000012694085     0.000001506514
      15       -0.000010913688     0.000020499521     0.000004934036
      16        0.000031758265    -0.000016586382    -0.000007642948
      17        0.000002138193    -0.000006906441     0.000011373940

  **** Optimization is complete! (in 8 steps) ****
    Final optimized geometry and variables:
    Molecular point group: c1

    Geometry (in Angstrom), charge = 0, multiplicity = 1:

    O           -0.366087650583    -0.150054299946    -1.181744690482
    C            0.325309142837    -0.088090571616    -0.222338654728
    C            1.570373830350    -0.909571776313     0.001273602732
    O            0.107453888863     0.732713610313     0.790000489096
    C            1.900777975439    -1.835732935770    -1.158019858207
    H            1.425460068046    -1.465605547228     0.921099245850
    H            2.381335368438    -0.217487158682     0.198430003867
    H            1.095874100768    -2.535236357801    -1.339590260266
    H            2.800372520727    -2.398272491836    -0.939741406275
    H            2.060656176430    -1.276400565722    -2.070121877938
    C           -1.078475033196     1.518673023980     0.813105675305
    C           -2.349099694334     0.708227218954     0.967711226302
    H           -1.096467398713     2.155295807981    -0.060486283181
    H           -0.941630706073     2.155413696577     1.674885584567
    H           -2.545219128773     0.098824969534     0.099587405879
    H           -3.182624527828     1.387231502116     1.107999191554
    H           -2.285316027010     0.070442611993     1.841849155298

  Mulliken Charges: (a.u.)
   Center  Symbol    Alpha    Beta     Spin     Total
       1     O     4.19950  4.19950  0.00000 -0.39900
       2     C     2.80121  2.80121  0.00000  0.39758
       3     C     3.09372  3.09372  0.00000 -0.18744
       4     O     4.15592  4.15592  0.00000 -0.31184
       5     C     3.13985  3.13985  0.00000 -0.27970
       6     H     0.44273  0.44273  0.00000  0.11455
       7     H     0.44072  0.44072  0.00000  0.11856
       8     H     0.44859  0.44859  0.00000  0.10282
       9     H     0.45055  0.45055  0.00000  0.09890
      10     H     0.44866  0.44866  0.00000  0.10268
      11     C     2.98597  2.98597  0.00000  0.02806
      12     C     3.15505  3.15505  0.00000 -0.31010
      13     H     0.45275  0.45275  0.00000  0.09451
      14     H     0.44546  0.44546  0.00000  0.10909
      15     H     0.43606  0.43606  0.00000  0.12788
      16     H     0.45015  0.45015  0.00000  0.09971
      17     H     0.45312  0.45312  0.00000  0.09376

   Total alpha = 28.00000, Total beta = 28.00000, Total charge = -0.00000
