  ==> Input File <==

--------------------------------------------------------------------------
set {
	reference rhf
	basis cc-pvtz
}

set_num_threads( 4 )
memory 2 gb

molecule MOL {
0 1

H	 2.732770	 -0.221189	 0.893424
N	 2.326826	 -0.066186	 0.000000
C	 0.934676	 -0.005420	 0.000000
H	 2.772352	 0.685646	 -0.472522
C	 0.226436	 -0.001077	 -1.195129
C	 0.226436	 -0.001077	 1.195129
H	 0.759091	 -0.011439	 -2.128123
C	 -1.153391	 0.009141	 -1.189028
H	 0.759091	 -0.011439	 2.128123
C	 -1.153391	 0.009141	 1.189028
H	 -1.680905	 0.012964	 -2.124348
C	 -1.857876	 0.014675	 0.000000
H	 -1.680905	 0.012964	 2.124348
H	 -2.930222	 0.022904	 0.000000

	symmetry c1
}
set optking {
	frozen_dihedral = ("
		1 2 3 5
	")
}

ee = optimize('scf')
oeprop('DIPOLE', 'QUADRUPOLE', 'MULLIKEN_CHARGES')
f=open( 'psi4out.xyz', 'w' )
f.write( "14  " )
f.write( str(ee) + "\n" )
f.write( MOL.save_string_xyz() )
f.close()
--------------------------------------------------------------------------

    Molecular point group: c1
  Charge       = 0
  Multiplicity = 1
  Basis Set: CC-PVTZ
  Basis Set:
  @DF-RHF Final Energy:  -285.83112069995559
    Total Energy =                       -285.8311206999558749
    Molecular point group: c1
  Basis Set: CC-PVTZ
  Basis Set:
  Basis Set: CC-PVTZ
  Basis Set:
  @DF-RHF Final Energy:  -285.83139380151675
    Total Energy =                       -285.8313938015164695
  Basis Set: CC-PVTZ
  Basis Set:
  Basis Set: CC-PVTZ
  Basis Set:
  @DF-RHF Final Energy:  -285.83143259041395
    Total Energy =                       -285.8314325904142379
  Basis Set: CC-PVTZ
  Basis Set:
  Basis Set: CC-PVTZ
  Basis Set:
  @DF-RHF Final Energy:  -285.83143635621224
    Total Energy =                       -285.8314363562116682
  Basis Set: CC-PVTZ
  Basis Set:
  Basis Set: CC-PVTZ
  Basis Set:
  @DF-RHF Final Energy:  -285.83143758593053
    Total Energy =                       -285.8314375859305301
  Basis Set: CC-PVTZ
  Basis Set:
  Charge       = 0
  Multiplicity = 1
  Basis Set: CC-PVTZ
  Basis Set:

    Orbital Energies (a.u.)
    -----------------------

    Doubly Occupied:

       1A    -15.550573     2A    -11.267634     3A    -11.226987
       4A    -11.226502     5A    -11.217572     6A    -11.215790
       7A    -11.214247     8A     -1.220878     9A     -1.130369
      10A     -1.013551    11A     -0.988176    12A     -0.831543
      13A     -0.812679    14A     -0.707401    15A     -0.685741
      16A     -0.652978    17A     -0.609039    18A     -0.595869
      19A     -0.582782    20A     -0.521311    21A     -0.506009
      22A     -0.489334    23A     -0.438890    24A     -0.335698
      25A     -0.300862

  @DF-RHF Final Energy:  -285.83143781885394

   => Energetics <=

    Nuclear Repulsion Energy =            273.5345927925585556
    One-Electron Energy =                -928.0472331759451663
    Two-Electron Energy =                 368.6812025645327253
    DFT Exchange-Correlation Energy =       0.0000000000000000
    Empirical Dispersion Energy =           0.0000000000000000
    PCM Polarization Energy =               0.0000000000000000
    EFP Energy =                            0.0000000000000000
    Total Energy =                       -285.8314378188538853
    Molecular point group: c1
  Basis Set: CC-PVTZ
  Basis Set:

  -Total Gradient:
     Atom            X                  Y                   Z
    ------   -----------------  -----------------  -----------------
       1       -0.000233903395    -0.004159586327    -0.000582806252
       2        0.000281458816     0.003852289581     0.000782720067
       3        0.000087021608     0.003302101077    -0.000235409761
       4       -0.000026539158     0.000024478714     0.000005762373
       5       -0.000198990325    -0.003083137254     0.000053776755
       6        0.000097022781     0.000053017199    -0.000016678436
       7        0.000005821438     0.000014732289     0.000008261621
       8        0.000056168831    -0.000028554214    -0.000038269357
       9       -0.000006659300     0.000011614138    -0.000003559009
      10       -0.000058914459    -0.000007180042    -0.000031818945
      11       -0.000008218816     0.000002532769     0.000003066830
      12        0.000009770112     0.000012468245     0.000057905966
      13       -0.000003354180     0.000001901866    -0.000001474531
      14       -0.000000683956     0.000003321958    -0.000001477316

  **** Optimization is complete! (in 6 steps) ****
    Final optimized geometry and variables:
    Molecular point group: c1

    Geometry (in Angstrom), charge = 0, multiplicity = 1:

    H            2.749614276905    -0.209206095345     0.876053364640
    N            2.331755798790    -0.061294994953    -0.012146949189
    C            0.932640944862     0.005387942091     0.005366764140
    H            2.785138239823     0.656270110128    -0.528486665301
    C            0.230220188452    -0.000333670652    -1.194085334870
    C            0.220327028180    -0.001749805545     1.194673702465
    H            0.773386068074    -0.029334844755    -2.119662033694
    C           -1.148036163864     0.021234126010    -1.196118421951
    H            0.748243618997    -0.001950935002     2.130455460189
    C           -1.162440849891    -0.005206811533     1.184276532583
    H           -1.672900504695     0.024707812601    -2.132839125583
    C           -1.857390713327     0.014692915523    -0.007543556464
    H           -1.695051789036    -0.013690700491     2.116577868186
    H           -2.929959192228     0.019732557412    -0.013412452590

  Mulliken Charges: (a.u.)
   Center  Symbol    Alpha    Beta     Spin     Total
       1     H     0.42166  0.42166  0.00000  0.15669
       2     N     3.69000  3.69000  0.00000 -0.37999
       3     C     2.88111  2.88111  0.00000  0.23779
       4     H     0.41579  0.41579  0.00000  0.16842
       5     C     3.11547  3.11547  0.00000 -0.23093
       6     C     3.11942  3.11942  0.00000 -0.23884
       7     H     0.42708  0.42708  0.00000  0.14585
       8     C     3.06083  3.06083  0.00000 -0.12165
       9     H     0.43368  0.43368  0.00000  0.13263
      10     C     3.06240  3.06240  0.00000 -0.12480
      11     H     0.42445  0.42445  0.00000  0.15109
      12     C     3.09849  3.09849  0.00000 -0.19697
      13     H     0.42465  0.42465  0.00000  0.15070
      14     H     0.42499  0.42499  0.00000  0.15002

   Total alpha = 25.00000, Total beta = 25.00000, Total charge = -0.00000
