                              Psi4 1.0.54 Driver

  ==> Input File <==

--------------------------------------------------------------------------
set {
	reference rhf
	basis cc-pvtz
}

set_num_threads( 4 )
memory 2 gb

molecule MOL {
0 1

H	 -1.778178	 -0.363296	 -1.050193
O	 -1.432053	 -0.565244	 -0.200812
C	 -0.727158	 0.534527	 0.310686
C	 0.680222	 0.664433	 -0.252229
H	 -1.306802	 1.408001	 0.044211
H	 -0.690821	 0.490158	 1.397609
C	 1.605391	 -0.489360	 0.123098
H	 0.615089	 0.745647	 -1.332226
H	 1.101414	 1.597893	 0.110950
H	 1.247627	 -1.432485	 -0.275204
H	 2.601435	 -0.332816	 -0.273062
H	 1.691776	 -0.589902	 1.200774

	symmetry c1
}
set optking {
	frozen_dihedral = ("
		1 2 3 4
	")
}

ee,wfn = optimize('scf', return_wfn=True)
oeprop( wfn, 'DIPOLE', 'QUADRUPOLE', 'MULLIKEN_CHARGES')
f=open( 'psi4out.xyz', 'w' )
f.write( "12  " )
f.write( str(ee) + "\n" )
f.write( MOL.save_string_xyz() )
f.close()
--------------------------------------------------------------------------

    Molecular point group: c1
  Charge       = 0
  Multiplicity = 1
  Basis Set: CC-PVTZ
  Basis Set:
  @DF-RHF Final Energy:  -193.18899828052000
    Total Energy =                       -193.1889982805200816
    Molecular point group: c1
  Basis Set: CC-PVTZ
  Basis Set:
  Basis Set: CC-PVTZ
  Basis Set:
  @DF-RHF Final Energy:  -193.19036855936264
    Total Energy =                       -193.1903685593625823
  Basis Set: CC-PVTZ
  Basis Set:
  Basis Set: CC-PVTZ
  Basis Set:
  @DF-RHF Final Energy:  -193.19072780289764
    Total Energy =                       -193.1907278028977544
  Basis Set: CC-PVTZ
  Basis Set:
  Basis Set: CC-PVTZ
  Basis Set:
  @DF-RHF Final Energy:  -193.19073397445422
    Total Energy =                       -193.1907339744542469
  Basis Set: CC-PVTZ
  Basis Set:
  Basis Set: CC-PVTZ
  Basis Set:
  @DF-RHF Final Energy:  -193.19073515001719
    Total Energy =                       -193.1907351500171330
  Basis Set: CC-PVTZ
  Basis Set:
  Charge       = 0
  Multiplicity = 1
  Basis Set: CC-PVTZ
  Basis Set:

    Orbital Energies (a.u.)
    -----------------------

    Doubly Occupied:

       1A    -20.546732     2A    -11.266335     3A    -11.216060
       4A    -11.204246     5A     -1.364532     6A     -1.048947
       7A     -0.921247     8A     -0.812068     9A     -0.689166
      10A     -0.639361    11A     -0.618606    12A     -0.567070
      13A     -0.527813    14A     -0.523025    15A     -0.483435
      16A     -0.467857    17A     -0.432558

  @DF-RHF Final Energy:  -193.19073534642143

   => Energetics <=

    Nuclear Repulsion Energy =            133.1530165667163601
    One-Electron Energy =                -526.0293912028787418
    Two-Electron Energy =                 199.6856392897409194
    DFT Exchange-Correlation Energy =       0.0000000000000000
    Empirical Dispersion Energy =           0.0000000000000000
    PCM Polarization Energy =               0.0000000000000000
    EFP Energy =                            0.0000000000000000
    Total Energy =                       -193.1907353464214623
    Molecular point group: c1
  Basis Set: CC-PVTZ
  Basis Set:

  -Total Gradient:
     Atom            X                  Y                   Z
    ------   -----------------  -----------------  -----------------
       1       -0.000927080464     0.000356377621     0.000443667865
       2        0.001218336300    -0.000619223904    -0.000339742591
       3       -0.000541977767     0.000604946437    -0.000645218290
       4        0.000227672020    -0.000356916710     0.000549378643
       5        0.000007765160    -0.000005433503    -0.000002788518
       6        0.000005256672     0.000008761027     0.000006109770
       7        0.000006346997    -0.000007992404     0.000000666229
       8        0.000000164515     0.000000368646    -0.000000378527
       9        0.000015888468     0.000006334805    -0.000005619196
      10        0.000002499598     0.000010732777     0.000000757149
      11       -0.000015490886    -0.000003859620     0.000007273080
      12        0.000000619384     0.000005904827    -0.000014105613

  **** Optimization is complete! (in 6 steps) ****
    Final optimized geometry and variables:
    Molecular point group: c1

    Geometry (in Angstrom), charge = 0, multiplicity = 1:

    H           -1.724881840392    -0.440635071471    -1.031821018730
    O           -1.392834153426    -0.605554763300    -0.168735293612
    C           -0.724132234840     0.530702200716     0.314344328691
    C            0.689534807882     0.664599930570    -0.231341826940
    H           -1.294215871575     1.429267036933     0.094766572719
    H           -0.693283769402     0.425724622511     1.392032251446
    C            1.595544934921    -0.503427338033     0.141643271005
    H            0.643533163066     0.763135325804    -1.313484485194
    H            1.110387031746     1.593788407521     0.143776207705
    H            1.190007857650    -1.439029410021    -0.220273323683
    H            2.585764867733    -0.377208509033    -0.280491920895
    H            1.702042769332    -0.582483502236     1.218628543720

  Mulliken Charges: (a.u.)
   Center  Symbol    Alpha    Beta     Spin     Total
       1     H     0.39428  0.39428  0.00000  0.21143
       2     O     4.20395  4.20395  0.00000 -0.40789
       3     C     2.97651  2.97651  0.00000  0.04697
       4     C     3.08502  3.08502  0.00000 -0.17004
       5     H     0.46178  0.46178  0.00000  0.07645
       6     H     0.46022  0.46022  0.00000  0.07957
       7     C     3.14682  3.14682  0.00000 -0.29364
       8     H     0.46059  0.46059  0.00000  0.07882
       9     H     0.45614  0.45614  0.00000  0.08773
      10     H     0.44724  0.44724  0.00000  0.10552
      11     H     0.45080  0.45080  0.00000  0.09841
      12     H     0.45666  0.45666  0.00000  0.08667

   Total alpha = 17.00000, Total beta = 17.00000, Total charge =  0.00000

*** Psi4 exiting successfully. Buy a developer a beer!
