  ==> Input File <==

--------------------------------------------------------------------------
set {
	reference rhf
	basis cc-pvtz
}

set_num_threads( 4 )
memory 2 gb

molecule MOL {
0 1

H	 -2.318960	 -0.405926	 2.418269
C	 -2.150884	 -1.441934	 2.133098
O	 -0.958172	 -1.590832	 1.438255
H	 -2.089307	 -2.043247	 3.028374
H	 -3.001892	 -1.778722	 1.543822
C	 -0.894676	 -0.876215	 0.247907
C	 0.474637	 -1.027342	 -0.365678
H	 -1.639600	 -1.247942	 -0.455569
H	 -1.094300	 0.179016	 0.421309
O	 1.401606	 -0.295166	 0.366636
H	 0.744061	 -2.081154	 -0.383662
H	 0.441207	 -0.671446	 -1.395334
C	 2.714315	 -0.441627	 -0.061017
H	 2.765292	 -0.641548	 -1.128869
H	 3.305661	 0.447341	 0.150952
H	 3.143725	 -1.278506	 0.470147

	symmetry c1
}
set optking {
	frozen_dihedral = ("
		7 10 13 14
	")
}

ee = optimize('scf')
oeprop('DIPOLE', 'QUADRUPOLE', 'MULLIKEN_CHARGES')
f=open( 'psi4out.xyz', 'w' )
f.write( "16  " )
f.write( str(ee) + "\n" )
f.write( MOL.save_string_xyz() )
f.close()
--------------------------------------------------------------------------

    Molecular point group: c1
  Charge       = 0
  Multiplicity = 1
  Basis Set: CC-PVTZ
  Basis Set:
  @DF-RHF Final Energy:  -307.09533891557726
    Total Energy =                       -307.0953389155771447
    Molecular point group: c1
  Basis Set: CC-PVTZ
  Basis Set:
  Basis Set: CC-PVTZ
  Basis Set:
  @DF-RHF Final Energy:  -307.09597739778422
    Total Energy =                       -307.0959773977840541
  Basis Set: CC-PVTZ
  Basis Set:
  Basis Set: CC-PVTZ
  Basis Set:
  @DF-RHF Final Energy:  -307.09611614988677
    Total Energy =                       -307.0961161498871093
  Basis Set: CC-PVTZ
  Basis Set:
  Charge       = 0
  Multiplicity = 1
  Basis Set: CC-PVTZ
  Basis Set:

    Orbital Energies (a.u.)
    -----------------------

    Doubly Occupied:

       1A    -20.547670     2A    -20.545930     3A    -11.267680
       4A    -11.266789     5A    -11.261485     6A    -11.261360
       7A     -1.390585     8A     -1.373127     9A     -1.031884
      10A     -0.937155    11A     -0.892261    12A     -0.824313
      13A     -0.685600    14A     -0.682027    15A     -0.659364
      16A     -0.636335    17A     -0.631775    18A     -0.598169
      19A     -0.551587    20A     -0.538298    21A     -0.509256
      22A     -0.479976    23A     -0.464540    24A     -0.421592
      25A     -0.411925

  @DF-RHF Final Energy:  -307.09611723384967

   => Energetics <=

    Nuclear Repulsion Energy =            258.7738595962332511
    One-Electron Energy =                -931.9985912432576924
    Two-Electron Energy =                 366.1286144131745459
    DFT Exchange-Correlation Energy =       0.0000000000000000
    Empirical Dispersion Energy =           0.0000000000000000
    PCM Polarization Energy =               0.0000000000000000
    EFP Energy =                            0.0000000000000000
    Total Energy =                       -307.0961172338498955
    Molecular point group: c1
  Basis Set: CC-PVTZ
  Basis Set:

  -Total Gradient:
     Atom            X                  Y                   Z
    ------   -----------------  -----------------  -----------------
       1        0.000001161054     0.000000149667    -0.000001294736
       2        0.000000307876    -0.000005101342     0.000006758298
       3       -0.000014705735    -0.000005054456     0.000012696098
       4       -0.000002514780     0.000000179519     0.000001163016
       5        0.000000394872     0.000000125140    -0.000000793279
       6        0.000058546212     0.000028125320     0.000053821544
       7       -0.000247960825     0.001773180536    -0.001566093699
       8        0.000027265285    -0.000003222773    -0.000011782081
       9       -0.000007631906     0.000006133757    -0.000003023972
      10        0.000401416089    -0.003345360408     0.002222822259
      11        0.000021063013     0.000031721172     0.000027822417
      12        0.000000155818    -0.000006710092    -0.000012752689
      13        0.000058536893     0.004319213435    -0.001262154292
      14       -0.000203637965    -0.002813237462     0.000508972864
      15       -0.000072700296     0.000021156782     0.000007940065
      16       -0.000019695606    -0.000001298795     0.000015898186

  **** Optimization is complete! (in 4 steps) ****
    Final optimized geometry and variables:
    Molecular point group: c1

    Geometry (in Angstrom), charge = 0, multiplicity = 1:

    H           -2.409862984441     0.547267471919     1.792511417817
    C           -2.250432803707    -0.488998884239     1.503399663231
    O           -1.061425646126    -0.644332574068     0.803657948894
    H           -2.190010991727    -1.093678645821     2.396483762447
    H           -3.106036682169    -0.817642207670     0.916157579903
    C           -0.997031786276     0.073608590244    -0.384648497457
    C            0.369028482257    -0.084270238439    -1.003441901177
    H           -1.746469290832    -0.291219372003    -1.087046226994
    H           -1.189106950067     1.129574907397    -0.207357994270
    O            1.300774055587     0.643443544844    -0.271652693459
    H            0.629134897764    -1.140373686889    -1.024378777789
    H            0.334824588966     0.274999221258    -2.031238070303
    C            2.620944232788     0.500725054014    -0.687629954619
    H            2.688325343056     0.302009026780    -1.753996170235
    H            3.153076879161     1.413962734899    -0.461582484626
    H            3.103403883600    -0.323464987019    -0.168338098168

  Mulliken Charges: (a.u.)
   Center  Symbol    Alpha    Beta     Spin     Total
       1     H     0.47015  0.47015  0.00000  0.05970
       2     C     3.03202  3.03202  0.00000 -0.06403
       3     O     4.17051  4.17051  0.00000 -0.34101
       4     H     0.44639  0.44639  0.00000  0.10723
       5     H     0.47370  0.47370  0.00000  0.05260
       6     C     2.96197  2.96197  0.00000  0.07607
       7     C     2.95958  2.95958  0.00000  0.08083
       8     H     0.47607  0.47607  0.00000  0.04785
       9     H     0.47097  0.47097  0.00000  0.05807
      10     O     4.17301  4.17301  0.00000 -0.34603
      11     H     0.47142  0.47142  0.00000  0.05717
      12     H     0.47538  0.47538  0.00000  0.04924
      13     C     3.02993  3.02993  0.00000 -0.05987
      14     H     0.47498  0.47498  0.00000  0.05003
      15     H     0.45080  0.45080  0.00000  0.09841
      16     H     0.46313  0.46313  0.00000  0.07374

   Total alpha = 25.00000, Total beta = 25.00000, Total charge = -0.00000
