  ==> Input File <==

--------------------------------------------------------------------------
set {
	reference rhf
	basis 6-31G*
}

set_num_threads( 1 )
memory 2 gb

molecule MOL {
0 1

H	 3.647955	 0.596884	 1.492904
N	 2.825761	 0.025013	 1.515389
C	 1.724687	 0.676843	 0.820925
H	 2.597455	 -0.115697	 2.481260
C	 0.504594	 -0.236819	 0.772474
H	 2.053610	 0.889726	 -0.191670
H	 1.443099	 1.634280	 1.266370
C	 -0.679275	 0.379305	 0.025956
H	 0.795972	 -1.173651	 0.306341
H	 0.201545	 -0.480042	 1.790482
C	 -1.903357	 -0.536963	 -0.023547
H	 -0.376191	 0.625345	 -0.990633
H	 -0.956914	 1.321098	 0.496903
C	 -3.225172	 0.228290	 0.028445
H	 -1.867824	 -1.134999	 -0.931459
H	 -1.860449	 -1.239604	 0.805977
H	 -3.313397	 0.915643	 -0.808262
H	 -4.073500	 -0.448134	 -0.008893
H	 -3.306061	 0.809945	 0.942516

	symmetry c1
}
set optking {
	frozen_dihedral = ("
		6 3 5 9,
		12 8 5 9,
		1 2 3 6
	")
}

ee = energy('scf')
oeprop('DIPOLE', 'QUADRUPOLE', 'MULLIKEN_CHARGES')
f=open( 'psi4out.xyz', 'w' )
f.write( "19  " )
f.write( str(ee) + "\n" )
f.write( MOL.save_string_xyz() )
f.close()
--------------------------------------------------------------------------

    Molecular point group: c1

    Geometry (in Angstrom), charge = 0, multiplicity = 1:

       Center              X                  Y                   Z               Mass
    ------------   -----------------  -----------------  -----------------  -----------------
           H          3.744699104130     0.497048557735     0.948559400645     1.007825032070
           N          2.922505104130    -0.074822442265     0.971044400645    14.003074004780
           C          1.821431104130     0.577007557735     0.276580400645    12.000000000000
           H          2.694199104130    -0.215532442265     1.936915400645     1.007825032070
           C          0.601338104130    -0.336654442265     0.228129400645    12.000000000000
           H          2.150354104130     0.789890557735    -0.736014599355     1.007825032070
           H          1.539843104130     1.534444557735     0.722025400645     1.007825032070
           C         -0.582530895870     0.279469557735    -0.518388599355    12.000000000000
           H          0.892716104130    -1.273486442265    -0.238003599355     1.007825032070
           H          0.298289104130    -0.579877442265     1.246137400645     1.007825032070
           C         -1.806612895870    -0.636798442265    -0.567891599355    12.000000000000
           H         -0.279446895870     0.525509557735    -1.534977599355     1.007825032070
           H         -0.860169895870     1.221262557735    -0.047441599355     1.007825032070
           C         -3.128427895870     0.128454557735    -0.515899599355    12.000000000000
           H         -1.771079895870    -1.234834442265    -1.475803599355     1.007825032070
           H         -1.763704895870    -1.339439442265     0.261632400645     1.007825032070
           H         -3.216652895870     0.815807557735    -1.352606599355     1.007825032070
           H         -3.976755895870    -0.547969442265    -0.553237599355     1.007825032070
           H         -3.209316895870     0.710109557735     0.398171400645     1.007825032070

  Charge       = 0
  Multiplicity = 1
  Basis Set: 6-31G*
  Basis Set:

    Orbital Energies (a.u.)
    -----------------------

    Doubly Occupied:

       1A    -15.532400     2A    -11.239418     3A    -11.212923
       4A    -11.211723     5A    -11.209669     6A    -11.207754
       7A     -1.176506     8A     -1.072988     9A     -0.998013
      10A     -0.900251    11A     -0.813756    12A     -0.788891
      13A     -0.662989    14A     -0.642892    15A     -0.614986
      16A     -0.589879    17A     -0.562350    18A     -0.555924
      19A     -0.524166    20A     -0.500592    21A     -0.483391
      22A     -0.464521    23A     -0.457046    24A     -0.448358
      25A     -0.380886

  @DF-RHF Final Energy:  -251.34817015995515

   => Energetics <=

    Nuclear Repulsion Energy =            246.0447316185647537
    One-Electron Energy =                -826.2812630570521151
    Two-Electron Energy =                 328.8883612785317041
    DFT Exchange-Correlation Energy =       0.0000000000000000
    Empirical Dispersion Energy =           0.0000000000000000
    PCM Polarization Energy =               0.0000000000000000
    EFP Energy =                            0.0000000000000000
    Total Energy =                       -251.3481701599557141

  Mulliken Charges: (a.u.)
   Center  Symbol    Alpha    Beta     Spin     Total
       1     H     0.33251  0.33251  0.00000  0.33498
       2     N     3.92191  3.92191  0.00000 -0.84381
       3     C     3.06058  3.06058  0.00000 -0.12115
       4     H     0.33542  0.33542  0.00000  0.32915
       5     C     3.15311  3.15311  0.00000 -0.30622
       6     H     0.42090  0.42090  0.00000  0.15820
       7     H     0.43471  0.43471  0.00000  0.13057
       8     C     3.15695  3.15695  0.00000 -0.31390
       9     H     0.41285  0.41285  0.00000  0.17430
      10     H     0.42746  0.42746  0.00000  0.14507
      11     C     3.15225  3.15225  0.00000 -0.30450
      12     H     0.42166  0.42166  0.00000  0.15667
      13     H     0.42353  0.42353  0.00000  0.15294
      14     C     3.24009  3.24009  0.00000 -0.48018
      15     H     0.42056  0.42056  0.00000  0.15888
      16     H     0.42130  0.42130  0.00000  0.15741
      17     H     0.42181  0.42181  0.00000  0.15639
      18     H     0.42017  0.42017  0.00000  0.15967
      19     H     0.42224  0.42224  0.00000  0.15553

   Total alpha = 25.00000, Total beta = 25.00000, Total charge =  0.00000
