  ==> Input File <==

--------------------------------------------------------------------------
set {
	reference rhf
	basis 6-31G*
}

set_num_threads( 4 )
memory 2 gb

molecule MOL {
0 1

O	 -2.439739	 -0.935931	 -0.423848
C	 -1.921153	 0.064240	 -0.045697
C	 -2.624470	 1.379923	 0.150949
O	 -0.632575	 0.154573	 0.251549
H	 -2.168117	 2.136577	 -0.476876
H	 -3.669540	 1.273223	 -0.098610
H	 -2.519365	 1.700893	 1.180846
C	 0.160891	 -1.019931	 0.106212
C	 1.589627	 -0.672828	 0.480843
H	 0.089836	 -1.367806	 -0.916050
H	 -0.238459	 -1.792301	 0.749618
C	 2.246377	 0.346236	 -0.452210
H	 2.163194	 -1.597435	 0.473358
H	 1.604769	 -0.303424	 1.502885
C	 1.623139	 1.736386	 -0.333646
H	 3.309190	 0.405937	 -0.226461
H	 2.166789	 -0.001821	 -1.476847
H	 2.104956	 2.439902	 -1.005176
H	 1.717396	 2.125624	 0.676248
H	 0.565720	 1.714214	 -0.581539

	symmetry c1
}
set optking {
	frozen_dihedral = ("
		16 12 9 8
	")
}

ee = optimize('scf')
oeprop('DIPOLE', 'QUADRUPOLE', 'MULLIKEN_CHARGES')
f=open( 'psi4out.xyz', 'w' )
f.write( "20  " )
f.write( str(ee) + "\n" )
f.write( MOL.save_string_xyz() )
f.close()
--------------------------------------------------------------------------

    Molecular point group: c1
  Charge       = 0
  Multiplicity = 1
  Basis Set: 6-31G*
  Basis Set:
  @DF-RHF Final Energy:  -383.93854795045445
    Total Energy =                       -383.9385479504545629
    Molecular point group: c1
  Basis Set: 6-31G*
  Basis Set:
  Basis Set: 6-31G*
  Basis Set:
  @DF-RHF Final Energy:  -383.94221800445382
    Total Energy =                       -383.9422180044539346
  Basis Set: 6-31G*
  Basis Set:
  Basis Set: 6-31G*
  Basis Set:
  @DF-RHF Final Energy:  -383.94185953806033
    Total Energy =                       -383.9418595380601573
  Basis Set: 6-31G*
  Basis Set:
  Basis Set: 6-31G*
  Basis Set:
  @DF-RHF Final Energy:  -383.94222110771824
    Total Energy =                       -383.9422211077180691
  Basis Set: 6-31G*
  Basis Set:
  Basis Set: 6-31G*
  Basis Set:
  @DF-RHF Final Energy:  -383.94269742036658
    Total Energy =                       -383.9426974203668124
  Basis Set: 6-31G*
  Basis Set:
  Basis Set: 6-31G*
  Basis Set:
  @DF-RHF Final Energy:  -383.94270612446604
    Total Energy =                       -383.9427061244663264
  Basis Set: 6-31G*
  Basis Set:
  Basis Set: 6-31G*
  Basis Set:
  @DF-RHF Final Energy:  -383.94270819754780
    Total Energy =                       -383.9427081975475176
  Basis Set: 6-31G*
  Basis Set:
  Charge       = 0
  Multiplicity = 1
  Basis Set: 6-31G*
  Basis Set:

    Orbital Energies (a.u.)
    -----------------------

    Doubly Occupied:

       1A    -20.602035     2A    -20.544504     3A    -11.374822
       4A    -11.282788     5A    -11.233662     6A    -11.226503
       7A    -11.222739     8A    -11.208583     9A     -1.468369
      10A     -1.362533    11A     -1.084345    12A     -1.026989
      13A     -0.979811    14A     -0.888879    15A     -0.799880
      16A     -0.778524    17A     -0.690974    18A     -0.686423
      19A     -0.666598    20A     -0.620295    21A     -0.604237
      22A     -0.591660    23A     -0.573787    24A     -0.555506
      25A     -0.543810    26A     -0.532603    27A     -0.511259
      28A     -0.481851    29A     -0.474470    30A     -0.469821
      31A     -0.446532    32A     -0.438287

  @DF-RHF Final Energy:  -383.94270902901422

   => Energetics <=

    Nuclear Repulsion Energy =            393.1281935446506282
    One-Electron Energy =               -1302.1956467311274537
    Two-Electron Energy =                 525.1247441574626009
    DFT Exchange-Correlation Energy =       0.0000000000000000
    Empirical Dispersion Energy =           0.0000000000000000
    PCM Polarization Energy =               0.0000000000000000
    EFP Energy =                            0.0000000000000000
    Total Energy =                       -383.9427090290141678
    Molecular point group: c1
  Basis Set: 6-31G*
  Basis Set:

  -Total Gradient:
     Atom            X                  Y                   Z
    ------   -----------------  -----------------  -----------------
       1        0.000012439028     0.000009539244     0.000000460765
       2        0.000014651067    -0.000033284118    -0.000001489337
       3        0.000007933685     0.000003058905    -0.000007008102
       4        0.000025317266     0.000023141079     0.000012553045
       5        0.000001669094     0.000001658014     0.000004083935
       6        0.000003551394    -0.000000818654     0.000002537442
       7       -0.000003763818     0.000000669866     0.000004064426
       8       -0.000083025692     0.000075958672     0.000046099328
       9        0.000066642370    -0.000076924682    -0.000042687351
      10       -0.000007696698    -0.000005085756    -0.000016235547
      11        0.000038900649    -0.000000090798     0.000005637191
      12        0.000036612559    -0.000134019265    -0.000159837984
      13       -0.000047896514     0.000001857539    -0.000008076079
      14        0.000000468016     0.000003490538     0.000018122919
      15       -0.000087051190    -0.000017866682    -0.000040612463
      16       -0.000043771054     0.000131397157     0.000131650705
      17       -0.000007009944     0.000004603594     0.000010051721
      18        0.000001874290     0.000003324722     0.000014997384
      19        0.000010362594    -0.000000559303     0.000011174872
      20        0.000059792903     0.000009949930     0.000014513130

  **** Optimization is complete! (in 8 steps) ****
    Final optimized geometry and variables:
    Molecular point group: c1

    Geometry (in Angstrom), charge = 0, multiplicity = 1:

    O           -2.187059405795    -1.094249858884    -0.452479213801
    C           -1.720012965583    -0.104769360812     0.011428732230
    C           -2.490893622416     1.150020542916     0.321134926465
    O           -0.437862183214     0.024945773235     0.321869527902
    H           -2.082542862527     1.979757657559    -0.244410037585
    H           -3.531053480017     1.007588474495     0.068868186609
    H           -2.392721600447     1.390311493989     1.373408898110
    C            0.410922026432    -1.095666378800     0.088669800035
    C            1.821411602181    -0.755096634655     0.541180939594
    H            0.378594234486    -1.350457474928    -0.962888737945
    H            0.023673593345    -1.938397712771     0.644986393974
    C            2.618744513249     0.183759995003    -0.372996476269
    H            2.359912074862    -1.697336844181     0.612071381332
    H            1.775425182959    -0.348978785785     1.548182252575
    C            2.118221091546     1.627787047353    -0.438849084680
    H            3.647318580660     0.190217460719    -0.021231102678
    H            2.646216036467    -0.236892347088    -1.376208131312
    H            2.800319823095     2.236407860677    -1.024795282520
    H            2.053221128345     2.063705600944     0.553773507781
    H            1.137339093751     1.696017523278    -0.891684183730

  Mulliken Charges: (a.u.)
   Center  Symbol    Alpha    Beta     Spin     Total
       1     O     4.28331  4.28331  0.00000 -0.56662
       2     C     2.61961  2.61961  0.00000  0.76077
       3     C     3.28169  3.28169  0.00000 -0.56338
       4     O     4.30764  4.30764  0.00000 -0.61528
       5     H     0.40062  0.40062  0.00000  0.19876
       6     H     0.39685  0.39685  0.00000  0.20630
       7     H     0.40048  0.40048  0.00000  0.19904
       8     C     3.00230  3.00230  0.00000 -0.00461
       9     C     3.16684  3.16684  0.00000 -0.33368
      10     H     0.41099  0.41099  0.00000  0.17802
      11     H     0.40833  0.40833  0.00000  0.18333
      12     C     3.15528  3.15528  0.00000 -0.31056
      13     H     0.41636  0.41636  0.00000  0.16729
      14     H     0.41344  0.41344  0.00000  0.17313
      15     C     3.23600  3.23600  0.00000 -0.47200
      16     H     0.41901  0.41901  0.00000  0.16199
      17     H     0.42221  0.42221  0.00000  0.15558
      18     H     0.42175  0.42175  0.00000  0.15651
      19     H     0.42143  0.42143  0.00000  0.15714
      20     H     0.41586  0.41586  0.00000  0.16827

   Total alpha = 32.00000, Total beta = 32.00000, Total charge = -0.00000
