  ==> Input File <==

--------------------------------------------------------------------------
set {
	reference rhf
	basis 6-31G*
}

set_num_threads( 4 )
memory 2 gb

molecule MOL {
0 1

O	 2.862325	 1.357334	 0.000267
C	 2.843464	 0.164689	 -0.000222
C	 1.546494	 -0.624492	 -0.000609
C	 4.124123	 -0.644674	 -0.000428
C	 0.291004	 0.242674	 0.000989
H	 1.557904	 -1.283758	 -0.867573
H	 1.558622	 -1.285963	 0.864672
C	 0.607246	 1.731886	 0.149310
H	 -0.361907	 -0.078164	 0.806532
H	 -0.260386	 0.072054	 -0.918253
C	 -0.644409	 2.611133	 0.153551
H	 1.163213	 1.895365	 1.071384
H	 1.263626	 2.046605	 -0.660743
C	 -0.336335	 4.102158	 0.301702
H	 -1.300973	 2.297874	 0.963373
H	 -1.200527	 2.449184	 -0.768133
C	 -1.591621	 4.973897	 0.305311
H	 0.218519	 4.265447	 1.223275
H	 0.318695	 4.416816	 -0.508104
H	 -2.252298	 4.706289	 1.125091
H	 -1.340961	 6.024814	 0.412289
H	 -2.150819	 4.859632	 -0.619019
H	 4.165367	 -1.288615	 -0.874074
H	 4.976217	 0.020734	 -0.001915
H	 4.166763	 -1.286207	 0.874930

	symmetry c1
}
set optking {
	frozen_dihedral = ("
		9 5 3 6
	")
}

ee = optimize('scf')
oeprop('DIPOLE', 'QUADRUPOLE', 'MULLIKEN_CHARGES')
f=open( 'psi4out.xyz', 'w' )
f.write( "25  " )
f.write( str(ee) + "\n" )
f.write( MOL.save_string_xyz() )
f.close()
--------------------------------------------------------------------------

    Molecular point group: c1
  Charge       = 0
  Multiplicity = 1
  Basis Set: 6-31G*
  Basis Set:
  @DF-RHF Final Energy:  -387.09344247675455
    Total Energy =                       -387.0934424767542623
    Molecular point group: c1
  Basis Set: 6-31G*
  Basis Set:
  Basis Set: 6-31G*
  Basis Set:
  @DF-RHF Final Energy:  -387.11636324245279
    Total Energy =                       -387.1163632424527350
  Basis Set: 6-31G*
  Basis Set:
  Basis Set: 6-31G*
  Basis Set:
  @DF-RHF Final Energy:  -387.12098365361965
    Total Energy =                       -387.1209836536201010
  Basis Set: 6-31G*
  Basis Set:
  Basis Set: 6-31G*
  Basis Set:
  @DF-RHF Final Energy:  -387.11977328151426
    Total Energy =                       -387.1197732815137442
  Basis Set: 6-31G*
  Basis Set:
  @DF-RHF Final Energy:  -387.12248578403086
    Total Energy =                       -387.1224857840306868
  @DF-RHF Final Energy:  -387.12314726347051
    Total Energy =                       -387.1231472634697184
  @DF-RHF Final Energy:  -387.12317643117717
    Total Energy =                       -387.1231764311768302
  @DF-RHF Final Energy:  -387.12359897420731
    Total Energy =                       -387.1235989742082211
  @DF-RHF Final Energy:  -387.12406584445881
    Total Energy =                       -387.1240658444587552
  @DF-RHF Final Energy:  -387.12454687944290
    Total Energy =                       -387.1245468794425051
  @DF-RHF Final Energy:  -387.12500522134820
    Total Energy =                       -387.1250052213480330
  @DF-RHF Final Energy:  -387.12516674079683
    Total Energy =                       -387.1251667407963168
  @DF-RHF Final Energy:  -387.12523029029802
    Total Energy =                       -387.1252302902986457
  @DF-RHF Final Energy:  -387.12526406011597
    Total Energy =                       -387.1252640601157964
  @DF-RHF Final Energy:  -387.12535017618927
    Total Energy =                       -387.1253501761892721
  @DF-RHF Final Energy:  -387.12556631514883
    Total Energy =                       -387.1255663151489443
  @DF-RHF Final Energy:  -387.12572519205537
    Total Energy =                       -387.1257251920551425
  @DF-RHF Final Energy:  -387.12578681247885
    Total Energy =                       -387.1257868124789638
  Basis Set: 6-31G*
  Basis Set:
  @DF-RHF Final Energy:  -387.12579616316134
    Total Energy =                       -387.1257961631614535
  Basis Set: 6-31G*
  Basis Set:
  Basis Set: 6-31G*
  Basis Set:
  @DF-RHF Final Energy:  -387.12579483861902
    Total Energy =                       -387.1257948386190719
  Basis Set: 6-31G*
  Basis Set:
  Basis Set: 6-31G*
  Basis Set:
  @DF-RHF Final Energy:  -387.12580140648623
    Total Energy =                       -387.1258014064864028
  Basis Set: 6-31G*
  Basis Set:
  Charge       = 0
  Multiplicity = 1
  Basis Set: 6-31G*
  Basis Set:

    Orbital Energies (a.u.)
    -----------------------

    Doubly Occupied:

       1A    -20.546730     2A    -11.324891     3A    -11.229851
       4A    -11.229332     5A    -11.227736     6A    -11.217495
       7A    -11.216064     8A    -11.215456     9A    -11.208955
      10A     -1.393010    11A     -1.094015    12A     -1.054514
      13A     -1.010899    14A     -0.970173    15A     -0.893523
      16A     -0.820833    17A     -0.793923    18A     -0.723256
      19A     -0.664184    20A     -0.641716    21A     -0.634935
      22A     -0.616292    23A     -0.603552    24A     -0.583951
      25A     -0.565435    26A     -0.561817    27A     -0.539545
      28A     -0.538520    29A     -0.512237    30A     -0.497622
      31A     -0.483499    32A     -0.472372    33A     -0.466557
      34A     -0.462384    35A     -0.444128    36A     -0.396439

  @DF-RHF Final Energy:  -387.12580111782296

   => Energetics <=

    Nuclear Repulsion Energy =            451.7881634021183004
    One-Electron Energy =               -1420.1162467746894436
    Two-Electron Energy =                 581.2022822547480700
    DFT Exchange-Correlation Energy =       0.0000000000000000
    Empirical Dispersion Energy =           0.0000000000000000
    PCM Polarization Energy =               0.0000000000000000
    EFP Energy =                            0.0000000000000000
    Total Energy =                       -387.1258011178231300
    Molecular point group: c1
  Basis Set: 6-31G*
  Basis Set:

  -Total Gradient:
     Atom            X                  Y                   Z
    ------   -----------------  -----------------  -----------------
       1       -0.000032577663     0.000007491958    -0.000055519494
       2        0.000102476054     0.000006332184     0.000111812529
       3       -0.001117586808    -0.001572715790     0.001559875154
       4       -0.000017742569     0.000057993260    -0.000014589149
       5       -0.001118011486    -0.001014220859    -0.001888702931
       6        0.001055441271     0.001477707656    -0.001019478599
       7       -0.000012334510     0.000036562114    -0.000016579341
       8        0.000031578648    -0.000010464139    -0.000027309487
       9        0.001121167479     0.001065565819     0.001337387168
      10       -0.000009241736    -0.000001769147     0.000008004045
      11        0.000000958479    -0.000000626129    -0.000008583707
      12        0.000048834883    -0.000005263102     0.000062561583
      13       -0.000022433214    -0.000009113014    -0.000002857874
      14        0.000001064999     0.000014023904    -0.000028194161
      15       -0.000007542210    -0.000006522565    -0.000014752555
      16        0.000016594003     0.000009805790    -0.000010967956
      17       -0.000000923387    -0.000013333128     0.000034964244
      18        0.000013283768     0.000000078731    -0.000009446052
      19       -0.000014291945    -0.000000800461    -0.000009807791
      20       -0.000013444713    -0.000001142413    -0.000002057950
      21        0.000003288064    -0.000005352816     0.000011585002
      22        0.000010768926     0.000003682283    -0.000002511484
      23       -0.000001460421    -0.000033499999    -0.000002020439
      24       -0.000015611322    -0.000010551937    -0.000024442671
      25       -0.000022254594     0.000006131800     0.000011631922

  **** Optimization is complete! (in 22 steps) ****
    Final optimized geometry and variables:
    Molecular point group: c1

    Geometry (in Angstrom), charge = 0, multiplicity = 1:

    O            2.105515925714    -0.991554138975    -1.476392660009
    C            1.762365067895    -1.538555647824    -0.472517985389
    C            0.393281578609    -2.196146795944    -0.367473366237
    C            2.676928667121    -1.628676201568     0.729026240019
    C           -0.801334376824    -1.209801574896    -0.191947480279
    H            0.268053395159    -2.744113957343    -1.294035894787
    H            0.399372755811    -2.915473275012     0.443899366279
    C           -0.449981352963     0.254553450608     0.097608506964
    H           -1.418066479447    -1.572573993248     0.624637910679
    H           -1.416716067792    -1.245060400616    -1.083983180750
    C           -1.698445218391     1.117074755751     0.293230346917
    H            0.165978898191     0.318281865226     0.993741975941
    H            0.143534743212     0.658254785957    -0.715509941067
    C           -1.376911766816     2.585236342856     0.578617174771
    H           -2.294471491228     0.714757561860     1.110947768689
    H           -2.321306927519     1.053760644211    -0.597473543129
    C           -2.626881835816     3.442314876639     0.775054784863
    H           -0.751661888079     2.651004424471     1.466595859462
    H           -0.786610796520     2.989549120682    -0.240455660086
    H           -3.222960292886     3.081992212264     1.608889139670
    H           -2.366633808359     4.476613425162     0.977506786394
    H           -3.255781758513     3.426997822201    -0.110605074335
    H            2.957482761920    -2.665713515875     0.895220967358
    H            3.567481283681    -1.039306859758     0.560532597588
    H            2.170376414860    -1.287317155738     1.626650772532

  Mulliken Charges: (a.u.)
   Center  Symbol    Alpha    Beta     Spin     Total
       1     O     4.26282  4.26282  0.00000 -0.52564
       2     C     2.73749  2.73749  0.00000  0.52501
       3     C     3.20543  3.20543  0.00000 -0.41086
       4     C     3.28954  3.28954  0.00000 -0.57908
       5     C     3.15184  3.15184  0.00000 -0.30369
       6     H     0.39899  0.39899  0.00000  0.20202
       7     H     0.41499  0.41499  0.00000  0.17002
       8     C     3.16821  3.16821  0.00000 -0.33643
       9     H     0.41801  0.41801  0.00000  0.16398
      10     H     0.41224  0.41224  0.00000  0.17552
      11     C     3.15116  3.15116  0.00000 -0.30231
      12     H     0.42643  0.42643  0.00000  0.14713
      13     H     0.40389  0.40389  0.00000  0.19222
      14     C     3.15177  3.15177  0.00000 -0.30354
      15     H     0.42499  0.42499  0.00000  0.15001
      16     H     0.42224  0.42224  0.00000  0.15552
      17     C     3.23950  3.23950  0.00000 -0.47900
      18     H     0.42360  0.42360  0.00000  0.15280
      19     H     0.42020  0.42020  0.00000  0.15961
      20     H     0.42234  0.42234  0.00000  0.15533
      21     H     0.41883  0.41883  0.00000  0.16235
      22     H     0.42130  0.42130  0.00000  0.15740
      23     H     0.40711  0.40711  0.00000  0.18578
      24     H     0.39745  0.39745  0.00000  0.20511
      25     H     0.40963  0.40963  0.00000  0.18073

   Total alpha = 36.00000, Total beta = 36.00000, Total charge = -0.00000
