                              Psi4 1.0.54 Driver

  ==> Input File <==

--------------------------------------------------------------------------
set {
	reference rhf
	basis cc-pvtz
}

set_num_threads( 4 )
memory 2 gb

molecule MOL {
0 1

H	 2.596254	 -1.006988	 -1.824889
C	 1.876324	 -1.206664	 -1.041875
C	 1.322304	 0.099773	 -0.484271
H	 1.088696	 -1.820486	 -1.464053
H	 2.375344	 -1.783842	 -0.271690
C	 0.308557	 -0.162619	 0.622645
H	 0.842996	 0.667883	 -1.271829
H	 2.126674	 0.706455	 -0.086950
N	 -1.069352	 -0.004081	 0.085342
H	 0.371632	 -1.172932	 0.991288
H	 0.400391	 0.548875	 1.426218
O	 -1.584901	 -0.965470	 -0.377818
O	 -1.548033	 1.079343	 0.130056

	symmetry c1
}
set optking {
	frozen_dihedral = ("
		7 3 6 9
	")
}

ee,wfn = optimize('scf', return_wfn=True)
oeprop( wfn, 'DIPOLE', 'QUADRUPOLE', 'MULLIKEN_CHARGES')
f=open( 'psi4out.xyz', 'w' )
f.write( "13  " )
f.write( str(ee) + "\n" )
f.write( MOL.save_string_xyz() )
f.close()
--------------------------------------------------------------------------

    Molecular point group: c1
  Charge       = 0
  Multiplicity = 1
  Basis Set: CC-PVTZ
  Basis Set:
  @DF-RHF Final Energy:  -321.85671864932101
    Total Energy =                       -321.8567186493208965
    Molecular point group: c1
  Basis Set: CC-PVTZ
  Basis Set:
  Basis Set: CC-PVTZ
  Basis Set:
  @DF-RHF Final Energy:  -321.85532880159366
    Total Energy =                       -321.8553288015937142
  Basis Set: CC-PVTZ
  Basis Set:
  Basis Set: CC-PVTZ
  Basis Set:
  @DF-RHF Final Energy:  -321.85243023108211
    Total Energy =                       -321.8524302310819962
  Basis Set: CC-PVTZ
  Basis Set:
  Basis Set: CC-PVTZ
  Basis Set:
  @DF-RHF Final Energy:  -321.85699952539778
    Total Energy =                       -321.8569995253977822
  Basis Set: CC-PVTZ
  Basis Set:
  @DF-RHF Final Energy:  -321.85714255189339
    Total Energy =                       -321.8571425518932756
  @DF-RHF Final Energy:  -321.85718347491536
    Total Energy =                       -321.8571834749155869
  Basis Set: CC-PVTZ
  Basis Set:
  @DF-RHF Final Energy:  -321.85718674656107
    Total Energy =                       -321.8571867465610694
  Basis Set: CC-PVTZ
  Basis Set:
  Basis Set: CC-PVTZ
  Basis Set:
  @DF-RHF Final Energy:  -321.85718868810943
    Total Energy =                       -321.8571886881093178
  Basis Set: CC-PVTZ
  Basis Set:
  Basis Set: CC-PVTZ
  Basis Set:
  @DF-RHF Final Energy:  -321.85719248824461
    Total Energy =                       -321.8571924882445501
  Basis Set: CC-PVTZ
  Basis Set:
  Charge       = 0
  Multiplicity = 1
  Basis Set: CC-PVTZ
  Basis Set:

    Orbital Energies (a.u.)
    -----------------------

    Doubly Occupied:

       1A    -20.591523     2A    -20.590014     3A    -15.837209
       4A    -11.297630     5A    -11.255497     6A    -11.229689
       7A     -1.636364     8A     -1.420488     9A     -1.131689
      10A     -1.024430    11A     -0.886286    12A     -0.832368
      13A     -0.763631    14A     -0.737719    15A     -0.727168
      16A     -0.651627    17A     -0.623649    18A     -0.592069
      19A     -0.531565    20A     -0.522594    21A     -0.515305
      22A     -0.484052    23A     -0.473895    24A     -0.454436

  @DF-RHF Final Energy:  -321.85719318000918

   => Energetics <=

    Nuclear Repulsion Energy =            250.5452979903077448
    One-Electron Energy =                -935.1831837767783782
    Two-Electron Energy =                 362.7806926064615709
    DFT Exchange-Correlation Energy =       0.0000000000000000
    Empirical Dispersion Energy =           0.0000000000000000
    PCM Polarization Energy =               0.0000000000000000
    EFP Energy =                            0.0000000000000000
    Total Energy =                       -321.8571931800090624
    Molecular point group: c1
  Basis Set: CC-PVTZ
  Basis Set:

  -Total Gradient:
     Atom            X                  Y                   Z
    ------   -----------------  -----------------  -----------------
       1       -0.000038753911    -0.000012373569     0.000041844854
       2       -0.000019529627    -0.000013036962    -0.000018423586
       3        0.001654813646     0.004137259282     0.001810269624
       4        0.000035452205     0.000002359123     0.000020583248
       5       -0.000024665062     0.000034425540    -0.000042200736
       6       -0.000757151481    -0.003913804517    -0.000983530965
       7       -0.001226500176    -0.002669692867    -0.001342819377
       8        0.000029833161    -0.000019684394     0.000012460238
       9        0.000312343679     0.002149680268     0.000538254165
      10        0.000079196549     0.000022339224     0.000055564598
      11       -0.000001831562     0.000064236162    -0.000054256649
      12        0.000030711850     0.000175563299     0.000022250977
      13       -0.000073919271     0.000042729413    -0.000059996390

  **** Optimization is complete! (in 10 steps) ****
    Final optimized geometry and variables:
    Molecular point group: c1

    Geometry (in Angstrom), charge = 0, multiplicity = 1:

    H            2.594846921969    -1.073232372805    -1.774343140633
    C            1.906746385740    -1.215331876475    -0.950347799977
    C            1.480813286503     0.130637099329    -0.371866820155
    H            1.050970842437    -1.768026655395    -1.316674714778
    H            2.405141197787    -1.821848250258    -0.202230318877
    C            0.482795837788     0.000069673587     0.790837859225
    H            1.030620656679     0.725862911148    -1.156430983738
    H            2.345832789555     0.673801597054    -0.015419768130
    N           -0.894863459436     0.285898185709     0.309019016802
    H            0.458831513448    -0.996116248126     1.199686526004
    H            0.667744826654     0.724520698207     1.564175540005
    O           -1.479266431999    -0.601154539950    -0.219178079540
    O           -1.305993882438     1.387326157485     0.454493750325

  Mulliken Charges: (a.u.)
   Center  Symbol    Alpha    Beta     Spin     Total
       1     H     0.44625  0.44625  0.00000  0.10751
       2     C     3.14667  3.14667  0.00000 -0.29333
       3     C     3.09103  3.09103  0.00000 -0.18205
       4     H     0.44222  0.44222  0.00000  0.11557
       5     H     0.45532  0.45532  0.00000  0.08936
       6     C     3.04650  3.04650  0.00000 -0.09301
       7     H     0.44088  0.44088  0.00000  0.11823
       8     H     0.44352  0.44352  0.00000  0.11295
       9     N     3.27822  3.27822  0.00000  0.44357
      10     H     0.43622  0.43622  0.00000  0.12755
      11     H     0.42754  0.42754  0.00000  0.14491
      12     O     4.17504  4.17504  0.00000 -0.35008
      13     O     4.17059  4.17059  0.00000 -0.34117

   Total alpha = 24.00000, Total beta = 24.00000, Total charge = -0.00000

*** Psi4 exiting successfully. Buy a developer a beer!
