  ==> Input File <==

--------------------------------------------------------------------------
set {
	reference rhf
	basis 6-31G*
}

set_num_threads( 1 )
memory 2 gb

molecule MOL {
0 1

H	 -2.646374	 -0.642757	 1.268656
C	 -2.083525	 -0.384536	 0.393091
O	 -0.807605	 -0.127164	 0.768327
F	 -2.118945	 -1.383102	 -0.486752
F	 -2.621877	 0.670592	 -0.209486
C	 0.084052	 0.273579	 -0.209957
C	 -0.384914	 -0.346212	 -1.519953
Cl	 1.728297	 -0.258250	 0.178413
H	 0.106649	 1.342571	 -0.330452
F	 0.413362	 0.004270	 -2.505883
F	 -1.593816	 0.102650	 -1.792930
F	 -0.431756	 -1.654688	 -1.459377

	symmetry c1
}
set optking {
	frozen_dihedral = ("
		10 7 6 9,
		6 3 2 4
	")
}

ee = energy('scf')
oeprop('DIPOLE', 'QUADRUPOLE', 'MULLIKEN_CHARGES')
f=open( 'psi4out.xyz', 'w' )
f.write( "12  " )
f.write( str(ee) + "\n" )
f.write( MOL.save_string_xyz() )
f.close()
--------------------------------------------------------------------------

    Molecular point group: c1

    Geometry (in Angstrom), charge = 0, multiplicity = 1:

       Center              X                  Y                   Z               Mass
    ------------   -----------------  -----------------  -----------------  -----------------
           H         -2.079162482858    -0.323212312060     1.916538572371     1.007825032070
           C         -1.516313482858    -0.064991312060     1.040973572371    12.000000000000
           O         -0.240393482858     0.192380687940     1.416209572371    15.994914619560
           F         -1.551733482858    -1.063557312060     0.161130572371    18.998403224000
           F         -2.054665482858     0.990136687940     0.438396572371    18.998403224000
           C          0.651263517142     0.593123687940     0.437925572371    12.000000000000
           C          0.182297517142    -0.026667312060    -0.872070427629    12.000000000000
          CL          2.295508517142     0.061294687940     0.826295572371    34.968852682000
           H          0.673860517142     1.662115687940     0.317430572371     1.007825032070
           F          0.980573517142     0.323814687940    -1.858000427629    18.998403224000
           F         -1.026604482858     0.422194687940    -1.145047427629    18.998403224000
           F          0.135455517142    -1.335143312060    -0.811494427629    18.998403224000

  Charge       = 0
  Multiplicity = 1
  Basis Set: 6-31G*
  Basis Set:

    Orbital Energies (a.u.)
    -----------------------

    Doubly Occupied:

       1A   -104.849911     2A    -26.354339     3A    -26.340220
       4A    -26.340160     5A    -26.327678     6A    -26.322381
       7A    -20.644448     8A    -11.519898     9A    -11.482355
      10A    -11.400329    11A    -10.584237    12A     -8.053619
      13A     -8.050038    14A     -8.049940    15A     -1.768084
      16A     -1.708475    17A     -1.657687    18A     -1.646259
      19A     -1.623922    20A     -1.484926    21A     -1.180513
      22A     -1.042340    23A     -0.996150    24A     -0.913998
      25A     -0.877587    26A     -0.858166    27A     -0.847608
      28A     -0.811654    29A     -0.803955    30A     -0.761890
      31A     -0.741470    32A     -0.735499    33A     -0.698789
      34A     -0.686208    35A     -0.676457    36A     -0.657768
      37A     -0.654031    38A     -0.642095    39A     -0.634867
      40A     -0.621067    41A     -0.563988    42A     -0.548227
      43A     -0.533435    44A     -0.482328    45A     -0.470244

  @DF-RHF Final Energy: -1146.21946285599415

   => Energetics <=

    Nuclear Repulsion Energy =            790.7300798983615095
    One-Electron Energy =               -3164.6007015041927843
    Two-Electron Energy =                1227.6511587498357585
    DFT Exchange-Correlation Energy =       0.0000000000000000
    Empirical Dispersion Energy =           0.0000000000000000
    PCM Polarization Energy =               0.0000000000000000
    EFP Energy =                            0.0000000000000000
    Total Energy =                      -1146.2194628559955163

  Mulliken Charges: (a.u.)
   Center  Symbol    Alpha    Beta     Spin     Total
       1     H     0.39281  0.39281  0.00000  0.21438
       2     C     2.56248  2.56248  0.00000  0.87505
       3     O     4.31139  4.31139  0.00000 -0.62277
       4     F     4.68655  4.68655  0.00000 -0.37309
       5     F     4.68939  4.68939  0.00000 -0.37878
       6     C     3.01016  3.01016  0.00000 -0.02031
       7     C     2.46846  2.46846  0.00000  1.06309
       8    CL     8.49217  8.49217  0.00000  0.01566
       9     H     0.37081  0.37081  0.00000  0.25837
      10     F     4.67515  4.67515  0.00000 -0.35030
      11     F     4.67351  4.67351  0.00000 -0.34703
      12     F     4.66714  4.66714  0.00000 -0.33427

   Total alpha = 45.00000, Total beta = 45.00000, Total charge =  0.00000
