  ==> Input File <==

--------------------------------------------------------------------------
set {
	reference rhf
	basis 6-31G*
}

set_num_threads( 4 )
memory 2 gb

molecule MOL {
0 1

H	 -1.070890	 -1.366565	 0.180696
O	 -1.422729	 -0.573567	 -0.196946
C	 -0.731407	 0.539437	 0.309156
C	 0.680193	 0.672443	 -0.251532
H	 -1.319765	 1.404033	 0.030086
H	 -0.700012	 0.506517	 1.397677
C	 0.727367	 0.770856	 -1.776587
H	 1.144815	 1.551249	 0.186044
H	 1.258786	 -0.189281	 0.074352
H	 0.219607	 1.662359	 -2.132394
H	 1.750980	 0.822115	 -2.132333
H	 0.260014	 -0.093031	 -2.243003

	symmetry c1
}
set optking {
	frozen_dihedral = ("
		8 4 3 2
	")
}

ee = optimize('scf')
oeprop('DIPOLE', 'QUADRUPOLE', 'MULLIKEN_CHARGES')
f=open( 'psi4out.xyz', 'w' )
f.write( "12  " )
f.write( str(ee) + "\n" )
f.write( MOL.save_string_xyz() )
f.close()
--------------------------------------------------------------------------

    Molecular point group: c1
  Charge       = 0
  Multiplicity = 1
  Basis Set: 6-31G*
  Basis Set:
  @DF-RHF Final Energy:  -193.11025929964538
    Total Energy =                       -193.1102592996454632
    Molecular point group: c1
  Basis Set: 6-31G*
  Basis Set:
  Basis Set: 6-31G*
  Basis Set:
  @DF-RHF Final Energy:  -193.11043225192802
    Total Energy =                       -193.1104322519279890
  Basis Set: 6-31G*
  Basis Set:
  Basis Set: 6-31G*
  Basis Set:
  @DF-RHF Final Energy:  -193.11045410852137
    Total Energy =                       -193.1104541085212531
  Basis Set: 6-31G*
  Basis Set:
  Basis Set: 6-31G*
  Basis Set:
  @DF-RHF Final Energy:  -193.11045623478205
    Total Energy =                       -193.1104562347821627
  Basis Set: 6-31G*
  Basis Set:
  Charge       = 0
  Multiplicity = 1
  Basis Set: 6-31G*
  Basis Set:

    Orbital Energies (a.u.)
    -----------------------

    Doubly Occupied:

       1A    -20.554286     2A    -11.268279     3A    -11.220139
       4A    -11.207764     5A     -1.360936     6A     -1.048768
       7A     -0.921223     8A     -0.813624     9A     -0.679786
      10A     -0.638617    11A     -0.624702    12A     -0.566370
      13A     -0.528965    14A     -0.518629    15A     -0.485083
      16A     -0.467364    17A     -0.430358

  @DF-RHF Final Energy:  -193.11045683086081

   => Energetics <=

    Nuclear Repulsion Energy =            133.1651209306014607
    One-Electron Energy =                -525.8813693540231498
    Two-Electron Energy =                 199.6057915925607631
    DFT Exchange-Correlation Energy =       0.0000000000000000
    Empirical Dispersion Energy =           0.0000000000000000
    PCM Polarization Energy =               0.0000000000000000
    EFP Energy =                            0.0000000000000000
    Total Energy =                       -193.1104568308609259
    Molecular point group: c1
  Basis Set: 6-31G*
  Basis Set:

  -Total Gradient:
     Atom            X                  Y                   Z
    ------   -----------------  -----------------  -----------------
       1       -0.000002778907    -0.000016186586    -0.000002963886
       2       -0.000171966945     0.000312869024    -0.000401495742
       3        0.000204602651    -0.000287198412     0.000436611866
       4        0.000236031412    -0.000384607105     0.000521806305
       5        0.000005486086     0.000010941530     0.000002615721
       6       -0.000009447972    -0.000029911779    -0.000001795278
       7        0.000017994772     0.000033095337    -0.000008354648
       8       -0.000261882728     0.000387646189    -0.000547302378
       9        0.000008225998    -0.000007481412     0.000010549807
      10        0.000014218134     0.000009887822    -0.000007284244
      11       -0.000033842757    -0.000000935523     0.000008289233
      12       -0.000006639742    -0.000028119085    -0.000010676758

  **** Optimization is complete! (in 5 steps) ****
    Final optimized geometry and variables:
    Molecular point group: c1

    Geometry (in Angstrom), charge = 0, multiplicity = 1:

    H           -0.798322537992    -1.671625263351     0.580147098755
    O           -1.214037072399    -0.874873800881     0.280431041308
    C           -0.510804364265     0.233411649385     0.780592952356
    C            0.904146595073     0.344752779223     0.223231063336
    H           -1.091319736564     1.101601045828     0.493532432076
    H           -0.482122007494     0.207393577986     1.868478921027
    C            0.943675983058     0.440748478366    -1.301132431233
    H            1.374108744962     1.223553361283     0.659453892070
    H            1.488596395795    -0.513107060360     0.553976972935
    H            0.409486498758     1.320900097304    -1.647770224896
    H            1.965672967895     0.510305914390    -1.660152425009
    H            0.481902199128    -0.426160999770    -1.758310426246

  Mulliken Charges: (a.u.)
   Center  Symbol    Alpha    Beta     Spin     Total
       1     H     0.28330  0.28330  0.00000  0.43340
       2     O     4.36790  4.36790  0.00000 -0.73579
       3     C     2.99568  2.99568  0.00000  0.00864
       4     C     3.16799  3.16799  0.00000 -0.33597
       5     H     0.41654  0.41654  0.00000  0.16692
       6     H     0.42843  0.42843  0.00000  0.14314
       7     C     3.23889  3.23889  0.00000 -0.47778
       8     H     0.42150  0.42150  0.00000  0.15701
       9     H     0.42714  0.42714  0.00000  0.14572
      10     H     0.42114  0.42114  0.00000  0.15772
      11     H     0.42042  0.42042  0.00000  0.15915
      12     H     0.41108  0.41108  0.00000  0.17785

   Total alpha = 17.00000, Total beta = 17.00000, Total charge = -0.00000
