  ==> Input File <==

--------------------------------------------------------------------------
set {
	reference rhf
	basis cc-pvtz
}

set_num_threads( 4 )
memory 2 gb

molecule MOL {
0 1

H	 2.690516	 -0.599055	 -0.996807
O	 1.917682	 -0.970130	 -0.598353
C	 0.952633	 -0.055327	 -0.619263
C	 -0.318151	 -0.570512	 0.000144
O	 1.116123	 1.021555	 -1.079224
C	 -1.454884	 0.441630	 -0.000560
H	 -0.593358	 -1.472459	 -0.537111
H	 -0.075898	 -0.890197	 1.008615
C	 -2.822577	 -0.232186	 0.000063
H	 -1.359760	 1.084704	 -0.867077
H	 -1.359641	 1.085996	 0.864983
H	 -2.954352	 -0.858985	 -0.875745
H	 -3.615886	 0.505352	 0.000019
H	 -2.953878	 -0.858359	 0.876394

	symmetry c1
}
set optking {
	frozen_dihedral = ("
		7 4 6 10
	")
}

ee = optimize('scf')
oeprop('DIPOLE', 'QUADRUPOLE', 'MULLIKEN_CHARGES')
f=open( 'psi4out.xyz', 'w' )
f.write( "14  " )
f.write( str(ee) + "\n" )
f.write( MOL.save_string_xyz() )
f.close()
--------------------------------------------------------------------------

    Molecular point group: c1
  Charge       = 0
  Multiplicity = 1
  Basis Set: CC-PVTZ
  Basis Set:
  @DF-RHF Final Energy:  -305.99888522960913
    Total Energy =                       -305.9988852296089590
    Molecular point group: c1
  Basis Set: CC-PVTZ
  Basis Set:
  Basis Set: CC-PVTZ
  Basis Set:
  @DF-RHF Final Energy:  -305.99910501350280
    Total Energy =                       -305.9991050135028559
  Basis Set: CC-PVTZ
  Basis Set:
  Basis Set: CC-PVTZ
  Basis Set:
  @DF-RHF Final Energy:  -305.99901402697054
    Total Energy =                       -305.9990140269704852
  Basis Set: CC-PVTZ
  Basis Set:
  Basis Set: CC-PVTZ
  Basis Set:
  @DF-RHF Final Energy:  -305.99914745292574
    Total Energy =                       -305.9991474529254560
  Basis Set: CC-PVTZ
  Basis Set:
  Charge       = 0
  Multiplicity = 1
  Basis Set: CC-PVTZ
  Basis Set:

    Orbital Energies (a.u.)
    -----------------------

    Doubly Occupied:

       1A    -20.604628     2A    -20.541498     3A    -11.374694
       4A    -11.239694     5A    -11.223172     6A    -11.215551
       7A     -1.478456     8A     -1.369953     9A     -1.083211
      10A     -0.981351    11A     -0.859823    12A     -0.793213
      13A     -0.704743    14A     -0.694048    15A     -0.666899
      16A     -0.616816    17A     -0.597753    18A     -0.573972
      19A     -0.547995    20A     -0.505986    21A     -0.492461
      22A     -0.484833    23A     -0.479095    24A     -0.449042

  @DF-RHF Final Energy:  -305.99914823450177

   => Energetics <=

    Nuclear Repulsion Energy =            240.3646287802491202
    One-Electron Energy =                -893.5697768163889805
    Two-Electron Energy =                 347.2059998016381996
    DFT Exchange-Correlation Energy =       0.0000000000000000
    Empirical Dispersion Energy =           0.0000000000000000
    PCM Polarization Energy =               0.0000000000000000
    EFP Energy =                            0.0000000000000000
    Total Energy =                       -305.9991482345017175
    Molecular point group: c1
  Basis Set: CC-PVTZ
  Basis Set:

  -Total Gradient:
     Atom            X                  Y                   Z
    ------   -----------------  -----------------  -----------------
       1        0.000073666143    -0.000036549643    -0.000018850272
       2        0.000042767357     0.000110152015    -0.000012367967
       3       -0.000140804748     0.000018968733    -0.000055866607
       4        0.002052495573     0.002427473450    -0.003389460478
       5        0.000053413866    -0.000105543435     0.000029305843
       6       -0.002825694483    -0.003279945356    -0.001543596076
       7       -0.001284445151    -0.001441157199     0.003094705567
       8       -0.000011136778    -0.000007066659     0.000007902911
       9       -0.000023328482    -0.000009613897    -0.000028628686
      10        0.002030809639     0.002312896821     0.001904240077
      11        0.000007113281    -0.000016421647     0.000017343317
      12        0.000003893788     0.000004373584     0.000006568604
      13       -0.000003548097     0.000008457190    -0.000000267597
      14        0.000024798094     0.000013976046    -0.000011028639

  **** Optimization is complete! (in 5 steps) ****
    Final optimized geometry and variables:
    Molecular point group: c1

    Geometry (in Angstrom), charge = 0, multiplicity = 1:

    H            2.770435291307    -0.527766454748    -0.553541312899
    O            1.985282872111    -0.900098569363    -0.181142267452
    C            1.023627680769     0.017558421898    -0.222146211779
    C           -0.263524051347    -0.501663830837     0.357380637861
    O            1.204831220759     1.098134891761    -0.666339293152
    C           -1.410389450071     0.506009272253     0.359762302010
    H           -0.529772302729    -1.407459521309    -0.177510371388
    H           -0.038922449121    -0.837138598035     1.364969724947
    C           -2.778071158163    -0.163177837876     0.413993965241
    H           -1.325286704678     1.150101762380    -0.505095979426
    H           -1.295542789139     1.163455490856     1.215022417604
    H           -2.947619506328    -0.780501129644    -0.461780903874
    H           -3.568423335317     0.576388542736     0.455903784108
    H           -2.873434653337    -0.797935227544     1.288983549335

  Mulliken Charges: (a.u.)
   Center  Symbol    Alpha    Beta     Spin     Total
       1     H     0.38238  0.38238  0.00000  0.23524
       2     O     4.16008  4.16008  0.00000 -0.32016
       3     C     2.80298  2.80298  0.00000  0.39405
       4     C     3.10822  3.10822  0.00000 -0.21644
       5     O     4.19047  4.19047  0.00000 -0.38094
       6     C     3.08297  3.08297  0.00000 -0.16594
       7     H     0.43949  0.43949  0.00000  0.12102
       8     H     0.43696  0.43696  0.00000  0.12609
       9     C     3.14922  3.14922  0.00000 -0.29843
      10     H     0.43989  0.43989  0.00000  0.12022
      11     H     0.45135  0.45135  0.00000  0.09729
      12     H     0.45480  0.45480  0.00000  0.09039
      13     H     0.44585  0.44585  0.00000  0.10830
      14     H     0.45535  0.45535  0.00000  0.08931

   Total alpha = 24.00000, Total beta = 24.00000, Total charge = -0.00000
