  ==> Input File <==

--------------------------------------------------------------------------
set {
	reference rhf
	basis cc-pvtz
}

set_num_threads( 4 )
memory 2 gb

molecule MOL {
0 1

H	 0.692856	 -1.249597	 -0.407969
C	 0.678408	 -0.336618	 -1.018788
C	 0.062554	 0.862911	 -0.350953
O	 1.132739	 -0.347522	 -2.109943
C	 -1.339253	 0.577611	 0.196911
H	 0.053922	 1.683647	 -1.056511
H	 0.719901	 1.134290	 0.472044
C	 -1.813142	 -0.849710	 -0.061612
H	 -2.032833	 1.276441	 -0.256032
H	 -1.357249	 0.782269	 1.263793
H	 -1.839268	 -1.063526	 -1.124230
H	 -2.810118	 -1.001930	 0.334000
H	 -1.159274	 -1.579980	 0.402282

	symmetry c1
}
set optking {
	frozen_dihedral = ("
		6 3 5 9
	")
}

ee = optimize('scf')
oeprop('DIPOLE', 'QUADRUPOLE', 'MULLIKEN_CHARGES')
f=open( 'psi4out.xyz', 'w' )
f.write( "13  " )
f.write( str(ee) + "\n" )
f.write( MOL.save_string_xyz() )
f.close()
--------------------------------------------------------------------------

    Molecular point group: c1
  Charge       = 0
  Multiplicity = 1
  Basis Set: CC-PVTZ
  Basis Set:
  @DF-RHF Final Energy:  -231.05942763399685
    Total Energy =                       -231.0594276339967621
    Molecular point group: c1
  Basis Set: CC-PVTZ
  Basis Set:
  Basis Set: CC-PVTZ
  Basis Set:
  @DF-RHF Final Energy:  -231.05996871790114
    Total Energy =                       -231.0599687179010289
  Basis Set: CC-PVTZ
  Basis Set:
  Basis Set: CC-PVTZ
  Basis Set:
  @DF-RHF Final Energy:  -231.06192889098998
    Total Energy =                       -231.0619288909900604
  Basis Set: CC-PVTZ
  Basis Set:
  Basis Set: CC-PVTZ
  Basis Set:
  @DF-RHF Final Energy:  -231.06185260513891
    Total Energy =                       -231.0618526051391370
  Basis Set: CC-PVTZ
  Basis Set:
  @DF-RHF Final Energy:  -231.06131595113891
    Total Energy =                       -231.0613159511388517
  @DF-RHF Final Energy:  -231.06233111572647
    Total Energy =                       -231.0623311157264652
  Basis Set: CC-PVTZ
  Basis Set:
  @DF-RHF Final Energy:  -231.06233759076747
    Total Energy =                       -231.0623375907672710
  Basis Set: CC-PVTZ
  Basis Set:
  Basis Set: CC-PVTZ
  Basis Set:
  @DF-RHF Final Energy:  -231.06235599200880
    Total Energy =                       -231.0623559920089463
  Basis Set: CC-PVTZ
  Basis Set:
  Basis Set: CC-PVTZ
  Basis Set:
  @DF-RHF Final Energy:  -231.06235748276063
    Total Energy =                       -231.0623574827604898
  Basis Set: CC-PVTZ
  Basis Set:
  Charge       = 0
  Multiplicity = 1
  Basis Set: CC-PVTZ
  Basis Set:

    Orbital Energies (a.u.)
    -----------------------

    Doubly Occupied:

       1A    -20.551145     2A    -11.320846     3A    -11.237199
       4A    -11.234178     5A    -11.222480     6A     -1.406017
       7A     -1.082016     8A     -0.974641     9A     -0.858271
      10A     -0.777956    11A     -0.676786    12A     -0.637629
      13A     -0.630228    14A     -0.603582    15A     -0.559265
      16A     -0.532107    17A     -0.518096    18A     -0.488037
      19A     -0.478022    20A     -0.411241

  @DF-RHF Final Energy:  -231.06235817476619

   => Energetics <=

    Nuclear Repulsion Energy =            174.2777797701778582
    One-Electron Energy =                -658.2807936345434427
    Two-Electron Energy =                 252.9406556895994527
    DFT Exchange-Correlation Energy =       0.0000000000000000
    Empirical Dispersion Energy =           0.0000000000000000
    PCM Polarization Energy =               0.0000000000000000
    EFP Energy =                            0.0000000000000000
    Total Energy =                       -231.0623581747661319
    Molecular point group: c1
  Basis Set: CC-PVTZ
  Basis Set:

  -Total Gradient:
     Atom            X                  Y                   Z
    ------   -----------------  -----------------  -----------------
       1       -0.000002750085     0.000003325644    -0.000000547316
       2       -0.000022527829    -0.000006821351    -0.000012646164
       3        0.000049231827     0.000178336844     0.000193422790
       4        0.000006246488    -0.000006606150     0.000005412678
       5       -0.000036122291    -0.000168143466    -0.000180560410
       6       -0.000030793228    -0.000110547831    -0.000125407540
       7       -0.000012779279    -0.000002927266     0.000002674648
       8        0.000009576897    -0.000007767158    -0.000006672748
       9        0.000028439589     0.000114409293     0.000116998367
      10        0.000008435017     0.000011660719     0.000009845848
      11        0.000001865314    -0.000001453297    -0.000002340461
      12        0.000003657126    -0.000000112071     0.000001033330
      13       -0.000002479545    -0.000003353911    -0.000001213021

  **** Optimization is complete! (in 10 steps) ****
    Final optimized geometry and variables:
    Molecular point group: c1

    Geometry (in Angstrom), charge = 0, multiplicity = 1:

    H            1.220473340618    -1.162366941857     0.269557009856
    C            1.021529206478    -0.280158293807    -0.348671181912
    C            0.348048371694     0.872599069719     0.347953346745
    O            1.353929827419    -0.270842971980    -1.483830773637
    C           -1.079977223331     0.580735450418     0.887858220418
    H            0.331921698858     1.699145445420    -0.348052856313
    H            0.997855724554     1.151928651223     1.172434019570
    C           -1.621614447648    -0.829095481646     0.649761350493
    H           -1.758923533825     1.287992744006     0.428771066794
    H           -1.106733942990     0.788062112070     1.950455157155
    H           -1.622485428253    -1.085506493722    -0.403746918754
    H           -2.642927661696    -0.895543393307     1.004103802272
    H           -1.046965473765    -1.582148092911     1.176324215307

  Mulliken Charges: (a.u.)
   Center  Symbol    Alpha    Beta     Spin     Total
       1     H     0.46238  0.46238  0.00000  0.07524
       2     C     2.90461  2.90461  0.00000  0.19078
       3     C     3.08749  3.08749  0.00000 -0.17497
       4     O     4.16676  4.16676  0.00000 -0.33351
       5     C     3.09290  3.09290  0.00000 -0.18580
       6     H     0.44167  0.44167  0.00000  0.11666
       7     H     0.44897  0.44897  0.00000  0.10206
       8     C     3.15820  3.15820  0.00000 -0.31641
       9     H     0.44562  0.44562  0.00000  0.10876
      10     H     0.44813  0.44813  0.00000  0.10373
      11     H     0.44675  0.44675  0.00000  0.10651
      12     H     0.44391  0.44391  0.00000  0.11217
      13     H     0.45261  0.45261  0.00000  0.09478

   Total alpha = 20.00000, Total beta = 20.00000, Total charge = -0.00000
