  ==> Input File <==

--------------------------------------------------------------------------
set {
	reference rhf
	basis 6-31G*
}

set_num_threads( 4 )
memory 2 gb

molecule MOL {
0 1

H	 2.415009	 -2.868509	 2.173515
C	 2.466884	 -2.185494	 1.331761
C	 1.186125	 -1.360576	 1.212901
H	 3.333077	 -1.546513	 1.478866
H	 2.640955	 -2.776988	 0.437288
C	 1.217350	 -0.386724	 0.039429
H	 1.017075	 -0.797214	 2.125279
H	 0.335505	 -2.030780	 1.100368
N	 0.000003	 0.397874	 -0.023260
H	 2.050942	 0.299097	 0.164880
H	 1.406678	 -0.937037	 -0.888304
C	 -1.217365	 -0.386708	 0.039277
H	 -0.000031	 1.072115	 0.718656
C	 -2.452633	 0.504241	 -0.042481
H	 -1.215291	 -1.074557	 -0.802042
H	 -1.269739	 -1.003477	 0.942735
C	 -3.758029	 -0.289423	 -0.010781
H	 -2.394220	 1.093569	 -0.952170
H	 -2.440793	 1.210787	 0.785871
H	 -3.816659	 -0.981993	 -0.845726
H	 -4.617837	 0.370165	 -0.069296
H	 -3.847478	 -0.867502	 0.904682

	symmetry c1
}
set optking {
	frozen_dihedral = ("
		10 6 9 12
	")
}

ee = optimize('scf')
oeprop('DIPOLE', 'QUADRUPOLE', 'MULLIKEN_CHARGES')
f=open( 'psi4out.xyz', 'w' )
f.write( "22  " )
f.write( str(ee) + "\n" )
f.write( MOL.save_string_xyz() )
f.close()
--------------------------------------------------------------------------

    Molecular point group: c1
  Charge       = 0
  Multiplicity = 1
  Basis Set: 6-31G*
  Basis Set:
  @DF-RHF Final Energy:  -290.37484659784502
    Total Energy =                       -290.3748465978454760
    Molecular point group: c1
  Basis Set: 6-31G*
  Basis Set:
  Basis Set: 6-31G*
  Basis Set:
  @DF-RHF Final Energy:  -290.37639313696155
    Total Energy =                       -290.3763931369616671
  Basis Set: 6-31G*
  Basis Set:
  Basis Set: 6-31G*
  Basis Set:
  @DF-RHF Final Energy:  -290.37935593001242
    Total Energy =                       -290.3793559300125366
  Basis Set: 6-31G*
  Basis Set:
  Basis Set: 6-31G*
  Basis Set:
  @DF-RHF Final Energy:  -290.37977560851903
    Total Energy =                       -290.3797756085190258
  Basis Set: 6-31G*
  Basis Set:
  Basis Set: 6-31G*
  Basis Set:
  @DF-RHF Final Energy:  -290.37981568070200
    Total Energy =                       -290.3798156807020518
  Basis Set: 6-31G*
  Basis Set:
  Basis Set: 6-31G*
  Basis Set:
  @DF-RHF Final Energy:  -290.37982425199226
    Total Energy =                       -290.3798242519923178
  Basis Set: 6-31G*
  Basis Set:
  Basis Set: 6-31G*
  Basis Set:
  @DF-RHF Final Energy:  -290.37982840773969
    Total Energy =                       -290.3798284077398080
  Basis Set: 6-31G*
  Basis Set:
  Charge       = 0
  Multiplicity = 1
  Basis Set: 6-31G*
  Basis Set:

    Orbital Energies (a.u.)
    -----------------------

    Doubly Occupied:

       1A    -15.533138     2A    -11.238849     3A    -11.237496
       4A    -11.213491     5A    -11.211658     6A    -11.211007
       7A    -11.208726     8A     -1.202488     9A     -1.056569
      10A     -1.026878    11A     -0.929355    12A     -0.872786
      13A     -0.810820    14A     -0.791159    15A     -0.668830
      16A     -0.630528    17A     -0.615501    18A     -0.601858
      19A     -0.579052    20A     -0.556728    21A     -0.541332
      22A     -0.523577    23A     -0.502300    24A     -0.496169
      25A     -0.484081    26A     -0.469095    27A     -0.466175
      28A     -0.461805    29A     -0.352396

  @DF-RHF Final Energy:  -290.37982846679921

   => Energetics <=

    Nuclear Repulsion Energy =            317.3845474659642036
    One-Electron Energy =               -1020.5410641780028982
    Two-Electron Energy =                 412.7766882452395976
    DFT Exchange-Correlation Energy =       0.0000000000000000
    Empirical Dispersion Energy =           0.0000000000000000
    PCM Polarization Energy =               0.0000000000000000
    EFP Energy =                            0.0000000000000000
    Total Energy =                       -290.3798284667990401
    Molecular point group: c1
  Basis Set: 6-31G*
  Basis Set:

  -Total Gradient:
     Atom            X                  Y                   Z
    ------   -----------------  -----------------  -----------------
       1        0.000006228245    -0.000003128676     0.000002659551
       2       -0.000002825476    -0.000002670143     0.000006878515
       3        0.000015080368    -0.000005888313     0.000001132761
       4       -0.000003729732    -0.000000200952    -0.000005129694
       5        0.000000050446    -0.000002290419     0.000001387489
       6        0.000394407605     0.000422953582    -0.003126514786
       7       -0.000000319298    -0.000001638309     0.000004724624
       8        0.000000178668     0.000003862297    -0.000004769483
       9       -0.000101798720    -0.000373846003    -0.003495663578
      10       -0.000332370758    -0.000270212371     0.003657772047
      11       -0.000001340642     0.000004473103     0.000003631248
      12        0.000024547118     0.000224479747     0.002951505796
      13       -0.000007944097     0.000003396427     0.000000185681
      14        0.000005935961     0.000003856683     0.000004662234
      15        0.000004423007     0.000001645018    -0.000001471605
      16       -0.000005128040    -0.000001281595    -0.000000912840
      17        0.000002510375    -0.000004464079    -0.000001755904
      18        0.000000579055    -0.000000595288    -0.000001061472
      19        0.000001618402     0.000001526956     0.000001749725
      20       -0.000000055246    -0.000001092401     0.000001107530
      21        0.000001324423     0.000000050990    -0.000001001757
      22       -0.000001371664     0.000001063747     0.000000883919

  **** Optimization is complete! (in 8 steps) ****
    Final optimized geometry and variables:
    Molecular point group: c1

    Geometry (in Angstrom), charge = 0, multiplicity = 1:

    H            3.087020346823    -2.353468088170     1.667479924652
    C            3.021968954821    -1.610013877516     0.879499237346
    C            1.648576544440    -0.938429219055     0.862756657406
    H            3.813978115763    -0.884584590723     1.043573493680
    H            3.224837599815    -2.110703304759    -0.063209424834
    C            1.536453543043     0.108790268042    -0.253542709549
    H            1.464486203173    -0.459644489920     1.823180425572
    H            0.882049355461    -1.698688189351     0.744693606025
    N            0.313907478169     0.893644962629    -0.305014623044
    H            2.355155183424     0.811494073347    -0.128254181825
    H            1.674033274662    -0.377440689683    -1.216076925156
    C           -0.936525429339     0.160048970766    -0.244775242213
    H            0.328171639398     1.581127451519     0.423506573555
    C           -2.117764321694     1.086202496603    -0.518436219420
    H           -0.906461321327    -0.615797733751    -1.006144507852
    H           -1.091638144653    -0.347980682074     0.709326929044
    C           -3.461616582342     0.359814826521    -0.480168486394
    H           -1.971490506605     1.556644182856    -1.485442111020
    H           -2.120378372604     1.888288411169     0.217873728092
    H           -3.503063643809    -0.429217592430    -1.225934418079
    H           -4.281154858955     1.043107342631    -0.678519730649
    H           -3.638979130159    -0.094380165961     0.490785802846

  Mulliken Charges: (a.u.)
   Center  Symbol    Alpha    Beta     Spin     Total
       1     H     0.41777  0.41777  0.00000  0.16446
       2     C     3.24293  3.24293  0.00000 -0.48586
       3     C     3.16188  3.16188  0.00000 -0.32377
       4     H     0.42163  0.42163  0.00000  0.15675
       5     H     0.42067  0.42067  0.00000  0.15866
       6     C     3.05109  3.05109  0.00000 -0.10219
       7     H     0.42611  0.42611  0.00000  0.14778
       8     H     0.42000  0.42000  0.00000  0.16000
       9     N     3.85465  3.85465  0.00000 -0.70929
      10     H     0.42111  0.42111  0.00000  0.15778
      11     H     0.42052  0.42052  0.00000  0.15896
      12     C     3.05410  3.05410  0.00000 -0.10819
      13     H     0.33529  0.33529  0.00000  0.32942
      14     C     3.15155  3.15155  0.00000 -0.30311
      15     H     0.42262  0.42262  0.00000  0.15475
      16     H     0.43283  0.43283  0.00000  0.13434
      17     C     3.24362  3.24362  0.00000 -0.48723
      18     H     0.41338  0.41338  0.00000  0.17323
      19     H     0.42691  0.42691  0.00000  0.14618
      20     H     0.42125  0.42125  0.00000  0.15750
      21     H     0.41787  0.41787  0.00000  0.16426
      22     H     0.42221  0.42221  0.00000  0.15557

   Total alpha = 29.00000, Total beta = 29.00000, Total charge = -0.00000
