  ==> Input File <==

--------------------------------------------------------------------------
set {
	reference rhf
	basis cc-pvtz
}

set_num_threads( 4 )
memory 2 gb

molecule MOL {
0 1

H	 2.342730	 0.877684	 -1.045694
C	 2.360424	 0.000000	 -0.411793
C	 1.173749	 0.000000	 0.526870
H	 3.286567	 0.000000	 0.151574
H	 2.342730	 -0.877684	 -1.045694
O	 -0.000000	 0.000000	 -0.223739
H	 1.203779	 0.876757	 1.172538
H	 1.203779	 -0.876757	 1.172538
C	 -1.173749	 0.000000	 0.526870
C	 -1.083997	 -1.078563	 1.584193
H	 -2.031076	 -0.177703	 -0.121130
H	 -1.318594	 0.973774	 0.992998
H	 -0.954780	 -2.050482	 1.124683
H	 -1.988410	 -1.096924	 2.181539
H	 -0.241545	 -0.897787	 2.239989

	symmetry c1
}
set optking {
	frozen_dihedral = ("
		11 9 6 3
	")
}

ee = optimize('scf')
oeprop('DIPOLE', 'QUADRUPOLE', 'MULLIKEN_CHARGES')
f=open( 'psi4out.xyz', 'w' )
f.write( "15  " )
f.write( str(ee) + "\n" )
f.write( MOL.save_string_xyz() )
f.close()
--------------------------------------------------------------------------

    Molecular point group: c1
  Charge       = 0
  Multiplicity = 1
  Basis Set: CC-PVTZ
  Basis Set:
  @DF-RHF Final Energy:  -232.22125221180553
    Total Energy =                       -232.2212522118057336
    Molecular point group: c1
  Basis Set: CC-PVTZ
  Basis Set:
  Basis Set: CC-PVTZ
  Basis Set:
  @DF-RHF Final Energy:  -232.22198371951879
    Total Energy =                       -232.2219837195188461
  Basis Set: CC-PVTZ
  Basis Set:
  Basis Set: CC-PVTZ
  Basis Set:
  @DF-RHF Final Energy:  -232.22733338952855
    Total Energy =                       -232.2273333895287806
  Basis Set: CC-PVTZ
  Basis Set:
  Basis Set: CC-PVTZ
  Basis Set:
  @DF-RHF Final Energy:  -232.22877680587493
    Total Energy =                       -232.2287768058750430
  Basis Set: CC-PVTZ
  Basis Set:
  Basis Set: CC-PVTZ
  Basis Set:
  @DF-RHF Final Energy:  -232.22894956297449
    Total Energy =                       -232.2289495629742646
  Basis Set: CC-PVTZ
  Basis Set:
  Basis Set: CC-PVTZ
  Basis Set:
  @DF-RHF Final Energy:  -232.22897863064873
    Total Energy =                       -232.2289786306486121
  Basis Set: CC-PVTZ
  Basis Set:
  Charge       = 0
  Multiplicity = 1
  Basis Set: CC-PVTZ
  Basis Set:

    Orbital Energies (a.u.)
    -----------------------

    Doubly Occupied:

       1A    -20.543106     2A    -11.266586     3A    -11.265064
       4A    -11.211732     5A    -11.206036     6A     -1.376830
       7A     -1.040826     8A     -0.989586     9A     -0.869323
      10A     -0.803069    11A     -0.676671    12A     -0.658323
      13A     -0.630885    14A     -0.590040    15A     -0.547534
      16A     -0.539017    17A     -0.524717    18A     -0.503462
      19A     -0.491830    20A     -0.453804    21A     -0.410156

  @DF-RHF Final Energy:  -232.22898041753956

   => Energetics <=

    Nuclear Repulsion Energy =            193.4526439841097272
    One-Electron Energy =                -698.1660559562189974
    Two-Electron Energy =                 272.4844315545698805
    DFT Exchange-Correlation Energy =       0.0000000000000000
    Empirical Dispersion Energy =           0.0000000000000000
    PCM Polarization Energy =               0.0000000000000000
    EFP Energy =                            0.0000000000000000
    Total Energy =                       -232.2289804175393897
    Molecular point group: c1
  Basis Set: CC-PVTZ
  Basis Set:

  -Total Gradient:
     Atom            X                  Y                   Z
    ------   -----------------  -----------------  -----------------
       1       -0.000000679555     0.000001046514    -0.000000627079
       2       -0.000044574810    -0.000007906174    -0.000011578026
       3       -0.000089512448    -0.003255052428     0.000232322857
       4       -0.000019553262    -0.000002361053     0.000013825433
       5        0.000000560057    -0.000000543535    -0.000003172622
       6        0.000013210881     0.004025869239    -0.000158488890
       7        0.000009914821     0.000005719521     0.000000504289
       8        0.000010417153    -0.000001596632     0.000007142882
       9       -0.000284463796     0.002997248812    -0.000852602385
      10        0.000000349133    -0.000011869692     0.000058474451
      11        0.000381300261    -0.003740483765     0.000716856391
      12        0.000019647402     0.000006009473    -0.000023440611
      13        0.000002873391     0.000007970081    -0.000004183199
      14       -0.000007975641    -0.000009043646     0.000019185602
      15        0.000008486412    -0.000015006715     0.000005780908

  **** Optimization is complete! (in 7 steps) ****
    Final optimized geometry and variables:
    Molecular point group: c1

    Geometry (in Angstrom), charge = 0, multiplicity = 1:

    H            2.011884108444     1.257447211955    -1.446922819362
    C            2.118804171178     0.329661993444    -0.899013506182
    C            0.987874475823     0.163443060014     0.093240420597
    H            3.073436270666     0.338922605086    -0.384940168302
    H            2.119218841483    -0.486648524468    -1.610700373658
    O           -0.216211641882     0.138796598215    -0.609888827704
    H            0.992492037283     0.987629548320     0.806537627194
    H            1.124185599015    -0.754461644043     0.657134373468
    C           -1.398392545774     0.195557066735     0.132441886240
    C           -1.500757921835    -0.816026438983     1.266100634734
    H           -2.189019468496    -0.015996405452    -0.574690428759
    H           -1.544087870502     1.202124674747     0.521029050851
    H           -1.324486090340    -1.821366974745     0.901015193575
    H           -2.500517137954    -0.778645960714     1.684034721065
    H           -0.802673111070    -0.615302142331     2.068876988898

  Mulliken Charges: (a.u.)
   Center  Symbol    Alpha    Beta     Spin     Total
       1     H     0.45161  0.45161  0.00000  0.09677
       2     C     3.13598  3.13598  0.00000 -0.27195
       3     C     2.96698  2.96698  0.00000  0.06604
       4     H     0.45951  0.45951  0.00000  0.08098
       5     H     0.45133  0.45133  0.00000  0.09735
       6     O     4.18038  4.18038  0.00000 -0.36076
       7     H     0.47421  0.47421  0.00000  0.05157
       8     H     0.46983  0.46983  0.00000  0.06033
       9     C     2.98048  2.98048  0.00000  0.03903
      10     C     3.15800  3.15800  0.00000 -0.31599
      11     H     0.45318  0.45318  0.00000  0.09365
      12     H     0.46792  0.46792  0.00000  0.06416
      13     H     0.44965  0.44965  0.00000  0.10069
      14     H     0.44783  0.44783  0.00000  0.10435
      15     H     0.45311  0.45311  0.00000  0.09378

   Total alpha = 21.00000, Total beta = 21.00000, Total charge = -0.00000
