  ==> Input File <==

--------------------------------------------------------------------------
set {
	reference rhf
	basis 6-31G*
}

set_num_threads( 1 )
memory 2 gb

molecule MOL {
0 1

O	 1.743241	 0.431600	 -0.965176
C	 1.122059	 0.121804	 -0.000188
C	 -0.170150	 -0.657997	 -0.000612
O	 1.496287	 0.431159	 1.234813
C	 -1.412532	 0.227344	 -0.000452
H	 -0.153702	 -1.313099	 -0.867402
H	 -0.153924	 -1.313811	 0.865644
C	 -2.706999	 -0.587347	 -0.000541
H	 -1.388000	 0.879466	 -0.868000
H	 -1.387972	 0.879138	 0.867341
C	 -3.956778	 0.291888	 0.000910
H	 -2.726114	 -1.239230	 -0.871609
H	 -2.725217	 -1.240844	 0.869333
H	 -3.985213	 0.933254	 -0.875158
H	 -4.860123	 -0.309979	 0.000519
H	 -3.984618	 0.931166	 0.878514
C	 2.698331	 1.166012	 1.377023
H	 3.532796	 0.611621	 0.972293
H	 2.828463	 1.316607	 2.437370
H	 2.624450	 2.117274	 0.869924

	symmetry c1
}
set optking {
	frozen_dihedral = ("
		9 5 8 12,
		9 5 3 6,
		1 2 4 17
	")
}

ee = energy('scf')
oeprop('DIPOLE', 'QUADRUPOLE', 'MULLIKEN_CHARGES')
f=open( 'psi4out.xyz', 'w' )
f.write( "20  " )
f.write( str(ee) + "\n" )
f.write( MOL.save_string_xyz() )
f.close()
--------------------------------------------------------------------------

    Molecular point group: c1

    Geometry (in Angstrom), charge = 0, multiplicity = 1:

       Center              X                  Y                   Z               Mass
    ------------   -----------------  -----------------  -----------------  -----------------
           O          1.861887219505     0.235109189713    -1.181733060833    15.994914619560
           C          1.240705219505    -0.074686810287    -0.216745060833    12.000000000000
           C         -0.051503780495    -0.854487810287    -0.217169060833    12.000000000000
           O          1.614933219505     0.234668189713     1.018255939167    15.994914619560
           C         -1.293885780495     0.030853189713    -0.217009060833    12.000000000000
           H         -0.035055780495    -1.509589810287    -1.083959060833     1.007825032070
           H         -0.035277780495    -1.510301810287     0.649086939167     1.007825032070
           C         -2.588352780495    -0.783837810287    -0.217098060833    12.000000000000
           H         -1.269353780495     0.682975189713    -1.084557060833     1.007825032070
           H         -1.269325780495     0.682647189713     0.650783939167     1.007825032070
           C         -3.838131780495     0.095397189713    -0.215647060833    12.000000000000
           H         -2.607467780495    -1.435720810287    -1.088166060833     1.007825032070
           H         -2.606570780495    -1.437334810287     0.652775939167     1.007825032070
           H         -3.866566780495     0.736763189713    -1.091715060833     1.007825032070
           H         -4.741476780495    -0.506469810287    -0.216038060833     1.007825032070
           H         -3.865971780495     0.734675189713     0.661956939167     1.007825032070
           C          2.816977219505     0.969521189713     1.160465939167    12.000000000000
           H          3.651442219505     0.415130189713     0.755735939167     1.007825032070
           H          2.947109219505     1.120116189713     2.220812939167     1.007825032070
           H          2.743096219505     1.920783189713     0.653366939167     1.007825032070

  Charge       = 0
  Multiplicity = 1
  Basis Set: 6-31G*
  Basis Set:

    Orbital Energies (a.u.)
    -----------------------

    Doubly Occupied:

       1A    -20.604159     2A    -20.543588     3A    -11.370963
       4A    -11.280402     5A    -11.233524     6A    -11.229959
       7A    -11.224930     8A    -11.214568     9A     -1.468720
      10A     -1.361400    11A     -1.093623    12A     -1.025515
      13A     -0.968059    14A     -0.890367    15A     -0.808731
      16A     -0.773242    17A     -0.693497    18A     -0.679450
      19A     -0.673358    20A     -0.646451    21A     -0.599541
      22A     -0.591510    23A     -0.573493    24A     -0.554811
      25A     -0.533956    26A     -0.520195    27A     -0.508585
      28A     -0.484545    29A     -0.482257    30A     -0.475424
      31A     -0.453685    32A     -0.429736

  @DF-RHF Final Energy:  -383.93956332849388

   => Energetics <=

    Nuclear Repulsion Energy =            382.4661345717415202
    One-Electron Energy =               -1280.8269202390324608
    Two-Electron Energy =                 514.4212223387976337
    DFT Exchange-Correlation Energy =       0.0000000000000000
    Empirical Dispersion Energy =           0.0000000000000000
    PCM Polarization Energy =               0.0000000000000000
    EFP Energy =                            0.0000000000000000
    Total Energy =                       -383.9395633284932501

  Mulliken Charges: (a.u.)
   Center  Symbol    Alpha    Beta     Spin     Total
       1     O     4.28456  4.28456  0.00000 -0.56913
       2     C     2.61785  2.61785  0.00000  0.76430
       3     C     3.19484  3.19484  0.00000 -0.38968
       4     O     4.30222  4.30222  0.00000 -0.60444
       5     C     3.16248  3.16248  0.00000 -0.32496
       6     H     0.40124  0.40124  0.00000  0.19753
       7     H     0.40440  0.40440  0.00000  0.19119
       8     C     3.15360  3.15360  0.00000 -0.30719
       9     H     0.41008  0.41008  0.00000  0.17984
      10     H     0.41209  0.41209  0.00000  0.17582
      11     C     3.24043  3.24043  0.00000 -0.48087
      12     H     0.41948  0.41948  0.00000  0.16105
      13     H     0.42030  0.42030  0.00000  0.15939
      14     H     0.41952  0.41952  0.00000  0.16095
      15     H     0.41729  0.41729  0.00000  0.16541
      16     H     0.42029  0.42029  0.00000  0.15941
      17     C     3.09269  3.09269  0.00000 -0.18537
      18     H     0.40872  0.40872  0.00000  0.18255
      19     H     0.40880  0.40880  0.00000  0.18240
      20     H     0.40910  0.40910  0.00000  0.18180

   Total alpha = 32.00000, Total beta = 32.00000, Total charge = -0.00000
