  ==> Input File <==

--------------------------------------------------------------------------
set {
	reference rhf
	basis 6-31G*
}

set_num_threads( 4 )
memory 2 gb

molecule MOL {
0 1

H	 -3.161837	 0.500524	 -0.000234
C	 -2.367097	 -0.232926	 -0.000000
O	 -1.158440	 0.455814	 -0.000122
H	 -2.468853	 -0.861886	 -0.882833
H	 -2.468942	 -0.861421	 0.883154
C	 -0.029776	 -0.365156	 0.000148
C	 1.201903	 0.494728	 -0.223970
H	 -0.113416	 -1.118575	 -0.784239
H	 0.047355	 -0.896964	 0.949431
C	 2.491686	 -0.324484	 -0.239193
H	 1.084311	 1.026334	 -1.163240
H	 1.244043	 1.246378	 0.558300
H	 2.480041	 -1.067544	 -1.031752
H	 3.353933	 0.313821	 -0.400261
H	 2.640607	 -0.846593	 0.701885

	symmetry c1
}
set optking {
	frozen_dihedral = ("
		8 6 3 2
	")
}

ee = optimize('scf')
oeprop('DIPOLE', 'QUADRUPOLE', 'MULLIKEN_CHARGES')
f=open( 'psi4out.xyz', 'w' )
f.write( "15  " )
f.write( str(ee) + "\n" )
f.write( MOL.save_string_xyz() )
f.close()
--------------------------------------------------------------------------

    Molecular point group: c1
  Charge       = 0
  Multiplicity = 1
  Basis Set: 6-31G*
  Basis Set:
  @DF-RHF Final Energy:  -232.13923717077233
    Total Energy =                       -232.1392371707722759
    Molecular point group: c1
  Basis Set: 6-31G*
  Basis Set:
  Basis Set: 6-31G*
  Basis Set:
  @DF-RHF Final Energy:  -232.13924671592943
    Total Energy =                       -232.1392467159294597
  Basis Set: 6-31G*
  Basis Set:
  Basis Set: 6-31G*
  Basis Set:
  @DF-RHF Final Energy:  -232.13924977831408
    Total Energy =                       -232.1392497783140243
  Basis Set: 6-31G*
  Basis Set:
  Charge       = 0
  Multiplicity = 1
  Basis Set: 6-31G*
  Basis Set:

    Orbital Energies (a.u.)
    -----------------------

    Doubly Occupied:

       1A    -20.553254     2A    -11.266258     3A    -11.264061
       4A    -11.214387     5A    -11.212995     6A     -1.378080
       7A     -1.057319     8A     -0.955344     9A     -0.877373
      10A     -0.809279    11A     -0.674469    12A     -0.653931
      13A     -0.630434    14A     -0.607428    15A     -0.565752
      16A     -0.540974    17A     -0.502891    18A     -0.489134
      19A     -0.478226    20A     -0.461947    21A     -0.413187

  @DF-RHF Final Energy:  -232.13924983005526

   => Energetics <=

    Nuclear Repulsion Energy =            189.7205565995787708
    One-Electron Energy =                -690.5061691638402408
    Two-Electron Energy =                 268.6463627342061500
    DFT Exchange-Correlation Energy =       0.0000000000000000
    Empirical Dispersion Energy =           0.0000000000000000
    PCM Polarization Energy =               0.0000000000000000
    EFP Energy =                            0.0000000000000000
    Total Energy =                       -232.1392498300552916
    Molecular point group: c1
  Basis Set: 6-31G*
  Basis Set:

  -Total Gradient:
     Atom            X                  Y                   Z
    ------   -----------------  -----------------  -----------------
       1        0.000001338940     0.000000356207     0.000002284147
       2       -0.000010150406    -0.000000812029    -0.001081756163
       3       -0.000140462521    -0.000217886248     0.001749858958
       4        0.000001075664    -0.000000577468     0.000001886815
       5        0.000003599544     0.000002134260     0.000000062953
       6        0.000746817842     0.001059902204    -0.001526450456
       7       -0.000012692000     0.000000340297    -0.000008174133
       8       -0.000588485913    -0.000827387166     0.000856039636
       9        0.000006140113    -0.000009944034     0.000005742847
      10       -0.000003309697    -0.000002339413     0.000011743144
      11       -0.000003735998    -0.000003531352    -0.000001512675
      12       -0.000000526595    -0.000000476158    -0.000003445644
      13        0.000004372604     0.000002753503    -0.000004525145
      14        0.000002042913     0.000000489189     0.000002964798
      15       -0.000006024488    -0.000003021792    -0.000004719082

  **** Optimization is complete! (in 4 steps) ****
    Final optimized geometry and variables:
    Molecular point group: c1

    Geometry (in Angstrom), charge = 0, multiplicity = 1:

    H           -3.158208956608     0.507730546695     0.109915078631
    C           -2.364148079510    -0.226417674346     0.098102207556
    O           -1.154824977027     0.460994764342     0.090399197436
    H           -2.473707413431    -0.849565811789    -0.787705909541
    H           -2.459486909591    -0.860418545349     0.978201499262
    C           -0.025429792005    -0.359870922948     0.080466222372
    C            1.206630072040     0.500162538363    -0.138489445790
    H           -0.113380470329    -1.112033082633    -0.704371586039
    H            0.051455584421    -0.898433754860     1.026194783947
    C            2.497430183873    -0.317643923974    -0.140396591810
    H            1.095394516857     1.028582300324    -1.080352570224
    H            1.242073573691     1.254452156593     0.641575636171
    H            2.492781922909    -1.063843221920    -0.930125379304
    H            3.360330111653     0.320842572378    -0.297346371936
    H            2.639341902934    -0.836014591119     0.803778523146

  Mulliken Charges: (a.u.)
   Center  Symbol    Alpha    Beta     Spin     Total
       1     H     0.41222  0.41222  0.00000  0.17556
       2     C     3.07936  3.07936  0.00000 -0.15873
       3     O     4.30600  4.30600  0.00000 -0.61199
       4     H     0.43015  0.43015  0.00000  0.13970
       5     H     0.43064  0.43064  0.00000  0.13871
       6     C     2.98150  2.98150  0.00000  0.03700
       7     C     3.15975  3.15975  0.00000 -0.31949
       8     H     0.43391  0.43391  0.00000  0.13218
       9     H     0.43279  0.43279  0.00000  0.13443
      10     C     3.24798  3.24798  0.00000 -0.49595
      11     H     0.41485  0.41485  0.00000  0.17030
      12     H     0.41383  0.41383  0.00000  0.17235
      13     H     0.42099  0.42099  0.00000  0.15801
      14     H     0.41540  0.41540  0.00000  0.16919
      15     H     0.42063  0.42063  0.00000  0.15873

   Total alpha = 21.00000, Total beta = 21.00000, Total charge =  0.00000
