                              Psi4 1.0.54 Driver

  ==> Input File <==

--------------------------------------------------------------------------
set {
	reference rhf
	basis cc-pvtz
}

set_num_threads( 4 )
memory 2 gb

molecule MOL {
0 1

H	 2.614283	 2.028610	 0.296620
O	 3.358864	 1.662087	 -0.142800
C	 3.565468	 0.338079	 0.273842
C	 2.533667	 -0.637565	 -0.272227
H	 4.548038	 0.064914	 -0.086598
H	 3.593945	 0.282242	 1.360360
C	 1.114816	 -0.402372	 0.240993
H	 2.544552	 -0.580764	 -1.356576
H	 2.850574	 -1.642962	 -0.005497
C	 0.113298	 -1.420414	 -0.302504
H	 0.796373	 0.598427	 -0.031033
H	 1.113377	 -0.446476	 1.328807
C	 0.655372	 -2.842904	 -0.453940
H	 -0.763285	 -1.437067	 0.340577
H	 -0.232068	 -1.079483	 -1.274593
C	 0.990180	 -3.550342	 0.857996
H	 -0.084199	 -3.434612	 -0.986335
H	 1.538964	 -2.824203	 -1.088031
C	 1.431947	 -4.998130	 0.660097
H	 0.118759	 -3.528455	 1.508853
H	 1.775041	 -3.013570	 1.382278
C	 1.770598	 -5.706272	 1.967668
H	 0.646176	 -5.546015	 0.147297
H	 2.297386	 -5.022375	 0.003218
H	 0.914871	 -5.727225	 2.634399
H	 2.077305	 -6.731010	 1.791744
H	 2.579973	 -5.203845	 2.487121

	symmetry c1
}
set optking {
	frozen_dihedral = ("
		14 10 7 4
	")
}

ee,wfn = optimize('scf', return_wfn=True)
oeprop( wfn, 'DIPOLE', 'QUADRUPOLE', 'MULLIKEN_CHARGES')
f=open( 'psi4out.xyz', 'w' )
f.write( "27  " )
f.write( str(ee) + "\n" )
f.write( MOL.save_string_xyz() )
f.close()
--------------------------------------------------------------------------

    Molecular point group: c1
  Charge       = 0
  Multiplicity = 1
  Basis Set: CC-PVTZ
  Basis Set:
  @DF-RHF Final Energy:  -388.42119150651411
    Total Energy =                       -388.4211915065147878
    Molecular point group: c1
  Basis Set: CC-PVTZ
  Basis Set:
  Basis Set: CC-PVTZ
  Basis Set:
  @DF-RHF Final Energy:  -388.40056042181061
    Total Energy =                       -388.4005604218109511
  Basis Set: CC-PVTZ
  Basis Set:
  Basis Set: CC-PVTZ
  Basis Set:
  @DF-RHF Final Energy:  -388.42228619733066
    Total Energy =                       -388.4222861973304362
  Basis Set: CC-PVTZ
  Basis Set:
  Basis Set: CC-PVTZ
  Basis Set:
  @DF-RHF Final Energy:  -388.42330684377930
    Total Energy =                       -388.4233068437797556
  Basis Set: CC-PVTZ
  Basis Set:
  Basis Set: CC-PVTZ
  Basis Set:
  @DF-RHF Final Energy:  -388.42346473608069
    Total Energy =                       -388.4234647360805184
  Basis Set: CC-PVTZ
  Basis Set:
  Basis Set: CC-PVTZ
  Basis Set:
  @DF-RHF Final Energy:  -388.42347369382838
    Total Energy =                       -388.4234736938279866
  Basis Set: CC-PVTZ
  Basis Set:
  Basis Set: CC-PVTZ
  Basis Set:
  @DF-RHF Final Energy:  -388.42348264019870
    Total Energy =                       -388.4234826401990404
  Basis Set: CC-PVTZ
  Basis Set:
  Charge       = 0
  Multiplicity = 1
  Basis Set: CC-PVTZ
  Basis Set:

    Orbital Energies (a.u.)
    -----------------------

    Doubly Occupied:

       1A    -20.545339     2A    -11.265254     3A    -11.217753
       4A    -11.215234     5A    -11.214157     6A    -11.213078
       7A    -11.212450     8A    -11.211726     9A    -11.207660
      10A     -1.363387    11A     -1.096142    12A     -1.060512
      13A     -1.010596    14A     -0.951457    15A     -0.888543
      16A     -0.833462    17A     -0.800042    18A     -0.763415
      19A     -0.697246    20A     -0.656850    21A     -0.638336
      22A     -0.615244    23A     -0.606132    24A     -0.585300
      25A     -0.571212    26A     -0.556311    27A     -0.547934
      28A     -0.526013    29A     -0.515407    30A     -0.492581
      31A     -0.485079    32A     -0.479759    33A     -0.467577
      34A     -0.457279    35A     -0.448109    36A     -0.439085
      37A     -0.428518

  @DF-RHF Final Energy:  -388.42348326112369

   => Energetics <=

    Nuclear Repulsion Energy =            469.1237893245557871
    One-Electron Energy =               -1456.5261886302237144
    Two-Electron Energy =                 598.9789160445444622
    DFT Exchange-Correlation Energy =       0.0000000000000000
    Empirical Dispersion Energy =           0.0000000000000000
    PCM Polarization Energy =               0.0000000000000000
    EFP Energy =                            0.0000000000000000
    Total Energy =                       -388.4234832611234651
    Molecular point group: c1
  Basis Set: CC-PVTZ
  Basis Set:

  -Total Gradient:
     Atom            X                  Y                   Z
    ------   -----------------  -----------------  -----------------
       1       -0.000017621430    -0.000005626349     0.000017687766
       2        0.000013844565    -0.000022854127    -0.000002244720
       3        0.000015423724    -0.000028268337    -0.000007492417
       4        0.001679347523    -0.002011488612     0.003889189637
       5       -0.000009444372     0.000010537902    -0.000011312775
       6       -0.000018432313     0.000001157133    -0.000013012501
       7       -0.001634142085     0.002103450652    -0.004729512394
       8        0.000007224061     0.000010269245     0.000021859397
       9        0.000001849922     0.000040107306    -0.000022810551
      10       -0.003544339083     0.003405652030    -0.002793169996
      11       -0.000004258321     0.000014722940    -0.000001158610
      12        0.000018023816     0.000002092190    -0.000005959935
      13       -0.000031177470    -0.000013272079     0.000023566964
      14        0.003526962490    -0.003521380397     0.003654766977
      15       -0.000014014699    -0.000014489965    -0.000009074673
      16        0.000040177922     0.000031541599    -0.000003109216
      17       -0.000029215145    -0.000008865131    -0.000028389994
      18        0.000010072027     0.000015815634    -0.000005138091
      19       -0.000009068408    -0.000008421769    -0.000002323877
      20       -0.000015067006     0.000002027230     0.000009645056
      21        0.000020642924     0.000022209217     0.000024496301
      22       -0.000010196948     0.000007550541    -0.000008035936
      23       -0.000022581254    -0.000031055098    -0.000013348145
      24        0.000017602761     0.000003121432    -0.000017318803
      25       -0.000018511321    -0.000001837104     0.000024619591
      26        0.000003133836    -0.000021825067    -0.000001870817
      27        0.000023764279     0.000019128988     0.000009451763

  **** Optimization is complete! (in 8 steps) ****
    Final optimized geometry and variables:
    Molecular point group: c1

    Geometry (in Angstrom), charge = 0, multiplicity = 1:

    H            0.348986641210     3.923702387061    -1.025767411812
    O            1.084826471034     3.561846701485    -1.482934461973
    C            1.561966536514     2.424542427798    -0.814356903129
    C            0.662189066740     1.205988840778    -0.964604953504
    H            2.530377614733     2.212685760236    -1.247137050613
    H            1.721257410300     2.642945856296     0.239936936035
    C           -0.700341250754     1.366911251535    -0.291866094860
    H            0.536249508710     1.003285664451    -2.024473171801
    H            1.187956744176     0.357516608597    -0.541342945289
    C           -1.684989169577     0.198056812718    -0.471442240012
    H           -1.186676458916     2.264685862992    -0.659753736376
    H           -0.532285106025     1.529715653495     0.770202553006
    C           -1.098399721071    -1.215624887373    -0.386977935150
    H           -2.432156023207     0.267039572350     0.313968875677
    H           -2.197110804760     0.303283186866    -1.421864641976
    C           -0.556173094291    -1.592790884877     0.990601590279
    H           -1.886066095286    -1.916725794472    -0.649128408227
    H           -0.323036065518    -1.349229436522    -1.134337992094
    C           -0.017557980700    -3.019613815045     1.054375106950
    H           -1.348365082504    -1.477422221796     1.727192246093
    H            0.231164830997    -0.905223073514     1.286191589130
    C            0.508688380769    -3.402023590598     2.433768068308
    H           -0.802681261177    -3.712371043867     0.763942493777
    H            0.776299718895    -3.136354395674     0.321496164126
    H           -0.271492278277    -3.329343305657     3.184326871167
    H            0.882558444079    -4.419460529247     2.443723112736
    H            1.320025385389    -2.749081224310     2.738479541838

  Mulliken Charges: (a.u.)
   Center  Symbol    Alpha    Beta     Spin     Total
       1     H     0.39266  0.39266  0.00000  0.21468
       2     O     4.20554  4.20554  0.00000 -0.41109
       3     C     2.97818  2.97818  0.00000  0.04363
       4     C     3.09294  3.09294  0.00000 -0.18589
       5     H     0.44821  0.44821  0.00000  0.10357
       6     H     0.46972  0.46972  0.00000  0.06056
       7     C     3.11798  3.11798  0.00000 -0.23596
       8     H     0.44916  0.44916  0.00000  0.10167
       9     H     0.45336  0.45336  0.00000  0.09328
      10     C     3.10044  3.10044  0.00000 -0.20088
      11     H     0.44821  0.44821  0.00000  0.10359
      12     H     0.45074  0.45074  0.00000  0.09853
      13     C     3.11010  3.11010  0.00000 -0.22020
      14     H     0.45004  0.45004  0.00000  0.09993
      15     H     0.44443  0.44443  0.00000  0.11114
      16     C     3.08903  3.08903  0.00000 -0.17806
      17     H     0.44289  0.44289  0.00000  0.11422
      18     H     0.44868  0.44868  0.00000  0.10264
      19     C     3.08415  3.08415  0.00000 -0.16831
      20     H     0.45233  0.45233  0.00000  0.09533
      21     H     0.45478  0.45478  0.00000  0.09044
      22     C     3.14989  3.14989  0.00000 -0.29979
      23     H     0.45365  0.45365  0.00000  0.09269
      24     H     0.45406  0.45406  0.00000  0.09188
      25     H     0.45512  0.45512  0.00000  0.08977
      26     H     0.44810  0.44810  0.00000  0.10379
      27     H     0.45558  0.45558  0.00000  0.08884

   Total alpha = 37.00000, Total beta = 37.00000, Total charge = -0.00000

*** Psi4 exiting successfully. Buy a developer a beer!
