  ==> Input File <==

--------------------------------------------------------------------------
set {
	reference rhf
	basis 6-31G*
}

set_num_threads( 1 )
memory 2 gb

molecule MOL {
0 1

O	 0.074228	 1.262779	 -0.000085
C	 0.028650	 0.075053	 -0.000277
C	 -1.233602	 -0.752807	 0.000328
O	 1.109162	 -0.694619	 -0.000298
C	 -2.501530	 0.091881	 0.000126
H	 -1.193807	 -1.406641	 -0.865785
H	 -1.193516	 -1.405779	 0.867015
H	 -2.545121	 0.729328	 -0.874513
H	 -3.377167	 -0.548497	 0.000561
H	 -2.544818	 0.730135	 0.874258
C	 1.381828	 -1.419401	 -1.186018
H	 0.568557	 -2.092919	 -1.414879
H	 2.284872	 -1.976246	 -0.990319
H	 1.529938	 -0.745590	 -2.017591

	symmetry c1
}
set optking {
	frozen_dihedral = ("
		4 2 3 6
	")
}

ee = energy('scf')
oeprop('DIPOLE', 'QUADRUPOLE', 'MULLIKEN_CHARGES')
f=open( 'psi4out.xyz', 'w' )
f.write( "14  " )
f.write( str(ee) + "\n" )
f.write( MOL.save_string_xyz() )
f.close()
--------------------------------------------------------------------------

    Molecular point group: c1

    Geometry (in Angstrom), charge = 0, multiplicity = 1:

       Center              X                  Y                   Z               Mass
    ------------   -----------------  -----------------  -----------------  -----------------
           O          0.250138242849     1.509727107907     0.212198381684    15.994914619560
           C          0.204560242849     0.322001107907     0.212006381684    12.000000000000
           C         -1.057691757151    -0.505858892093     0.212611381684    12.000000000000
           O          1.285072242849    -0.447670892093     0.211985381684    15.994914619560
           C         -2.325619757151     0.338829107907     0.212409381684    12.000000000000
           H         -1.017896757151    -1.159692892093    -0.653501618316     1.007825032070
           H         -1.017605757151    -1.158830892093     1.079298381684     1.007825032070
           H         -2.369210757151     0.976276107907    -0.662229618316     1.007825032070
           H         -3.201256757151    -0.301548892093     0.212844381684     1.007825032070
           H         -2.368907757151     0.977083107907     1.086541381684     1.007825032070
           C          1.557738242849    -1.172452892093    -0.973734618316    12.000000000000
           H          0.744467242849    -1.845970892093    -1.202595618316     1.007825032070
           H          2.460782242849    -1.729297892093    -0.778035618316     1.007825032070
           H          1.705848242849    -0.498641892093    -1.805307618316     1.007825032070

  Charge       = 0
  Multiplicity = 1
  Basis Set: 6-31G*
  Basis Set:

    Orbital Energies (a.u.)
    -----------------------

    Doubly Occupied:

       1A    -20.591155     2A    -20.555282     3A    -11.374673
       4A    -11.297820     5A    -11.241216     6A    -11.218522
       7A     -1.465399     8A     -1.369826     9A     -1.062074
      10A     -0.985420    11A     -0.896545    12A     -0.769732
      13A     -0.700780    14A     -0.681759    15A     -0.678132
      16A     -0.630267    17A     -0.611389    18A     -0.562426
      19A     -0.546741    20A     -0.524422    21A     -0.511790
      22A     -0.486537    23A     -0.459505    24A     -0.435748

  @DF-RHF Final Energy:  -305.84779246882653

   => Energetics <=

    Nuclear Repulsion Energy =            248.3963376886228502
    One-Electron Energy =                -909.1739999524108953
    Two-Electron Energy =                 354.9298697949617463
    DFT Exchange-Correlation Energy =       0.0000000000000000
    Empirical Dispersion Energy =           0.0000000000000000
    PCM Polarization Energy =               0.0000000000000000
    EFP Energy =                            0.0000000000000000
    Total Energy =                       -305.8477924688262419

  Mulliken Charges: (a.u.)
   Center  Symbol    Alpha    Beta     Spin     Total
       1     O     4.25743  4.25743  0.00000 -0.51486
       2     C     2.61515  2.61515  0.00000  0.76970
       3     C     3.21599  3.21599  0.00000 -0.43199
       4     O     4.30584  4.30584  0.00000 -0.61168
       5     C     3.23825  3.23825  0.00000 -0.47650
       6     H     0.40774  0.40774  0.00000  0.18453
       7     H     0.39816  0.39816  0.00000  0.20368
       8     H     0.41076  0.41076  0.00000  0.17848
       9     H     0.41890  0.41890  0.00000  0.16219
      10     H     0.40802  0.40802  0.00000  0.18395
      11     C     3.09563  3.09563  0.00000 -0.19125
      12     H     0.41944  0.41944  0.00000  0.16112
      13     H     0.39907  0.39907  0.00000  0.20187
      14     H     0.40962  0.40962  0.00000  0.18077

   Total alpha = 24.00000, Total beta = 24.00000, Total charge =  0.00000
