                              Psi4 1.0.54 Driver

  ==> Input File <==

--------------------------------------------------------------------------
set {
	reference rhf
	basis cc-pvtz
}

set_num_threads( 4 )
memory 2 gb

molecule MOL {
0 1

H	 -3.841213	 -0.400797	 -1.434764
O	 -3.458596	 0.315260	 -0.960865
C	 -3.176635	 -0.080824	 0.355601
C	 -1.763371	 0.265266	 0.799691
H	 -3.321825	 -1.153438	 0.379502
H	 -3.895468	 0.357385	 1.043382
C	 -0.673390	 -0.426948	 -0.013392
H	 -1.631049	 1.344913	 0.747560
H	 -1.664587	 -0.001624	 1.849167
C	 0.737842	 -0.043159	 0.423759
H	 -0.806103	 -0.190518	 -1.063345
H	 -0.797221	 -1.503753	 0.074146
C	 1.824000	 -0.743224	 -0.390623
H	 0.850588	 1.033777	 0.343840
H	 0.868587	 -0.286314	 1.476203
C	 3.255957	 -0.453067	 0.062319
H	 1.718250	 -0.470599	 -1.438164
H	 1.658105	 -1.815850	 -0.339904
C	 3.707029	 0.992337	 -0.133857
H	 3.928201	 -1.104096	 -0.488158
H	 3.362667	 -0.724561	 1.109374
H	 3.605811	 1.294044	 -1.171549
H	 4.748333	 1.111029	 0.143343
H	 3.129882	 1.683078	 0.468956

	symmetry c1
}
set optking {
	frozen_dihedral = ("
		1 2 3 5
	")
}

ee,wfn = optimize('scf', return_wfn=True)
oeprop( wfn, 'DIPOLE', 'QUADRUPOLE', 'MULLIKEN_CHARGES')
f=open( 'psi4out.xyz', 'w' )
f.write( "24  " )
f.write( str(ee) + "\n" )
f.write( MOL.save_string_xyz() )
f.close()
--------------------------------------------------------------------------

    Molecular point group: c1
  Charge       = 0
  Multiplicity = 1
  Basis Set: CC-PVTZ
  Basis Set:
  @DF-RHF Final Energy:  -349.37805879394466
    Total Energy =                       -349.3780587939448310
    Molecular point group: c1
  Basis Set: CC-PVTZ
  Basis Set:
  Basis Set: CC-PVTZ
  Basis Set:
  @DF-RHF Final Energy:  -349.37912855464435
    Total Energy =                       -349.3791285546446943
  Basis Set: CC-PVTZ
  Basis Set:
  Basis Set: CC-PVTZ
  Basis Set:
  @DF-RHF Final Energy:  -349.37943498747978
    Total Energy =                       -349.3794349874799536
  Basis Set: CC-PVTZ
  Basis Set:
  Basis Set: CC-PVTZ
  Basis Set:
  @DF-RHF Final Energy:  -349.37943877635695
    Total Energy =                       -349.3794387763570057
  Basis Set: CC-PVTZ
  Basis Set:
  Charge       = 0
  Multiplicity = 1
  Basis Set: CC-PVTZ
  Basis Set:

    Orbital Energies (a.u.)
    -----------------------

    Doubly Occupied:

       1A    -20.545158     2A    -11.266037     3A    -11.210985
       4A    -11.210039     5A    -11.208629     6A    -11.207946
       7A    -11.207284     8A    -11.203734     9A     -1.362573
      10A     -1.088230    11A     -1.048219    12A     -0.986228
      13A     -0.914990    14A     -0.846630    15A     -0.790509
      16A     -0.775202    17A     -0.708585    18A     -0.642835
      19A     -0.633862    20A     -0.609301    21A     -0.595198
      22A     -0.579087    23A     -0.559105    24A     -0.538008
      25A     -0.513786    26A     -0.507092    27A     -0.497942
      28A     -0.471728    29A     -0.465838    30A     -0.461772
      31A     -0.454371    32A     -0.450445    33A     -0.420272

  @DF-RHF Final Energy:  -349.37943967971376

   => Energetics <=

    Nuclear Repulsion Energy =            384.9527180060512137
    One-Electron Energy =               -1236.7010862154900224
    Two-Electron Energy =                 502.3689285297252809
    DFT Exchange-Correlation Energy =       0.0000000000000000
    Empirical Dispersion Energy =           0.0000000000000000
    PCM Polarization Energy =               0.0000000000000000
    EFP Energy =                            0.0000000000000000
    Total Energy =                       -349.3794396797135278
    Molecular point group: c1
  Basis Set: CC-PVTZ
  Basis Set:

  -Total Gradient:
     Atom            X                  Y                   Z
    ------   -----------------  -----------------  -----------------
       1        0.000786887606    -0.000255091383    -0.000234039501
       2       -0.001146511355     0.000333615324     0.000341643900
       3        0.001105509570    -0.000206027483    -0.000261827273
       4       -0.000042665179     0.000000893361     0.000048081549
       5       -0.000719988323     0.000109442539     0.000156340924
       6        0.000045079401     0.000014315712    -0.000026705998
       7       -0.000039694840    -0.000000282942    -0.000001966213
       8       -0.000002995552    -0.000009704245    -0.000001455323
       9        0.000009282636     0.000001003073     0.000021232570
      10       -0.000006791658     0.000017417334    -0.000006623613
      11        0.000001936010    -0.000010815039    -0.000027955336
      12        0.000007211200     0.000008442959    -0.000005932357
      13       -0.000000016310    -0.000007886042     0.000003346452
      14        0.000009977385     0.000009862916     0.000004593689
      15       -0.000004673918    -0.000001034030    -0.000008731296
      16        0.000004341338    -0.000003874275    -0.000007171616
      17        0.000001142406    -0.000002594680     0.000003521673
      18       -0.000002472304    -0.000000977527     0.000000711804
      19       -0.000003023695     0.000000933878     0.000002598628
      20        0.000001677629     0.000001767347    -0.000000857742
      21        0.000001337284    -0.000002029021    -0.000002248483
      22        0.000001592717    -0.000001796579     0.000001140894
      23       -0.000001599623     0.000001054944     0.000001744463
      24       -0.000005542423     0.000003363860     0.000000558205

  **** Optimization is complete! (in 5 steps) ****
    Final optimized geometry and variables:
    Molecular point group: c1

    Geometry (in Angstrom), charge = 0, multiplicity = 1:

    H           -3.806532237757    -0.283560220271    -1.477738672998
    O           -3.422893650764     0.385355194606    -0.944682800909
    C           -3.175307413081    -0.094915328701     0.354768717696
    C           -1.767468045560     0.263306170771     0.794321759477
    H           -3.318911804913    -1.171278003108     0.397277363283
    H           -3.893688797891     0.350594390586     1.035684802345
    C           -0.673633918446    -0.432771387460    -0.009402754499
    H           -1.651591377324     1.340308417241     0.716714598096
    H           -1.667375974936     0.012377618009     1.847640445796
    C            0.735070592008    -0.037444487731     0.425682499965
    H           -0.804971297509    -0.201197199370    -1.060751675775
    H           -0.789259769380    -1.510582238906     0.087979556417
    C            1.826630434820    -0.738526456397    -0.380563463518
    H            0.840294523603     1.039042214817     0.335343013475
    H            0.865699399160    -0.270017746569     1.480533242958
    C            3.256288254642    -0.434343324039     0.070685027441
    H            1.720230689034    -0.476736698664    -1.430850857902
    H            1.668212635961    -1.811943236941    -0.319318318909
    C            3.696894080897     1.012630520624    -0.137387248019
    H            3.933748128913    -1.085158098082    -0.473779651595
    H            3.364155659977    -0.696229087417     1.120089981152
    H            3.593220289652     1.305188562464    -1.177417067398
    H            4.737384778186     1.141035226006     0.138640287282
    H            3.114729455008     1.704009893223     0.459675352713

  Mulliken Charges: (a.u.)
   Center  Symbol    Alpha    Beta     Spin     Total
       1     H     0.39132  0.39132  0.00000  0.21735
       2     O     4.20683  4.20683  0.00000 -0.41367
       3     C     2.97987  2.97987  0.00000  0.04026
       4     C     3.08422  3.08422  0.00000 -0.16844
       5     H     0.47147  0.47147  0.00000  0.05706
       6     H     0.45789  0.45789  0.00000  0.08421
       7     C     3.09346  3.09346  0.00000 -0.18693
       8     H     0.45187  0.45187  0.00000  0.09627
       9     H     0.45470  0.45470  0.00000  0.09060
      10     C     3.09239  3.09239  0.00000 -0.18478
      11     H     0.44772  0.44772  0.00000  0.10456
      12     H     0.45896  0.45896  0.00000  0.08208
      13     C     3.09432  3.09432  0.00000 -0.18865
      14     H     0.45132  0.45132  0.00000  0.09735
      15     H     0.45642  0.45642  0.00000  0.08717
      16     C     3.09016  3.09016  0.00000 -0.18031
      17     H     0.45400  0.45400  0.00000  0.09201
      18     H     0.45097  0.45097  0.00000  0.09805
      19     C     3.15228  3.15228  0.00000 -0.30457
      20     H     0.44909  0.44909  0.00000  0.10181
      21     H     0.45538  0.45538  0.00000  0.08923
      22     H     0.45476  0.45476  0.00000  0.09048
      23     H     0.44701  0.44701  0.00000  0.10599
      24     H     0.45358  0.45358  0.00000  0.09284

   Total alpha = 33.00000, Total beta = 33.00000, Total charge =  0.00000

*** Psi4 exiting successfully. Buy a developer a beer!
