                              Psi4 1.0.54 Driver

  ==> Input File <==

--------------------------------------------------------------------------
set {
	reference rhf
	basis cc-pvtz
}

set_num_threads( 4 )
memory 2 gb

molecule MOL {
0 1

H	 2.107519	 -3.609980	 -0.915089
C	 2.277919	 -2.629634	 -0.486144
C	 1.020736	 -1.770555	 -0.564421
H	 2.592590	 -2.770286	 0.542563
H	 3.102416	 -2.173271	 -1.023688
C	 1.215950	 -0.382441	 0.027187
H	 0.203324	 -2.257573	 -0.044407
H	 0.713588	 -1.676119	 -1.603324
N	 0.000002	 0.398953	 -0.040851
H	 1.498637	 -0.474581	 1.071585
H	 2.052602	 0.111446	 -0.475974
C	 -1.215959	 -0.382435	 0.027143
H	 -0.000012	 1.086078	 0.683841
C	 -2.451944	 0.502410	 -0.038737
H	 -1.221867	 -1.069392	 -0.813828
H	 -1.259993	 -0.999709	 0.929424
C	 -3.752217	 -0.292550	 0.005776
H	 -2.407325	 1.093801	 -0.946480
H	 -2.431979	 1.206234	 0.790023
H	 -3.817783	 -0.982946	 -0.828547
H	 -4.612613	 0.364348	 -0.042306
H	 -3.830160	 -0.871666	 0.919868

	symmetry c1
}
set optking {
	frozen_dihedral = ("
		10 6 9 12
	")
}

ee,wfn = optimize('scf', return_wfn=True)
oeprop( wfn, 'DIPOLE', 'QUADRUPOLE', 'MULLIKEN_CHARGES')
f=open( 'psi4out.xyz', 'w' )
f.write( "22  " )
f.write( str(ee) + "\n" )
f.write( MOL.save_string_xyz() )
f.close()
--------------------------------------------------------------------------

    Molecular point group: c1
  Charge       = 0
  Multiplicity = 1
  Basis Set: CC-PVTZ
  Basis Set:
  @DF-RHF Final Energy:  -290.47593683410014
    Total Energy =                       -290.4759368341005938
    Molecular point group: c1
  Basis Set: CC-PVTZ
  Basis Set:
  Basis Set: CC-PVTZ
  Basis Set:
  @DF-RHF Final Energy:  -290.26235489537879
    Total Energy =                       -290.2623548953787918
  Basis Set: CC-PVTZ
  Basis Set:
  Basis Set: CC-PVTZ
  Basis Set:
  @DF-RHF Final Energy:  -290.39451076345244
    Total Energy =                       -290.3945107634526153
  Basis Set: CC-PVTZ
  Basis Set:
  Basis Set: CC-PVTZ
  Basis Set:
  @DF-RHF Final Energy:  -290.47267612778859
    Total Energy =                       -290.4726761277885316
  Basis Set: CC-PVTZ
  Basis Set:
  @DF-RHF Final Energy:  -290.48170559448369
    Total Energy =                       -290.4817055944835715
  @DF-RHF Final Energy:  -290.48259163405180
    Total Energy =                       -290.4825916340520280
  Basis Set: CC-PVTZ
  Basis Set:
  @DF-RHF Final Energy:  -290.48272875784363
    Total Energy =                       -290.4827287578433470
  Basis Set: CC-PVTZ
  Basis Set:
  Basis Set: CC-PVTZ
  Basis Set:
  @DF-RHF Final Energy:  -290.48274467168437
    Total Energy =                       -290.4827446716842587
  Basis Set: CC-PVTZ
  Basis Set:
  Basis Set: CC-PVTZ
  Basis Set:
  @DF-RHF Final Energy:  -290.48274571407347
    Total Energy =                       -290.4827457140735305
  Basis Set: CC-PVTZ
  Basis Set:
  Charge       = 0
  Multiplicity = 1
  Basis Set: CC-PVTZ
  Basis Set:

    Orbital Energies (a.u.)
    -----------------------

    Doubly Occupied:

       1A    -15.524063     2A    -11.236673     3A    -11.234994
       4A    -11.213330     5A    -11.211264     6A    -11.208016
       7A    -11.207050     8A     -1.200589     9A     -1.058375
      10A     -1.028855    11A     -0.929917    12A     -0.875707
      13A     -0.814200    14A     -0.779947    15A     -0.662639
      16A     -0.634953    17A     -0.621934    18A     -0.613624
      19A     -0.569595    20A     -0.556043    21A     -0.548614
      22A     -0.528841    23A     -0.504588    24A     -0.486852
      25A     -0.478523    26A     -0.473006    27A     -0.463488
      28A     -0.462209    29A     -0.349975

  @DF-RHF Final Energy:  -290.48274576972580

   => Energetics <=

    Nuclear Repulsion Energy =            318.5879786581086250
    One-Electron Energy =               -1023.1857193141548805
    Two-Electron Energy =                 414.1149948863205736
    DFT Exchange-Correlation Energy =       0.0000000000000000
    Empirical Dispersion Energy =           0.0000000000000000
    PCM Polarization Energy =               0.0000000000000000
    EFP Energy =                            0.0000000000000000
    Total Energy =                       -290.4827457697256250
    Molecular point group: c1
  Basis Set: CC-PVTZ
  Basis Set:

  -Total Gradient:
     Atom            X                  Y                   Z
    ------   -----------------  -----------------  -----------------
       1       -0.000000224475    -0.000005103094    -0.000002528504
       2        0.000002094781     0.000007474329    -0.000006859509
       3       -0.000012719443     0.000015395618     0.000022993239
       4       -0.000000114918    -0.000001983611    -0.000000613718
       5        0.000009097042    -0.000001167867     0.000002286957
       6       -0.005525654097    -0.005951542600     0.000947845556
       7       -0.000001555975    -0.000005737464    -0.000000565970
       8       -0.000011829499     0.000000638207    -0.000002593337
       9        0.000712459541     0.005291041415     0.005160136285
      10        0.004460358375     0.003543954596    -0.002210800805
      11        0.000002034678     0.000012687453    -0.000003488068
      12        0.000366224496    -0.002903984256    -0.003910324383
      13       -0.000008803641     0.000000820076     0.000016922167
      14       -0.000004425202     0.000001575050    -0.000015712597
      15        0.000008093583    -0.000006522351    -0.000002498852
      16        0.000003898581    -0.000006504325     0.000003344194
      17        0.000007740144     0.000003756920     0.000002394788
      18        0.000001522505     0.000002772284    -0.000005212403
      19       -0.000002656086     0.000001356342    -0.000000371019
      20        0.000001406619     0.000002230904    -0.000000516028
      21       -0.000001089651     0.000001311369    -0.000001073428
      22       -0.000005857360    -0.000002468996     0.000007235438

  **** Optimization is complete! (in 10 steps) ****
    Final optimized geometry and variables:
    Molecular point group: c1

    Geometry (in Angstrom), charge = 0, multiplicity = 1:

    H            2.170238902747    -3.354106844770     1.127946349747
    C            2.400866752093    -2.295950283773     1.092781013216
    C            1.245228550802    -1.504743231390     0.488476376034
    H            2.612479745180    -1.970774337736     2.105937957280
    H            3.307728031344    -2.174234888845     0.510434130268
    C            1.550880693123    -0.015067635623     0.436388316268
    H            0.347983891562    -1.688210302372     1.068539742990
    H            1.047977630486    -1.861812384828    -0.517272393413
    N            0.560221195087     0.796324617447    -0.255554932230
    H            1.751164498729     0.360517099465     1.442749962678
    H            2.489959061645     0.109467214409    -0.096465350020
    C           -0.839807587016     0.453140291516    -0.131934875753
    H            0.703021308823     1.759063649589    -0.045288717426
    C           -1.704178988521     1.461280729467    -0.876339318384
    H           -1.001985461142    -0.527951309623    -0.559933993198
    H           -1.176293071026     0.399419028158     0.908265537479
    C           -3.190619497584     1.128698098852    -0.811126636084
    H           -1.376559896923     1.502543634640    -1.909337404448
    H           -1.539173209113     2.451972844689    -0.459114982931
    H           -3.394370460811     0.157969394098    -1.250657320079
    H           -3.778255209894     1.863235855746    -1.349074849765
    H           -3.546356050607     1.108204481632     0.213573304450

  Mulliken Charges: (a.u.)
   Center  Symbol    Alpha    Beta     Spin     Total
       1     H     0.44754  0.44754  0.00000  0.10493
       2     C     3.15241  3.15241  0.00000 -0.30482
       3     C     3.09393  3.09393  0.00000 -0.18787
       4     H     0.45566  0.45566  0.00000  0.08868
       5     H     0.45377  0.45377  0.00000  0.09245
       6     C     3.02274  3.02274  0.00000 -0.04548
       7     H     0.45053  0.45053  0.00000  0.09894
       8     H     0.44929  0.44929  0.00000  0.10142
       9     N     3.64420  3.64420  0.00000 -0.28840
      10     H     0.46963  0.46963  0.00000  0.06073
      11     H     0.45915  0.45915  0.00000  0.08169
      12     C     3.02252  3.02252  0.00000 -0.04504
      13     H     0.44247  0.44247  0.00000  0.11506
      14     C     3.08370  3.08370  0.00000 -0.16739
      15     H     0.45648  0.45648  0.00000  0.08704
      16     H     0.47538  0.47538  0.00000  0.04924
      17     C     3.15330  3.15330  0.00000 -0.30660
      18     H     0.44933  0.44933  0.00000  0.10134
      19     H     0.45927  0.45927  0.00000  0.08147
      20     H     0.45500  0.45500  0.00000  0.09001
      21     H     0.44773  0.44773  0.00000  0.10455
      22     H     0.45598  0.45598  0.00000  0.08803

   Total alpha = 29.00000, Total beta = 29.00000, Total charge = -0.00000

*** Psi4 exiting successfully. Buy a developer a beer!
