  ==> Input File <==

--------------------------------------------------------------------------
set {
	reference rhf
	basis 6-31G*
}

set_num_threads( 4 )
memory 2 gb

molecule MOL {
0 1

O	 0.758599	 0.219983	 0.926513
C	 0.028650	 0.075053	 -0.000277
C	 -1.233602	 -0.752807	 0.000328
O	 0.235751	 0.636219	 -1.184381
C	 -2.501530	 0.091881	 0.000126
H	 -1.193807	 -1.406641	 -0.865785
H	 -1.193516	 -1.405779	 0.867015
H	 -2.545121	 0.729328	 -0.874513
H	 -3.377167	 -0.548497	 0.000561
H	 -2.544818	 0.730135	 0.874258
C	 1.392348	 1.442104	 -1.320112
H	 1.360633	 2.271439	 -0.628296
H	 1.383060	 1.802590	 -2.336885
H	 2.284311	 0.860447	 -1.136952

	symmetry c1
}
set optking {
	frozen_dihedral = ("
		4 2 3 6
	")
}

ee = optimize('scf')
oeprop('DIPOLE', 'QUADRUPOLE', 'MULLIKEN_CHARGES')
f=open( 'psi4out.xyz', 'w' )
f.write( "14  " )
f.write( str(ee) + "\n" )
f.write( MOL.save_string_xyz() )
f.close()
--------------------------------------------------------------------------

    Molecular point group: c1
  Charge       = 0
  Multiplicity = 1
  Basis Set: 6-31G*
  Basis Set:
  @DF-RHF Final Energy:  -305.87020561387544
    Total Energy =                       -305.8702056138755552
    Molecular point group: c1
  Basis Set: 6-31G*
  Basis Set:
  Basis Set: 6-31G*
  Basis Set:
  @DF-RHF Final Energy:  -305.87047224758442
    Total Energy =                       -305.8704722475843596
  Basis Set: 6-31G*
  Basis Set:
  Basis Set: 6-31G*
  Basis Set:
  @DF-RHF Final Energy:  -305.87062359322982
    Total Energy =                       -305.8706235932297659
  Basis Set: 6-31G*
  Basis Set:
  Basis Set: 6-31G*
  Basis Set:
  @DF-RHF Final Energy:  -305.87065090162417
    Total Energy =                       -305.8706509016240034
  Basis Set: 6-31G*
  Basis Set:
  Charge       = 0
  Multiplicity = 1
  Basis Set: 6-31G*
  Basis Set:

    Orbital Energies (a.u.)
    -----------------------

    Doubly Occupied:

       1A    -20.605079     2A    -20.544726     3A    -11.371776
       4A    -11.281448     5A    -11.237515     6A    -11.226955
       7A     -1.469639     8A     -1.362397     9A     -1.067732
      10A     -0.976244    11A     -0.884703    12A     -0.774247
      13A     -0.696587    14A     -0.679129    15A     -0.673505
      16A     -0.618390    17A     -0.591972    18A     -0.569195
      19A     -0.543761    20A     -0.518325    21A     -0.511809
      22A     -0.504896    23A     -0.455865    24A     -0.434346

  @DF-RHF Final Energy:  -305.87065126598679

   => Energetics <=

    Nuclear Repulsion Energy =            248.2464747066329664
    One-Electron Energy =                -909.0337677353511481
    Two-Electron Energy =                 354.9166417627315013
    DFT Exchange-Correlation Energy =       0.0000000000000000
    Empirical Dispersion Energy =           0.0000000000000000
    PCM Polarization Energy =               0.0000000000000000
    EFP Energy =                            0.0000000000000000
    Total Energy =                       -305.8706512659866803
    Molecular point group: c1
  Basis Set: 6-31G*
  Basis Set:

  -Total Gradient:
     Atom            X                  Y                   Z
    ------   -----------------  -----------------  -----------------
       1        0.000012979953    -0.000018449318    -0.000040042003
       2       -0.000143714392     0.000241117406     0.000104368318
       3        0.000119344126    -0.000202738712     0.000069909277
       4        0.000129387788    -0.000210409593    -0.000072668845
       5        0.000018442541     0.000002682435     0.000024769189
       6       -0.000076581391     0.000130663696    -0.000093313152
       7        0.000008193119    -0.000000552991    -0.000016601475
       8        0.000008704611    -0.000000216350     0.000020931130
       9       -0.000018437605    -0.000007546387    -0.000000219589
      10       -0.000020764796     0.000013416137    -0.000013615601
      11       -0.000091219550     0.000104686057     0.000039861071
      12        0.000029826699    -0.000006728772    -0.000023359512
      13        0.000021482373    -0.000009373954    -0.000008564495
      14        0.000002356522    -0.000036549656     0.000008545688

  **** Optimization is complete! (in 5 steps) ****
    Final optimized geometry and variables:
    Molecular point group: c1

    Geometry (in Angstrom), charge = 0, multiplicity = 1:

    O            0.969098606974    -0.111077210208     1.192729481688
    C            0.234053342593    -0.249537465045     0.268630773925
    C           -1.029070176359    -1.074080776318     0.282130578608
    O            0.430192774337     0.330926478545    -0.908737123322
    C           -2.283438268335    -0.192002255803     0.262535317039
    H           -1.024968237418    -1.724060561577    -0.585955045555
    H           -1.005352873789    -1.685977851490     1.173679520763
    H           -2.321710650261     0.411145213689    -0.636529129478
    H           -3.173683500638    -0.810071330224     0.294553191708
    H           -2.305999440372     0.470659756448     1.121294685329
    C            1.572308687891     1.158633600234    -1.034694176671
    H            1.526565492018     1.978713138221    -0.332684043947
    H            1.556998442557     1.531190709166    -2.047062103430
    H            2.473808432316     0.589815320665    -0.858319702807

  Mulliken Charges: (a.u.)
   Center  Symbol    Alpha    Beta     Spin     Total
       1     O     4.28422  4.28422  0.00000 -0.56845
       2     C     2.61666  2.61666  0.00000  0.76668
       3     C     3.19494  3.19494  0.00000 -0.38987
       4     O     4.30261  4.30261  0.00000 -0.60522
       5     C     3.25090  3.25090  0.00000 -0.50180
       6     H     0.40360  0.40360  0.00000  0.19280
       7     H     0.39843  0.39843  0.00000  0.20314
       8     H     0.40743  0.40743  0.00000  0.18513
       9     H     0.41180  0.41180  0.00000  0.17639
      10     H     0.41092  0.41092  0.00000  0.17817
      11     C     3.09232  3.09232  0.00000 -0.18465
      12     H     0.40903  0.40903  0.00000  0.18194
      13     H     0.40873  0.40873  0.00000  0.18254
      14     H     0.40841  0.40841  0.00000  0.18319

   Total alpha = 24.00000, Total beta = 24.00000, Total charge =  0.00000
