                              Psi4 1.0.54 Driver

  ==> Input File <==

--------------------------------------------------------------------------
set {
	reference rhf
	basis cc-pvtz
}

set_num_threads( 4 )
memory 2 gb

molecule MOL {
0 1

H	 2.867672	 -0.456275	 0.875795
C	 2.403497	 -0.020426	 0.000000
N	 0.989899	 -0.304564	 0.000000
H	 2.867672	 -0.456275	 -0.875795
H	 2.620366	 1.051270	 0.000000
C	 0.649415	 -1.418791	 -0.860313
C	 0.191777	 0.857976	 -0.330257
H	 0.917603	 -1.216132	 -1.901826
H	 1.202460	 -2.295578	 -0.543906
C	 -0.837641	 -1.705079	 -0.776978
H	 0.409038	 1.651727	 0.375069
H	 0.425544	 1.231881	 -1.331902
C	 -1.283520	 0.513188	 -0.260541
H	 -1.116087	 -2.474025	 -1.483955
H	 -1.085773	 -2.050928	 0.224480
O	 -1.588493	 -0.569296	 -1.089012
H	 -1.884265	 1.347690	 -0.594218
H	 -1.554725	 0.282128	 0.767641

	symmetry c1
}
set optking {
	frozen_dihedral = ("
		6 3 2 5
	")
}

ee,wfn = optimize('scf', return_wfn=True)
oeprop( wfn, 'DIPOLE', 'QUADRUPOLE', 'MULLIKEN_CHARGES')
f=open( 'psi4out.xyz', 'w' )
f.write( "18  " )
f.write( str(ee) + "\n" )
f.write( MOL.save_string_xyz() )
f.close()
--------------------------------------------------------------------------

    Molecular point group: c1
  Charge       = 0
  Multiplicity = 1
  Basis Set: CC-PVTZ
  Basis Set:
  @DF-RHF Final Energy:  -325.14011524000159
    Total Energy =                       -325.1401152400014780
    Molecular point group: c1
  Basis Set: CC-PVTZ
  Basis Set:
  Basis Set: CC-PVTZ
  Basis Set:
  @DF-RHF Final Energy:  -325.14075198188891
    Total Energy =                       -325.1407519818888545
  Basis Set: CC-PVTZ
  Basis Set:
  Basis Set: CC-PVTZ
  Basis Set:
  @DF-RHF Final Energy:  -325.14085398749802
    Total Energy =                       -325.1408539874984740
  Basis Set: CC-PVTZ
  Basis Set:
  Charge       = 0
  Multiplicity = 1
  Basis Set: CC-PVTZ
  Basis Set:

    Orbital Energies (a.u.)
    -----------------------

    Doubly Occupied:

       1A    -20.547058     2A    -15.542770     3A    -11.263706
       4A    -11.263681     5A    -11.242495     6A    -11.242336
       7A    -11.238900     8A     -1.386040     9A     -1.230433
      10A     -1.038543    11A     -0.981109    12A     -0.883228
      13A     -0.870364    14A     -0.774748    15A     -0.684550
      16A     -0.645557    17A     -0.644123    18A     -0.632100
      19A     -0.629180    20A     -0.573053    21A     -0.557767
      22A     -0.546966    23A     -0.526480    24A     -0.500221
      25A     -0.483282    26A     -0.453346    27A     -0.409972
      28A     -0.352854

  @DF-RHF Final Energy:  -325.14085607217288

   => Energetics <=

    Nuclear Repulsion Energy =            341.5500990181656675
    One-Electron Energy =               -1119.0921788333432687
    Two-Electron Energy =                 452.4012237430049481
    DFT Exchange-Correlation Energy =       0.0000000000000000
    Empirical Dispersion Energy =           0.0000000000000000
    PCM Polarization Energy =               0.0000000000000000
    EFP Energy =                            0.0000000000000000
    Total Energy =                       -325.1408560721727099
    Molecular point group: c1
  Basis Set: CC-PVTZ
  Basis Set:

  -Total Gradient:
     Atom            X                  Y                   Z
    ------   -----------------  -----------------  -----------------
       1        0.000028133130    -0.000002348925     0.000035791477
       2       -0.000217889665     0.000734549289     0.003950421438
       3        0.000587519833    -0.002526458202     0.002001389016
       4       -0.000003108600    -0.000007437157    -0.000002613988
       5        0.000074664634    -0.000086952032    -0.003812430527
       6       -0.000291779603     0.001856750447    -0.002262059620
       7       -0.000069792727    -0.000120271401     0.000082677727
       8        0.000024070741     0.000009125362    -0.000002379185
       9        0.000006654792     0.000023547500     0.000010710743
      10       -0.000007132472     0.000033019271     0.000095134996
      11       -0.000009364640    -0.000023849187    -0.000012898369
      12       -0.000027693015    -0.000006208897     0.000019822402
      13       -0.000047414952     0.000158908079    -0.000066241567
      14        0.000002661226     0.000013859669    -0.000005722377
      15       -0.000019002513    -0.000020220038     0.000008363359
      16        0.000019132684    -0.000020980185     0.000007693024
      17       -0.000083542632     0.000004735742    -0.000004312461
      18        0.000033883776    -0.000019769334    -0.000043346090

  **** Optimization is complete! (in 4 steps) ****
    Final optimized geometry and variables:
    Molecular point group: c1

    Geometry (in Angstrom), charge = 0, multiplicity = 1:

    H            2.814373820189    -0.054603566295     1.367518441934
    C            2.339600721622     0.372252377603     0.491929300682
    N            0.915355511796     0.088703397311     0.473595196992
    H            2.841986008484    -0.025110499261    -0.388617663702
    H            2.517865754710     1.439893140646     0.483183655199
    C            0.579758604134    -1.033533633895    -0.378547364265
    C            0.101840790954     1.238910961405     0.130749716443
    H            0.837837732888    -0.831244630192    -1.422281074513
    H            1.145083831194    -1.903904455380    -0.064503857932
    C           -0.902336486604    -1.339733672504    -0.282116040580
    H            0.308810430069     2.043470574876     0.826162211886
    H            0.321832282431     1.605164368374    -0.876750279473
    C           -1.369035780097     0.877814292169     0.215507172457
    H           -1.174501418202    -2.117819858086    -0.981739345010
    H           -1.138637843884    -1.681926964671     0.723515511551
    O           -1.670465381616    -0.216858421762    -0.597839310325
    H           -1.981931550089     1.702457661972    -0.121234154035
    H           -1.627563067957     0.655105665365     1.248859312544

  Mulliken Charges: (a.u.)
   Center  Symbol    Alpha    Beta     Spin     Total
       1     H     0.44852  0.44852  0.00000  0.10296
       2     C     3.09113  3.09113  0.00000 -0.18225
       3     N     3.61972  3.61972  0.00000 -0.23945
       4     H     0.46441  0.46441  0.00000  0.07118
       5     H     0.45681  0.45681  0.00000  0.08637
       6     C     3.04234  3.04234  0.00000 -0.08469
       7     C     3.04084  3.04084  0.00000 -0.08168
       8     H     0.46838  0.46838  0.00000  0.06324
       9     H     0.45352  0.45352  0.00000  0.09297
      10     C     2.98437  2.98437  0.00000  0.03127
      11     H     0.45372  0.45372  0.00000  0.09256
      12     H     0.46895  0.46895  0.00000  0.06209
      13     C     2.98462  2.98462  0.00000  0.03075
      14     H     0.45012  0.45012  0.00000  0.09977
      15     H     0.46799  0.46799  0.00000  0.06401
      16     O     4.18644  4.18644  0.00000 -0.37288
      17     H     0.44998  0.44998  0.00000  0.10005
      18     H     0.46814  0.46814  0.00000  0.06372

   Total alpha = 28.00000, Total beta = 28.00000, Total charge = -0.00000

*** Psi4 exiting successfully. Buy a developer a beer!
