  ==> Input File <==

--------------------------------------------------------------------------
set {
	reference rhf
	basis cc-pvtz
}

set_num_threads( 4 )
memory 2 gb

molecule MOL {
0 1

H	 -2.644180	 -0.653737	 1.272255
C	 -2.092774	 -0.380414	 0.391915
O	 -0.808934	 -0.154049	 0.752536
F	 -2.163230	 -1.351640	 -0.507133
F	 -2.627232	 0.691260	 -0.169301
C	 0.085006	 0.250800	 -0.215074
C	 1.370439	 -0.548013	 -0.012993
Cl	 0.421658	 1.987697	 -0.091007
H	 -0.272219	 0.063284	 -1.212508
F	 2.417324	 0.223448	 -0.160983
F	 1.433158	 -1.492982	 -0.920966
F	 1.425528	 -1.107466	 1.164390

	symmetry c1
}
set optking {
	frozen_dihedral = ("
		10 7 6 9
	")
}

ee = optimize('scf')
oeprop('DIPOLE', 'QUADRUPOLE', 'MULLIKEN_CHARGES')
f=open( 'psi4out.xyz', 'w' )
f.write( "12  " )
f.write( str(ee) + "\n" )
f.write( MOL.save_string_xyz() )
f.close()
--------------------------------------------------------------------------

    Molecular point group: c1
  Charge       = 0
  Multiplicity = 1
  Basis Set: CC-PVTZ
  Basis Set:
  @DF-RHF Final Energy: -1146.61098171029016
    Total Energy =                      -1146.6109817102901616
    Molecular point group: c1
  Basis Set: CC-PVTZ
  Basis Set:
  Basis Set: CC-PVTZ
  Basis Set:
  @DF-RHF Final Energy: -1146.61115617299629
    Total Energy =                      -1146.6111561729956065
  Basis Set: CC-PVTZ
  Basis Set:
  Basis Set: CC-PVTZ
  Basis Set:
  @DF-RHF Final Energy: -1146.61285282777635
    Total Energy =                      -1146.6128528277772602
  Basis Set: CC-PVTZ
  Basis Set:
  Basis Set: CC-PVTZ
  Basis Set:
  @DF-RHF Final Energy: -1146.61293804494994
    Total Energy =                      -1146.6129380449488053
  Basis Set: CC-PVTZ
  Basis Set:
  Basis Set: CC-PVTZ
  Basis Set:
  @DF-RHF Final Energy: -1146.61294670050961
    Total Energy =                      -1146.6129467005084734
  Basis Set: CC-PVTZ
  Basis Set:
  Basis Set: CC-PVTZ
  Basis Set:
  @DF-RHF Final Energy: -1146.61294799008670
    Total Energy =                      -1146.6129479900869228
  Basis Set: CC-PVTZ
  Basis Set:
  Charge       = 0
  Multiplicity = 1
  Basis Set: CC-PVTZ
  Basis Set:

    Orbital Energies (a.u.)
    -----------------------

    Doubly Occupied:

       1A   -104.856634     2A    -26.355552     3A    -26.353737
       4A    -26.350582     5A    -26.342716     6A    -26.342424
       7A    -20.638774     8A    -11.522172     9A    -11.482833
      10A    -11.401845    11A    -10.582234    12A     -8.049028
      13A     -8.047032    14A     -8.046964    15A     -1.768382
      16A     -1.723890    17A     -1.663112    18A     -1.659930
      19A     -1.644050    20A     -1.485092    21A     -1.176255
      22A     -1.050711    23A     -0.989939    24A     -0.923648
      25A     -0.862522    26A     -0.857001    27A     -0.853084
      28A     -0.829925    29A     -0.817929    30A     -0.795409
      31A     -0.732993    32A     -0.729552    33A     -0.711358
      34A     -0.707961    35A     -0.685316    36A     -0.679689
      37A     -0.665255    38A     -0.662811    39A     -0.650187
      40A     -0.635054    41A     -0.597837    42A     -0.579959
      43A     -0.524703    44A     -0.477130    45A     -0.469802

  @DF-RHF Final Energy: -1146.61294836693878

   => Energetics <=

    Nuclear Repulsion Energy =            736.2479102238522728
    One-Electron Energy =               -3055.7556873733838074
    Two-Electron Energy =                1172.8948287825919579
    DFT Exchange-Correlation Energy =       0.0000000000000000
    Empirical Dispersion Energy =           0.0000000000000000
    PCM Polarization Energy =               0.0000000000000000
    EFP Energy =                            0.0000000000000000
    Total Energy =                      -1146.6129483669396905
    Molecular point group: c1
  Basis Set: CC-PVTZ
  Basis Set:

  -Total Gradient:
     Atom            X                  Y                   Z
    ------   -----------------  -----------------  -----------------
       1        0.000002439686     0.000004937105     0.000004468044
       2       -0.000041656509    -0.000037132940     0.000013919679
       3        0.000023033423     0.000049431189     0.000013484983
       4        0.000010590768     0.000028601193    -0.000001337490
       5       -0.000013864528    -0.000028893831    -0.000006418683
       6        0.004088620758     0.006139437115    -0.001065312028
       7       -0.000758266588    -0.002650834371    -0.006489986066
       8        0.000031263138    -0.000001893569    -0.000001612435
       9       -0.003355577057    -0.004769127759     0.002282580117
      10        0.000043378418     0.001246232632     0.005258765119
      11       -0.000022508392    -0.000010813309    -0.000062364976
      12       -0.000007453103     0.000030056599     0.000053813737

  **** Optimization is complete! (in 7 steps) ****
    Final optimized geometry and variables:
    Molecular point group: c1

    Geometry (in Angstrom), charge = 0, multiplicity = 1:

    H           -2.650214656895    -0.667110069042     1.251665738884
    C           -2.089161581682    -0.386886466386     0.379532020464
    O           -0.813881131257    -0.148745144732     0.757857073009
    F           -2.136284285803    -1.360079025755    -0.520836045566
    F           -2.630362758936     0.677298609113    -0.190032580285
    C            0.088016910168     0.277219825728    -0.199620014972
    C            1.386208767560    -0.551469815159    -0.022567217901
    CL           0.374604525826     2.015904915594    -0.053697674793
    H           -0.293813626454     0.072069027289    -1.183353297015
    F            2.467420336533     0.155300073975    -0.205925779959
    F            1.379822434945    -1.532060211122    -0.896885899608
    F            1.459700468303    -1.076585187674     1.171463304676

  Mulliken Charges: (a.u.)
   Center  Symbol    Alpha    Beta     Spin     Total
       1     H     0.45203  0.45203  0.00000  0.09595
       2     C     2.73953  2.73953  0.00000  0.52094
       3     O     4.15177  4.15177  0.00000 -0.30354
       4     F     4.61899  4.61899  0.00000 -0.23797
       5     F     4.61534  4.61534  0.00000 -0.23069
       6     C     2.95707  2.95707  0.00000  0.08587
       7     C     2.66492  2.66492  0.00000  0.67016
       8    CL     8.56767  8.56767  0.00000 -0.13534
       9     H     0.43187  0.43187  0.00000  0.13626
      10     F     4.59672  4.59672  0.00000 -0.19344
      11     F     4.60541  4.60541  0.00000 -0.21083
      12     F     4.59868  4.59868  0.00000 -0.19737

   Total alpha = 45.00000, Total beta = 45.00000, Total charge = -0.00000
