  ==> Input File <==

--------------------------------------------------------------------------
set {
	reference rhf
	basis 6-31G*
}

set_num_threads( 1 )
memory 2 gb

molecule MOL {
0 1

H	 1.397971	 3.140649	 4.559299
C	 1.372452	 2.575811	 3.644372
C	 0.609648	 3.023871	 2.576420
C	 2.102213	 1.402434	 3.536824
H	 0.044155	 3.934039	 2.661148
C	 0.577336	 2.297060	 1.400332
H	 2.692946	 1.056669	 4.365731
C	 2.071376	 0.673245	 2.360513
H	 -0.007343	 2.628603	 0.563730
C	 1.307845	 1.119631	 1.288355
H	 2.634540	 -0.235319	 2.272887
C	 1.239129	 0.373821	 0.000060
O	 1.970282	 -0.730723	 0.000018
O	 0.596343	 0.725493	 -0.939095
C	 3.377318	 -0.566646	 -0.000065
H	 3.695437	 -0.028981	 -0.881264
H	 3.789299	 -1.563704	 0.000236
H	 3.695516	 -0.028316	 0.880770

	symmetry c1
}
set optking {
	frozen_dihedral = ("
		12 13 15 16,
		13 12 10 6
	")
}

ee = energy('scf')
oeprop('DIPOLE', 'QUADRUPOLE', 'MULLIKEN_CHARGES')
f=open( 'psi4out.xyz', 'w' )
f.write( "18  " )
f.write( str(ee) + "\n" )
f.write( MOL.save_string_xyz() )
f.close()
--------------------------------------------------------------------------

    Molecular point group: c1

    Geometry (in Angstrom), charge = 0, multiplicity = 1:

       Center              X                  Y                   Z               Mass
    ------------   -----------------  -----------------  -----------------  -----------------
           H         -0.153075712800     2.113983159611     3.256884408543     1.007825032070
           C         -0.178594712800     1.549145159611     2.341957408543    12.000000000000
           C         -0.941398712800     1.997205159612     1.274005408543    12.000000000000
           C          0.551166287200     0.375768159612     2.234409408543    12.000000000000
           H         -1.506891712800     2.907373159611     1.358733408543     1.007825032070
           C         -0.973710712800     1.270394159612     0.097917408543    12.000000000000
           H          1.141899287200     0.030003159612     3.063316408543     1.007825032070
           C          0.520329287200    -0.353420840388     1.058098408543    12.000000000000
           H         -1.558389712800     1.601937159612    -0.738684591457     1.007825032070
           C         -0.243201712800     0.092965159612    -0.014059591457    12.000000000000
           H          1.083493287200    -1.261984840388     0.970472408543     1.007825032070
           C         -0.311917712800    -0.652844840388    -1.302354591457    12.000000000000
           O          0.419235287200    -1.757388840388    -1.302396591457    15.994914619560
           O         -0.954703712800    -0.301172840388    -2.241509591457    15.994914619560
           C          1.826271287200    -1.593311840388    -1.302479591457    12.000000000000
           H          2.144390287200    -1.055646840388    -2.183678591457     1.007825032070
           H          2.238252287200    -2.590369840388    -1.302178591457     1.007825032070
           H          2.144469287200    -1.054981840388    -0.421644591457     1.007825032070

  Charge       = 0
  Multiplicity = 1
  Basis Set: 6-31G*
  Basis Set:

    Orbital Energies (a.u.)
    -----------------------

    Doubly Occupied:

       1A    -20.593307     2A    -20.552863     3A    -11.379001
       4A    -11.293678     5A    -11.252368     6A    -11.251109
       7A    -11.248282     8A    -11.246152     9A    -11.244676
      10A    -11.242131    11A     -1.467037    12A     -1.369383
      13A     -1.171010    14A     -1.046809    15A     -1.031704
      16A     -0.985910    17A     -0.873733    18A     -0.845172
      19A     -0.784215    20A     -0.740389    21A     -0.691726
      22A     -0.674738    23A     -0.669671    24A     -0.646367
      25A     -0.628682    26A     -0.611160    27A     -0.589576
      28A     -0.563541    29A     -0.537249    30A     -0.522881
      31A     -0.506810    32A     -0.490004    33A     -0.463979
      34A     -0.442360    35A     -0.349702    36A     -0.346935

  @DF-RHF Final Energy:  -457.32046697106000

   => Energetics <=

    Nuclear Repulsion Energy =            500.7417681013788524
    One-Electron Energy =               -1615.4158969149809764
    Two-Electron Energy =                 657.3536618425418965
    DFT Exchange-Correlation Energy =       0.0000000000000000
    Empirical Dispersion Energy =           0.0000000000000000
    PCM Polarization Energy =               0.0000000000000000
    EFP Energy =                            0.0000000000000000
    Total Energy =                       -457.3204669710603412

  Mulliken Charges: (a.u.)
   Center  Symbol    Alpha    Beta     Spin     Total
       1     H     0.39411  0.39411  0.00000  0.21178
       2     C     3.09051  3.09051  0.00000 -0.18102
       3     C     3.10616  3.10616  0.00000 -0.21232
       4     C     3.10711  3.10711  0.00000 -0.21422
       5     H     0.39404  0.39404  0.00000  0.21193
       6     C     3.08451  3.08451  0.00000 -0.16901
       7     H     0.39546  0.39546  0.00000  0.20908
       8     C     3.10113  3.10113  0.00000 -0.20227
       9     H     0.37470  0.37470  0.00000  0.25060
      10     C     3.07677  3.07677  0.00000 -0.15355
      11     H     0.38097  0.38097  0.00000  0.23806
      12     C     2.59032  2.59032  0.00000  0.81936
      13     O     4.31397  4.31397  0.00000 -0.62795
      14     O     4.26471  4.26471  0.00000 -0.52942
      15     C     3.10109  3.10109  0.00000 -0.20218
      16     H     0.40666  0.40666  0.00000  0.18667
      17     H     0.40059  0.40059  0.00000  0.19881
      18     H     0.41718  0.41718  0.00000  0.16565

   Total alpha = 36.00000, Total beta = 36.00000, Total charge =  0.00000
