  ==> Input File <==

--------------------------------------------------------------------------
set {
	reference rhf
	basis 6-31G*
}

set_num_threads( 4 )
memory 2 gb

molecule MOL {
0 1

H	 -3.161837	 0.500524	 -0.000234
C	 -2.367097	 -0.232926	 -0.000000
O	 -1.158440	 0.455814	 -0.000122
H	 -2.468853	 -0.861886	 -0.882833
H	 -2.468942	 -0.861421	 0.883154
C	 -1.278488	 1.826227	 0.235320
C	 0.105421	 2.451313	 0.208396
H	 -1.754139	 2.000907	 1.201313
H	 -1.915145	 2.283126	 -0.523506
C	 0.070952	 3.958338	 0.458532
H	 0.719285	 1.960870	 0.957595
H	 0.559434	 2.241198	 -0.755151
H	 -0.358193	 4.189314	 1.429567
H	 1.071004	 4.377989	 0.433357
H	 -0.519843	 4.471665	 -0.295033

	symmetry c1
}
set optking {
	frozen_dihedral = ("
		6 3 2 4
	")
}

ee = optimize('scf')
oeprop('DIPOLE', 'QUADRUPOLE', 'MULLIKEN_CHARGES')
f=open( 'psi4out.xyz', 'w' )
f.write( "15  " )
f.write( str(ee) + "\n" )
f.write( MOL.save_string_xyz() )
f.close()
--------------------------------------------------------------------------

    Molecular point group: c1
  Charge       = 0
  Multiplicity = 1
  Basis Set: 6-31G*
  Basis Set:
  @DF-RHF Final Energy:  -232.13456309777303
    Total Energy =                       -232.1345630977732526
    Molecular point group: c1
  Basis Set: 6-31G*
  Basis Set:
  Basis Set: 6-31G*
  Basis Set:
  @DF-RHF Final Energy:  -232.13545474112101
    Total Energy =                       -232.1354547411208955
  Basis Set: 6-31G*
  Basis Set:
  Basis Set: 6-31G*
  Basis Set:
  @DF-RHF Final Energy:  -232.13575698673387
    Total Energy =                       -232.1357569867338952
  Basis Set: 6-31G*
  Basis Set:
  Charge       = 0
  Multiplicity = 1
  Basis Set: 6-31G*
  Basis Set:

    Orbital Energies (a.u.)
    -----------------------

    Doubly Occupied:

       1A    -20.549560     2A    -11.266707     3A    -11.263439
       4A    -11.213686     5A    -11.212642     6A     -1.373242
       7A     -1.056841     8A     -0.955296     9A     -0.877332
      10A     -0.808729    11A     -0.671197    12A     -0.651708
      13A     -0.629256    14A     -0.607820    15A     -0.563715
      16A     -0.546071    17A     -0.501932    18A     -0.487882
      19A     -0.478860    20A     -0.460286    21A     -0.408357

  @DF-RHF Final Energy:  -232.13575918236464

   => Energetics <=

    Nuclear Repulsion Energy =            189.4161200399853726
    One-Electron Energy =                -689.9346421149205071
    Two-Electron Energy =                 268.3827628925705540
    DFT Exchange-Correlation Energy =       0.0000000000000000
    Empirical Dispersion Energy =           0.0000000000000000
    PCM Polarization Energy =               0.0000000000000000
    EFP Energy =                            0.0000000000000000
    Total Energy =                       -232.1357591823646089
    Molecular point group: c1
  Basis Set: 6-31G*
  Basis Set:

  -Total Gradient:
     Atom            X                  Y                   Z
    ------   -----------------  -----------------  -----------------
       1       -0.000043739403     0.000011008883    -0.000007552163
       2        0.000846638770    -0.001207214747     0.000482964511
       3       -0.000091395089    -0.000124990702     0.001552162262
       4       -0.000593258354     0.001205068199    -0.000759917436
       5        0.000028389694    -0.000019738522    -0.000004676689
       6       -0.000161185510     0.000206146973    -0.001245026015
       7        0.000014554452    -0.000049302198    -0.000009704563
       8        0.000004355835    -0.000026558970    -0.000017981949
       9       -0.000006119837    -0.000027097581     0.000001010413
      10       -0.000000566323     0.000018871515     0.000006249209
      11        0.000002894728     0.000003523965    -0.000004505590
      12       -0.000002624687    -0.000000977762     0.000004911715
      13       -0.000000324742     0.000003674326    -0.000001052844
      14       -0.000000092386     0.000007819885     0.000002475383
      15        0.000002472851    -0.000000233265     0.000000643756

  **** Optimization is complete! (in 4 steps) ****
    Final optimized geometry and variables:
    Molecular point group: c1

    Geometry (in Angstrom), charge = 0, multiplicity = 1:

    H           -2.285657569279    -1.261121867338    -0.185321353911
    C           -1.421557208853    -1.919543866373    -0.182248563252
    O           -0.222325682712    -1.203759799055    -0.173877668859
    H           -1.463332591279    -2.529898883172    -1.077045510972
    H           -1.484500765920    -2.562851548208     0.689949437595
    C           -0.330670018590     0.169045811589     0.061128924430
    C            1.060708391074     0.776633257879     0.029100650136
    H           -0.799201234247     0.353633145595     1.028216949472
    H           -0.961743840736     0.631965399248    -0.697573743479
    C            1.045295432854     2.285195069331     0.272688039796
    H            1.670018937047     0.281675676088     0.779020713993
    H            1.509889869724     0.556432253605    -0.934450251022
    H            0.620301143980     2.525760325904     1.243235393770
    H            2.050414481096     2.692450097011     0.244624932389
    H            0.459924165370     2.802712057708    -0.482287223137

  Mulliken Charges: (a.u.)
   Center  Symbol    Alpha    Beta     Spin     Total
       1     H     0.43028  0.43028  0.00000  0.13945
       2     C     3.07595  3.07595  0.00000 -0.15190
       3     O     4.31051  4.31051  0.00000 -0.62102
       4     H     0.41868  0.41868  0.00000  0.16264
       5     H     0.42280  0.42280  0.00000  0.15440
       6     C     2.98133  2.98133  0.00000  0.03734
       7     C     3.15995  3.15995  0.00000 -0.31989
       8     H     0.43340  0.43340  0.00000  0.13320
       9     H     0.43301  0.43301  0.00000  0.13397
      10     C     3.24794  3.24794  0.00000 -0.49588
      11     H     0.41436  0.41436  0.00000  0.17128
      12     H     0.41439  0.41439  0.00000  0.17121
      13     H     0.42095  0.42095  0.00000  0.15810
      14     H     0.41545  0.41545  0.00000  0.16910
      15     H     0.42100  0.42100  0.00000  0.15799

   Total alpha = 21.00000, Total beta = 21.00000, Total charge = -0.00000
