                              Psi4 1.0.54 Driver

  ==> Input File <==

--------------------------------------------------------------------------
set {
	reference rhf
	basis cc-pvtz
}

set_num_threads( 4 )
memory 2 gb

molecule MOL {
0 1

H	 2.828711	 -0.346904	 0.001083
C	 1.876752	 0.015931	 -0.363450
C	 0.776285	 -0.474665	 0.563092
H	 1.728113	 -0.357244	 -1.367440
H	 1.906171	 1.096574	 -0.386153
N	 -0.540022	 0.017605	 0.071630
H	 0.707111	 -1.548969	 0.573035
H	 0.886169	 -0.084184	 1.560432
O	 -1.167948	 0.707897	 0.801973
O	 -0.883305	 -0.337644	 -1.005566

	symmetry c1
}
set optking {
	frozen_dihedral = ("
		9 6 3 2
	")
}

ee,wfn = optimize('scf', return_wfn=True)
oeprop( wfn, 'DIPOLE', 'QUADRUPOLE', 'MULLIKEN_CHARGES')
f=open( 'psi4out.xyz', 'w' )
f.write( "10  " )
f.write( str(ee) + "\n" )
f.write( MOL.save_string_xyz() )
f.close()
--------------------------------------------------------------------------

    Molecular point group: c1
  Charge       = 0
  Multiplicity = 1
  Basis Set: CC-PVTZ
  Basis Set:
  @DF-RHF Final Energy:  -282.81301860201870
    Total Energy =                       -282.8130186020187011
    Molecular point group: c1
  Basis Set: CC-PVTZ
  Basis Set:
  Basis Set: CC-PVTZ
  Basis Set:
  @DF-RHF Final Energy:  -282.80628072287658
    Total Energy =                       -282.8062807228763518
  Basis Set: CC-PVTZ
  Basis Set:
  Basis Set: CC-PVTZ
  Basis Set:
  @DF-RHF Final Energy:  -282.81270902608549
    Total Energy =                       -282.8127090260854288
  Basis Set: CC-PVTZ
  Basis Set:
  Basis Set: CC-PVTZ
  Basis Set:
  @DF-RHF Final Energy:  -282.81322122490519
    Total Energy =                       -282.8132212249052486
  Basis Set: CC-PVTZ
  Basis Set:
  Basis Set: CC-PVTZ
  Basis Set:
  @DF-RHF Final Energy:  -282.81322587688885
    Total Energy =                       -282.8132258768887368
  Basis Set: CC-PVTZ
  Basis Set:
  Basis Set: CC-PVTZ
  Basis Set:
  @DF-RHF Final Energy:  -282.81322606319327
    Total Energy =                       -282.8132260631932695
  Basis Set: CC-PVTZ
  Basis Set:
  Charge       = 0
  Multiplicity = 1
  Basis Set: CC-PVTZ
  Basis Set:

    Orbital Energies (a.u.)
    -----------------------

    Doubly Occupied:

       1A    -20.594069     2A    -20.590288     3A    -15.838751
       4A    -11.302182     5A    -11.248608     6A     -1.638024
       7A     -1.422332     8A     -1.125600     9A     -0.966926
      10A     -0.838542    11A     -0.764357    12A     -0.741985
      13A     -0.730722    14A     -0.655635    15A     -0.590881
      16A     -0.562212    17A     -0.544764    18A     -0.489276
      19A     -0.479405    20A     -0.455421

  @DF-RHF Final Energy:  -282.81322664300308

   => Energetics <=

    Nuclear Repulsion Energy =            186.6617520930002172
    One-Electron Energy =                -755.7899980330180369
    Two-Electron Energy =                 286.3150192970147714
    DFT Exchange-Correlation Energy =       0.0000000000000000
    Empirical Dispersion Energy =           0.0000000000000000
    PCM Polarization Energy =               0.0000000000000000
    EFP Energy =                            0.0000000000000000
    Total Energy =                       -282.8132266430030199
    Molecular point group: c1
  Basis Set: CC-PVTZ
  Basis Set:

  -Total Gradient:
     Atom            X                  Y                   Z
    ------   -----------------  -----------------  -----------------
       1        0.000007829699     0.000005915596     0.000001382069
       2       -0.000013235060    -0.000169111857    -0.000093474794
       3       -0.000013413126     0.000141538894     0.000152279082
       4       -0.000000717388     0.000002854586     0.000002474490
       5        0.000003266569     0.000002905413    -0.000000679191
       6        0.000192513209     0.000230398270    -0.000116852471
       7        0.000015222065    -0.000008025955    -0.000004958363
       8       -0.000002892830    -0.000013144066     0.000004659713
       9       -0.000139035662    -0.000203434899     0.000039533841
      10       -0.000049537477     0.000010104015     0.000015635623

  **** Optimization is complete! (in 7 steps) ****
    Final optimized geometry and variables:
    Molecular point group: c1

    Geometry (in Angstrom), charge = 0, multiplicity = 1:

    H            2.842219532482    -0.337082642906     0.008003171982
    C            1.894828073880     0.020879212818    -0.373760168919
    C            0.787750398839    -0.457141886837     0.547398739627
    H            1.755868787341    -0.359159193643    -1.374442974202
    H            1.929421467477     1.102242751291    -0.408232195172
    N           -0.540987963336     0.021841975844     0.069778298305
    H            0.714563607947    -1.534074166407     0.552563834806
    H            0.890835782762    -0.085259690536     1.551239916718
    O           -1.170135802877     0.710287874074     0.799377177088
    O           -0.881265997004    -0.325657837480    -1.011474635871

  Mulliken Charges: (a.u.)
   Center  Symbol    Alpha    Beta     Spin     Total
       1     H     0.44853  0.44853  0.00000  0.10294
       2     C     3.14138  3.14138  0.00000 -0.28276
       3     C     3.03815  3.03815  0.00000 -0.07631
       4     H     0.43689  0.43689  0.00000  0.12623
       5     H     0.44474  0.44474  0.00000  0.11052
       6     N     3.27791  3.27791  0.00000  0.44417
       7     H     0.43724  0.43724  0.00000  0.12553
       8     H     0.43234  0.43234  0.00000  0.13531
       9     O     4.16834  4.16834  0.00000 -0.33668
      10     O     4.17447  4.17447  0.00000 -0.34895

   Total alpha = 20.00000, Total beta = 20.00000, Total charge = -0.00000

*** Psi4 exiting successfully. Buy a developer a beer!
