  ==> Input File <==

--------------------------------------------------------------------------
set {
	reference rhf
	basis cc-pvtz
}

set_num_threads( 4 )
memory 2 gb

molecule MOL {
0 1

H	 -1.096401	 0.875529	 0.191767
N	 -0.712187	 0.000026	 -0.093397
C	 0.734067	 -0.000020	 0.038424
H	 -0.983951	 -0.145126	 -1.042354
H	 1.140372	 -0.872115	 -0.458226
H	 1.140363	 0.872301	 -0.457869
H	 1.095085	 -0.000244	 1.065614

	symmetry c1
}
set optking {
	frozen_dihedral = ("
		1 2 3 7
	")
}

ee = optimize('scf')
oeprop('DIPOLE', 'QUADRUPOLE', 'MULLIKEN_CHARGES')
f=open( 'psi4out.xyz', 'w' )
f.write( "7  " )
f.write( str(ee) + "\n" )
f.write( MOL.save_string_xyz() )
f.close()
--------------------------------------------------------------------------

    Molecular point group: c1
  Charge       = 0
  Multiplicity = 1
  Basis Set: CC-PVTZ
  Basis Set:
  @DF-RHF Final Energy:   -95.25181199987564
    Total Energy =                        -95.2518119998756845
    Molecular point group: c1
  Basis Set: CC-PVTZ
  Basis Set:
  Basis Set: CC-PVTZ
  Basis Set:
  @DF-RHF Final Energy:   -95.25345385541209
    Total Energy =                        -95.2534538554120900
  Basis Set: CC-PVTZ
  Basis Set:
  Basis Set: CC-PVTZ
  Basis Set:
  @DF-RHF Final Energy:   -95.25362502635241
    Total Energy =                        -95.2536250263524096
  Basis Set: CC-PVTZ
  Basis Set:
  Charge       = 0
  Multiplicity = 1
  Basis Set: CC-PVTZ
  Basis Set:

    Orbital Energies (a.u.)
    -----------------------

    Doubly Occupied:

       1A    -15.528874     2A    -11.235557     3A     -1.172495
       4A     -0.897190     5A     -0.665216     6A     -0.603822
       7A     -0.558765     8A     -0.516561     9A     -0.387673

  @DF-RHF Final Energy:   -95.25362603327231

   => Energetics <=

    Nuclear Repulsion Energy =             42.3867203848167406
    One-Electron Energy =                -212.1483873965704561
    Two-Electron Energy =                  74.5080409784814464
    DFT Exchange-Correlation Energy =       0.0000000000000000
    Empirical Dispersion Energy =           0.0000000000000000
    PCM Polarization Energy =               0.0000000000000000
    EFP Energy =                            0.0000000000000000
    Total Energy =                        -95.2536260332722833
    Molecular point group: c1
  Basis Set: CC-PVTZ
  Basis Set:

  -Total Gradient:
     Atom            X                  Y                   Z
    ------   -----------------  -----------------  -----------------
       1        0.000073855369     0.000362377926    -0.001003415292
       2        0.000052972598    -0.000660870053     0.001284272686
       3       -0.000136063041     0.001264380930    -0.000309339885
       4        0.000076196210    -0.000014844755     0.000046782509
       5       -0.000007738036    -0.000003218564    -0.000005530287
       6       -0.000017940316     0.000036839864    -0.000011492590
       7       -0.000041282782    -0.000984665349    -0.000001277141

  **** Optimization is complete! (in 4 steps) ****
    Final optimized geometry and variables:
    Molecular point group: c1

    Geometry (in Angstrom), charge = 0, multiplicity = 1:

    H           -1.112481755274     0.826280401207     0.279020567060
    N           -0.717147271238    -0.036818430509    -0.028805743117
    C            0.732087449366    -0.006950711671     0.066274053023
    H           -1.005159401120    -0.163302743599    -0.975834974670
    H            1.137370120733    -0.903265109907    -0.386460400375
    H            1.200020992948     0.850735148770    -0.413674615158
    H            1.027705582195    -0.016118593548     1.108072712232

  Mulliken Charges: (a.u.)
   Center  Symbol    Alpha    Beta     Spin     Total
       1     H     0.42924  0.42924  0.00000  0.14152
       2     N     3.68596  3.68596  0.00000 -0.37192
       3     C     3.07148  3.07148  0.00000 -0.14297
       4     H     0.42871  0.42871  0.00000  0.14258
       5     H     0.45638  0.45638  0.00000  0.08723
       6     H     0.47207  0.47207  0.00000  0.05586
       7     H     0.45615  0.45615  0.00000  0.08769

   Total alpha =  9.00000, Total beta =  9.00000, Total charge =  0.00000
