                              Psi4 1.0.54 Driver

  ==> Input File <==

--------------------------------------------------------------------------
set {
	reference rhf
	basis cc-pvtz
}

set_num_threads( 4 )
memory 2 gb

molecule MOL {
0 1

H	 -1.506877	 -0.240338	 0.152892
N	 -0.625934	 -0.663929	 -0.000707
C	 -0.578490	 -2.091474	 -0.212742
C	 0.468494	 0.129045	 -0.002160
H	 -0.973130	 -2.624370	 0.644153
H	 0.448776	 -2.378800	 -0.358557
H	 -1.148869	 -2.373216	 -1.089856
C	 1.785715	 -0.615093	 0.000603
O	 0.413285	 1.323206	 0.000532
H	 1.866994	 -1.243310	 -0.878792
H	 2.591506	 0.100263	 0.006422
H	 1.860358	 -1.250360	 0.875522

	symmetry c1
}
set optking {
	frozen_dihedral = ("
		3 2 4 9
	")
}

ee,wfn = optimize('scf', return_wfn=True)
oeprop( wfn, 'DIPOLE', 'QUADRUPOLE', 'MULLIKEN_CHARGES')
f=open( 'psi4out.xyz', 'w' )
f.write( "12  " )
f.write( str(ee) + "\n" )
f.write( MOL.save_string_xyz() )
f.close()
--------------------------------------------------------------------------

    Molecular point group: c1
  Charge       = 0
  Multiplicity = 1
  Basis Set: CC-PVTZ
  Basis Set:
  @DF-RHF Final Energy:  -247.09105914608833
    Total Energy =                       -247.0910591460882415
    Molecular point group: c1
  Basis Set: CC-PVTZ
  Basis Set:
  Basis Set: CC-PVTZ
  Basis Set:
  @DF-RHF Final Energy:  -247.09288502452398
    Total Energy =                       -247.0928850245239801
  Basis Set: CC-PVTZ
  Basis Set:
  Basis Set: CC-PVTZ
  Basis Set:
  @DF-RHF Final Energy:  -247.09599490230349
    Total Energy =                       -247.0959949023034596
  Basis Set: CC-PVTZ
  Basis Set:
  Basis Set: CC-PVTZ
  Basis Set:
  @DF-RHF Final Energy:  -247.09639858166128
    Total Energy =                       -247.0963985816613331
  Basis Set: CC-PVTZ
  Basis Set:
  @DF-RHF Final Energy:  -247.09642709813090
    Total Energy =                       -247.0964270981309028
  @DF-RHF Final Energy:  -247.09649809593748
    Total Energy =                       -247.0964980959375907
  @DF-RHF Final Energy:  -247.09656364540288
    Total Energy =                       -247.0965636454029095
  @DF-RHF Final Energy:  -247.09508242511853
    Total Energy =                       -247.0950824251185622
  @DF-RHF Final Energy:  -247.09661057974324
    Total Energy =                       -247.0966105797434693
  @DF-RHF Final Energy:  -247.09668717792761
    Total Energy =                       -247.0966871779276630
  @DF-RHF Final Energy:  -247.09675826072586
    Total Energy =                       -247.0967582607256645
  @DF-RHF Final Energy:  -247.09695205582554
    Total Energy =                       -247.0969520558255681
  @DF-RHF Final Energy:  -247.09704714668618
    Total Energy =                       -247.0970471466860658
  @DF-RHF Final Energy:  -247.09729279948206
    Total Energy =                       -247.0972927994819202
  Basis Set: CC-PVTZ
  Basis Set:
  @DF-RHF Final Energy:  -247.09735212597994
    Total Energy =                       -247.0973521259799668
  Basis Set: CC-PVTZ
  Basis Set:
  Basis Set: CC-PVTZ
  Basis Set:
  @DF-RHF Final Energy:  -247.09735653271292
    Total Energy =                       -247.0973565327129791
  Basis Set: CC-PVTZ
  Basis Set:
  Basis Set: CC-PVTZ
  Basis Set:
  @DF-RHF Final Energy:  -247.09735845337315
    Total Energy =                       -247.0973584533732037
  Basis Set: CC-PVTZ
  Basis Set:
  Charge       = 0
  Multiplicity = 1
  Basis Set: CC-PVTZ
  Basis Set:

    Orbital Energies (a.u.)
    -----------------------

    Doubly Occupied:

       1A    -20.506055     2A    -15.573553     3A    -11.337218
       4A    -11.269322     5A    -11.228315     6A     -1.388314
       7A     -1.231610     8A     -1.006458     9A     -0.958168
      10A     -0.784049    11A     -0.676034    12A     -0.669748
      13A     -0.643302    14A     -0.586251    15A     -0.579503
      16A     -0.562532    17A     -0.557159    18A     -0.518125
      19A     -0.416320    20A     -0.388394

  @DF-RHF Final Energy:  -247.09735907957975

   => Energetics <=

    Nuclear Repulsion Energy =            181.7543288666282706
    One-Electron Energy =                -695.9425177779128262
    Two-Electron Energy =                 267.0908298317048093
    DFT Exchange-Correlation Energy =       0.0000000000000000
    Empirical Dispersion Energy =           0.0000000000000000
    PCM Polarization Energy =               0.0000000000000000
    EFP Energy =                            0.0000000000000000
    Total Energy =                       -247.0973590795797463
    Molecular point group: c1
  Basis Set: CC-PVTZ
  Basis Set:

  -Total Gradient:
     Atom            X                  Y                   Z
    ------   -----------------  -----------------  -----------------
       1       -0.000006280257    -0.000002789570    -0.000000618697
       2        0.000017007428    -0.000114026030     0.000206822495
       3       -0.000130137087     0.000119915241    -0.000233113286
       4        0.000054791866     0.000077239836     0.000128773101
       5        0.000039244223     0.000019501337    -0.000000294094
       6        0.000063147373    -0.000047636064     0.000046478091
       7       -0.000001048836    -0.000026947447     0.000006643838
       8       -0.000028676660    -0.000024065973     0.000006701823
       9       -0.000033405657     0.000003745359    -0.000173690843
      10       -0.000009032527    -0.000012374827    -0.000025137229
      11        0.000016375424     0.000023037962     0.000006084443
      12        0.000018014709    -0.000015599820     0.000031350358

  **** Optimization is complete! (in 18 steps) ****
    Final optimized geometry and variables:
    Molecular point group: c1

    Geometry (in Angstrom), charge = 0, multiplicity = 1:

    H           -1.729839792261     0.261257401697     0.210642123695
    N           -0.887471277999    -0.260536784916     0.157954354929
    C           -0.988112735726    -1.679193909776    -0.084298840435
    C            0.219612346493     0.510890730566     0.027255115941
    H           -1.951671413525    -2.018110370706     0.267580405828
    H           -0.232693036870    -2.226248048620     0.462311898395
    H           -0.905448155746    -1.935323726205    -1.135899191739
    C            1.535542026410    -0.205605289078    -0.167067723230
    O            0.153802802889     1.703363463048     0.082359514428
    H            1.513271915716    -0.827968910841    -1.053590894681
    H            2.311638531354     0.535162849473    -0.265964453864
    H            1.751583280035    -0.843501347382     0.681598331876

  Mulliken Charges: (a.u.)
   Center  Symbol    Alpha    Beta     Spin     Total
       1     H     0.41157  0.41157  0.00000  0.17687
       2     N     3.60580  3.60580  0.00000 -0.21161
       3     C     3.08635  3.08635  0.00000 -0.17270
       4     C     2.84599  2.84599  0.00000  0.30803
       5     H     0.44364  0.44364  0.00000  0.11272
       6     H     0.45321  0.45321  0.00000  0.09358
       7     H     0.45573  0.45573  0.00000  0.08853
       8     C     3.16159  3.16159  0.00000 -0.32318
       9     O     4.21043  4.21043  0.00000 -0.42085
      10     H     0.44991  0.44991  0.00000  0.10019
      11     H     0.42933  0.42933  0.00000  0.14134
      12     H     0.44647  0.44647  0.00000  0.10707

   Total alpha = 20.00000, Total beta = 20.00000, Total charge = -0.00000

*** Psi4 exiting successfully. Buy a developer a beer!
