  ==> Input File <==

--------------------------------------------------------------------------
set {
	reference rhf
	basis cc-pvtz
}

set_num_threads( 4 )
memory 2 gb

molecule MOL {
0 1

H	 3.459101	 0.139266	 -0.762951
C	 2.749156	 -0.051729	 0.031265
C	 1.322304	 0.099773	 -0.484271
H	 2.929445	 -1.053887	 0.403481
H	 2.954281	 0.646699	 0.834672
C	 0.308557	 -0.162619	 0.622645
H	 1.143368	 -0.594400	 -1.295960
H	 1.169532	 1.100095	 -0.870217
N	 -1.069352	 -0.004081	 0.085342
H	 0.371632	 -1.172932	 0.991288
H	 0.400391	 0.548875	 1.426218
O	 -1.358839	 1.054760	 -0.361457
O	 -1.794388	 -0.938253	 0.166514

	symmetry c1
}
set optking {
	frozen_dihedral = ("
		12 9 6 3
	")
}

ee = optimize('scf')
oeprop('DIPOLE', 'QUADRUPOLE', 'MULLIKEN_CHARGES')
f=open( 'psi4out.xyz', 'w' )
f.write( "13  " )
f.write( str(ee) + "\n" )
f.write( MOL.save_string_xyz() )
f.close()
--------------------------------------------------------------------------

    Molecular point group: c1
  Charge       = 0
  Multiplicity = 1
  Basis Set: CC-PVTZ
  Basis Set:
  @DF-RHF Final Energy:  -321.86099351937258
    Total Energy =                       -321.8609935193729825
    Molecular point group: c1
  Basis Set: CC-PVTZ
  Basis Set:
  Basis Set: CC-PVTZ
  Basis Set:
  @DF-RHF Final Energy:  -321.85689876939261
    Total Energy =                       -321.8568987693927284
  Basis Set: CC-PVTZ
  Basis Set:
  Basis Set: CC-PVTZ
  Basis Set:
  @DF-RHF Final Energy:  -321.86110759405869
    Total Energy =                       -321.8611075940586943
  Basis Set: CC-PVTZ
  Basis Set:
  Basis Set: CC-PVTZ
  Basis Set:
  @DF-RHF Final Energy:  -321.86125445347568
    Total Energy =                       -321.8612544534757376
  Basis Set: CC-PVTZ
  Basis Set:
  Basis Set: CC-PVTZ
  Basis Set:
  @DF-RHF Final Energy:  -321.86125646279129
    Total Energy =                       -321.8612564627910615
  Basis Set: CC-PVTZ
  Basis Set:
  Charge       = 0
  Multiplicity = 1
  Basis Set: CC-PVTZ
  Basis Set:

    Orbital Energies (a.u.)
    -----------------------

    Doubly Occupied:

       1A    -20.592509     2A    -20.588996     3A    -15.837413
       4A    -11.297742     5A    -11.251930     6A    -11.236437
       7A     -1.636448     8A     -1.420646     9A     -1.133313
      10A     -1.027573    11A     -0.884355    12A     -0.832298
      13A     -0.762709    14A     -0.741299    15A     -0.728896
      16A     -0.669667    17A     -0.604700    18A     -0.585581
      19A     -0.551297    20A     -0.521707    21A     -0.511960
      22A     -0.487657    23A     -0.474686    24A     -0.453802

  @DF-RHF Final Energy:  -321.86125738910619

   => Energetics <=

    Nuclear Repulsion Energy =            247.8480957195417886
    One-Electron Energy =                -929.7514671342161137
    Two-Electron Energy =                 360.0421140255684804
    DFT Exchange-Correlation Energy =       0.0000000000000000
    Empirical Dispersion Energy =           0.0000000000000000
    PCM Polarization Energy =               0.0000000000000000
    EFP Energy =                            0.0000000000000000
    Total Energy =                       -321.8612573891058446
    Molecular point group: c1
  Basis Set: CC-PVTZ
  Basis Set:

  -Total Gradient:
     Atom            X                  Y                   Z
    ------   -----------------  -----------------  -----------------
       1        0.000005892220    -0.000001830980    -0.000000917885
       2       -0.000011028832    -0.000005900203    -0.000002951999
       3        0.000010764966     0.000385040977     0.000091613587
       4       -0.000000434503     0.000002250791     0.000002283518
       5       -0.000000074449    -0.000000514578    -0.000003580937
       6        0.000025517786    -0.000581053696    -0.000278155386
       7       -0.000003275560     0.000003037731     0.000014859096
       8       -0.000001131215     0.000012512115    -0.000007255535
       9       -0.000171150225     0.000452981541     0.000630941979
      10       -0.000001818112    -0.000005644805     0.000000693756
      11        0.000013937177     0.000002281355    -0.000009918951
      12        0.000170169493    -0.000214152671    -0.000442506250
      13       -0.000037368753    -0.000049007574     0.000004895007

  **** Optimization is complete! (in 6 steps) ****
    Final optimized geometry and variables:
    Molecular point group: c1

    Geometry (in Angstrom), charge = 0, multiplicity = 1:

    H            3.474493259553     0.132242822145    -0.768139105334
    C            2.758568503692    -0.055495979980     0.021447415791
    C            1.335782695661     0.113026689203    -0.501126220124
    H            2.929285492025    -1.060069545259     0.391712708414
    H            2.966025296977     0.638514941814     0.828384217001
    C            0.318482654437    -0.152091038523     0.598484842371
    H            1.159005459807    -0.575266683698    -1.320175500056
    H            1.190717759182     1.113482423853    -0.883240402879
    N           -1.072693877541    -0.006820790367     0.085858711542
    H            0.385068649816    -1.151280258847     0.992401727882
    H            0.405308576696     0.570624334804     1.396515905752
    O           -1.377517132311     1.050806846309    -0.355129485579
    O           -1.782286504898    -0.952989261405     0.150664121548

  Mulliken Charges: (a.u.)
   Center  Symbol    Alpha    Beta     Spin     Total
       1     H     0.44157  0.44157  0.00000  0.11686
       2     C     3.15133  3.15133  0.00000 -0.30266
       3     C     3.09617  3.09617  0.00000 -0.19235
       4     H     0.45197  0.45197  0.00000  0.09605
       5     H     0.45206  0.45206  0.00000  0.09589
       6     C     3.04011  3.04011  0.00000 -0.08022
       7     H     0.44283  0.44283  0.00000  0.11435
       8     H     0.43359  0.43359  0.00000  0.13283
       9     N     3.27683  3.27683  0.00000  0.44634
      10     H     0.43266  0.43266  0.00000  0.13468
      11     H     0.43716  0.43716  0.00000  0.12568
      12     O     4.17463  4.17463  0.00000 -0.34925
      13     O     4.16909  4.16909  0.00000 -0.33819

   Total alpha = 24.00000, Total beta = 24.00000, Total charge = -0.00000
