                              Psi4 1.0.54 Driver

  ==> Input File <==

--------------------------------------------------------------------------
set {
	reference rhf
	basis cc-pvtz
}

set_num_threads( 4 )
memory 2 gb

molecule MOL {
0 1

H	 -3.436473	 1.252944	 -1.023892
O	 -3.458596	 0.315260	 -0.960865
C	 -3.176635	 -0.080824	 0.355601
C	 -1.763371	 0.265266	 0.799691
H	 -3.321825	 -1.153438	 0.379502
H	 -3.895468	 0.357385	 1.043382
C	 -0.673390	 -0.426948	 -0.013392
H	 -1.631049	 1.344913	 0.747560
H	 -1.664587	 -0.001624	 1.849167
C	 0.737842	 -0.043159	 0.423759
H	 -0.806103	 -0.190518	 -1.063345
H	 -0.797221	 -1.503753	 0.074146
C	 1.366549	 -1.065221	 1.368833
H	 1.359182	 0.077456	 -0.458442
H	 0.712516	 0.927794	 0.914132
C	 2.750284	 -0.685821	 1.899099
H	 1.427898	 -2.027770	 0.866255
H	 0.701406	 -1.209115	 2.215886
C	 3.848338	 -0.635868	 0.839417
H	 3.035033	 -1.405880	 2.660157
H	 2.690332	 0.276391	 2.401068
H	 3.927515	 -1.583546	 0.316240
H	 4.811012	 -0.428819	 1.292883
H	 3.664906	 0.135096	 0.100788

	symmetry c1
}
set optking {
	frozen_dihedral = ("
		13 10 7 11
	")
}

ee,wfn = optimize('scf', return_wfn=True)
oeprop( wfn, 'DIPOLE', 'QUADRUPOLE', 'MULLIKEN_CHARGES')
f=open( 'psi4out.xyz', 'w' )
f.write( "24  " )
f.write( str(ee) + "\n" )
f.write( MOL.save_string_xyz() )
f.close()
--------------------------------------------------------------------------

    Molecular point group: c1
  Charge       = 0
  Multiplicity = 1
  Basis Set: CC-PVTZ
  Basis Set:
  @DF-RHF Final Energy:  -349.37602974194755
    Total Energy =                       -349.3760297419475478
    Molecular point group: c1
  Basis Set: CC-PVTZ
  Basis Set:
  Basis Set: CC-PVTZ
  Basis Set:
  @DF-RHF Final Energy:  -349.37631021825240
    Total Energy =                       -349.3763102182523426
  Basis Set: CC-PVTZ
  Basis Set:
  Basis Set: CC-PVTZ
  Basis Set:
  @DF-RHF Final Energy:  -349.37636517823358
    Total Energy =                       -349.3763651782337547
  Basis Set: CC-PVTZ
  Basis Set:
  Basis Set: CC-PVTZ
  Basis Set:
  @DF-RHF Final Energy:  -349.37635970054328
    Total Energy =                       -349.3763597005436736
  Basis Set: CC-PVTZ
  Basis Set:
  Basis Set: CC-PVTZ
  Basis Set:
  @DF-RHF Final Energy:  -349.37637304705623
    Total Energy =                       -349.3763730470565747
  Basis Set: CC-PVTZ
  Basis Set:
  Charge       = 0
  Multiplicity = 1
  Basis Set: CC-PVTZ
  Basis Set:

    Orbital Energies (a.u.)
    -----------------------

    Doubly Occupied:

       1A    -20.546149     2A    -11.265391     3A    -11.215625
       4A    -11.212596     5A    -11.210900     6A    -11.209869
       7A    -11.208906     8A    -11.205404     9A     -1.364006
      10A     -1.089335    11A     -1.048642    12A     -0.985568
      13A     -0.916352    14A     -0.853507    15A     -0.803603
      16A     -0.775683    17A     -0.682444    18A     -0.647344
      19A     -0.627887    20A     -0.620354    21A     -0.595670
      22A     -0.586167    23A     -0.568967    24A     -0.535686
      25A     -0.522021    26A     -0.511365    27A     -0.492562
      28A     -0.484552    29A     -0.466545    30A     -0.459931
      31A     -0.457492    32A     -0.438762    33A     -0.424722

  @DF-RHF Final Energy:  -349.37637309610790

   => Energetics <=

    Nuclear Repulsion Energy =            386.1671478503146204
    One-Electron Energy =               -1239.0190277396334295
    Two-Electron Energy =                 503.4755067932111388
    DFT Exchange-Correlation Energy =       0.0000000000000000
    Empirical Dispersion Energy =           0.0000000000000000
    PCM Polarization Energy =               0.0000000000000000
    EFP Energy =                            0.0000000000000000
    Total Energy =                       -349.3763730961076135
    Molecular point group: c1
  Basis Set: CC-PVTZ
  Basis Set:

  -Total Gradient:
     Atom            X                  Y                   Z
    ------   -----------------  -----------------  -----------------
       1        0.000000191344     0.000000099124     0.000003727793
       2        0.000016236113    -0.000016070814    -0.000021027297
       3       -0.000013068047     0.000039271999     0.000013780647
       4       -0.000003794220    -0.000030832105     0.000005175407
       5        0.000005809791     0.000003615432    -0.000000842334
       6       -0.000006450207    -0.000001971306     0.000007533815
       7       -0.000851661969     0.003285777253     0.000303086980
       8       -0.000003897302    -0.000010959342    -0.000004695958
       9        0.000003364746    -0.000004057589     0.000001136728
      10       -0.000947559813     0.000901532930     0.002364014469
      11        0.000948742717    -0.002998364550    -0.000831320139
      12       -0.000006372359     0.000005303186     0.000010859514
      13        0.000849378767    -0.001178241227    -0.001857291455
      14        0.000004782586     0.000001080415    -0.000000032177
      15        0.000001902955    -0.000006853185     0.000003788802
      16       -0.000001490875     0.000005810761     0.000010024151
      17        0.000001649503     0.000003406375    -0.000004065683
      18       -0.000000407280     0.000002542726    -0.000003719733
      19       -0.000001998827     0.000000828980    -0.000004272305
      20       -0.000000855379     0.000000252984     0.000000049571
      21        0.000001961691     0.000000674639     0.000003251280
      22        0.000001379069    -0.000002705486    -0.000000662552
      23       -0.000000993166     0.000001090056     0.000000426323
      24        0.000003150159    -0.000001231257     0.000001074152

  **** Optimization is complete! (in 6 steps) ****
    Final optimized geometry and variables:
    Molecular point group: c1

    Geometry (in Angstrom), charge = 0, multiplicity = 1:

    H           -3.374827980334     1.500250926603    -1.587483216399
    O           -3.390886051640     0.565116398787    -1.492760732641
    C           -3.070549192062     0.214206279657    -0.172367749649
    C           -1.650092316318     0.587886394549     0.222845135530
    H           -3.203620290475    -0.858457149355    -0.111049120828
    H           -3.775805061396     0.667008592920     0.520135903044
    C           -0.573358599099    -0.102122572717    -0.610238558139
    H           -1.533308230835     1.667718424135     0.146734384740
    H           -1.518045301196     0.342687735276     1.273998757526
    C            0.861264201665     0.231392571017    -0.166952181643
    H           -0.708666220985     0.139582651696    -1.656715480319
    H           -0.721739400156    -1.177505040534    -0.547142648772
    C            1.460582588768    -0.813528998979     0.775012128947
    H            1.491912519750     0.317023881561    -1.044234919148
    H            0.880925096596     1.206696187493     0.312928919574
    C            2.831638237494    -0.453429445722     1.349176895404
    H            1.530310056815    -1.762254871333     0.248524366360
    H            0.775466440575    -0.978003505214     1.602884445567
    C            3.951929195310    -0.361398568470     0.315754023402
    H            3.101443912687    -1.201676742583     2.088291630442
    H            2.758966797864     0.488949479732     1.885910665466
    H            4.041246884622    -1.286418352857    -0.245000125559
    H            4.904913308149    -0.175471212888     0.797871320680
    H            3.784794894271     0.440053859535    -0.393591246084

  Mulliken Charges: (a.u.)
   Center  Symbol    Alpha    Beta     Spin     Total
       1     H     0.39519  0.39519  0.00000  0.20961
       2     O     4.20387  4.20387  0.00000 -0.40774
       3     C     2.97789  2.97789  0.00000  0.04423
       4     C     3.09890  3.09890  0.00000 -0.19779
       5     H     0.45839  0.45839  0.00000  0.08323
       6     H     0.46060  0.46060  0.00000  0.07880
       7     C     3.09673  3.09673  0.00000 -0.19346
       8     H     0.45830  0.45830  0.00000  0.08339
       9     H     0.45336  0.45336  0.00000  0.09328
      10     C     3.10388  3.10388  0.00000 -0.20776
      11     H     0.43982  0.43982  0.00000  0.12036
      12     H     0.45554  0.45554  0.00000  0.08893
      13     C     3.09236  3.09236  0.00000 -0.18472
      14     H     0.44408  0.44408  0.00000  0.11184
      15     H     0.45555  0.45555  0.00000  0.08890
      16     C     3.09038  3.09038  0.00000 -0.18075
      17     H     0.45310  0.45310  0.00000  0.09381
      18     H     0.45023  0.45023  0.00000  0.09955
      19     C     3.15288  3.15288  0.00000 -0.30576
      20     H     0.44900  0.44900  0.00000  0.10199
      21     H     0.45496  0.45496  0.00000  0.09009
      22     H     0.45473  0.45473  0.00000  0.09053
      23     H     0.44667  0.44667  0.00000  0.10667
      24     H     0.45361  0.45361  0.00000  0.09278

   Total alpha = 33.00000, Total beta = 33.00000, Total charge =  0.00000

*** Psi4 exiting successfully. Buy a developer a beer!
