  ==> Input File <==

--------------------------------------------------------------------------
set {
	reference rhf
	basis 6-31G*
}

set_num_threads( 1 )
memory 2 gb

molecule MOL {
0 1

O	 3.225979	 0.970355	 -0.599647
C	 2.701189	 0.057885	 -0.047330
C	 1.245376	 -0.013843	 0.345420
O	 3.347903	 -1.046386	 0.304773
C	 1.032243	 -0.033552	 1.857472
H	 0.747076	 0.827500	 -0.124719
H	 0.828689	 -0.903488	 -0.119986
C	 -0.432294	 -0.211816	 2.272017
H	 1.427354	 0.882015	 2.287290
H	 1.621500	 -0.840631	 2.279160
C	 -1.353918	 0.954256	 1.903241
H	 -0.462589	 -0.350945	 3.350186
H	 -0.822449	 -1.131493	 1.838447
C	 -2.777990	 0.777978	 2.434224
H	 -0.935401	 1.879278	 2.296938
H	 -1.394277	 1.072726	 0.822821
C	 -3.709235	 1.934807	 2.067261
H	 -2.747546	 0.671989	 3.517310
H	 -3.193192	 -0.152226	 2.049482
C	 -5.128372	 1.752864	 2.604519
H	 -3.295315	 2.865262	 2.450102
H	 -3.744374	 2.039540	 0.984867
H	 -5.764164	 2.588333	 2.328173
H	 -5.130831	 1.679873	 3.688430
H	 -5.583024	 0.847459	 2.212336
C	 4.728119	 -1.109107	 -0.004993
H	 4.882018	 -1.033965	 -1.071845
H	 5.068212	 -2.067527	 0.355250
H	 5.265056	 -0.311663	 0.488280

	symmetry c1
}
set optking {
	frozen_dihedral = ("
		21 17 14 11,
		17 14 11 15,
		15 11 8 5,
		6 3 5 9,
		11 8 5 9,
		2 4 26 27,
		1 2 4 26
	")
}

ee = energy('scf')
oeprop('DIPOLE', 'QUADRUPOLE', 'MULLIKEN_CHARGES')
f=open( 'psi4out.xyz', 'w' )
f.write( "29  " )
f.write( str(ee) + "\n" )
f.write( MOL.save_string_xyz() )
f.close()
--------------------------------------------------------------------------

    Molecular point group: c1

    Geometry (in Angstrom), charge = 0, multiplicity = 1:

       Center              X                  Y                   Z               Mass
    ------------   -----------------  -----------------  -----------------  -----------------
           O          2.925763445980     0.611622653269    -1.777975488803    15.994914619560
           C          2.400973445980    -0.300847346731    -1.225658488803    12.000000000000
           C          0.945160445980    -0.372575346731    -0.832908488803    12.000000000000
           O          3.047687445980    -1.405118346731    -0.873555488803    15.994914619560
           C          0.732027445980    -0.392284346731     0.679143511197    12.000000000000
           H          0.446860445980     0.468767653269    -1.303047488803     1.007825032070
           H          0.528473445980    -1.262220346731    -1.298314488803     1.007825032070
           C         -0.732509554020    -0.570548346731     1.093688511197    12.000000000000
           H          1.127138445980     0.523282653269     1.108961511197     1.007825032070
           H          1.321284445980    -1.199363346731     1.100831511197     1.007825032070
           C         -1.654133554020     0.595523653269     0.724912511197    12.000000000000
           H         -0.762804554020    -0.709677346731     2.171857511197     1.007825032070
           H         -1.122664554020    -1.490225346731     0.660118511197     1.007825032070
           C         -3.078205554020     0.419245653269     1.255895511197    12.000000000000
           H         -1.235616554020     1.520545653269     1.118609511197     1.007825032070
           H         -1.694492554020     0.713993653269    -0.355507488803     1.007825032070
           C         -4.009450554020     1.576074653269     0.888932511197    12.000000000000
           H         -3.047761554020     0.313256653269     2.338981511197     1.007825032070
           H         -3.493407554020    -0.510958346731     0.871153511197     1.007825032070
           C         -5.428587554020     1.394131653269     1.426190511197    12.000000000000
           H         -3.595530554020     2.506529653269     1.271773511197     1.007825032070
           H         -4.044589554020     1.680807653269    -0.193461488803     1.007825032070
           H         -6.064379554020     2.229600653269     1.149844511197     1.007825032070
           H         -5.431046554020     1.321140653269     2.510101511197     1.007825032070
           H         -5.883239554020     0.488726653269     1.034007511197     1.007825032070
           C          4.427903445980    -1.467839346731    -1.183321488803    12.000000000000
           H          4.581802445980    -1.392697346731    -2.250173488803     1.007825032070
           H          4.767996445980    -2.426259346731    -0.823078488803     1.007825032070
           H          4.964840445980    -0.670395346731    -0.690048488803     1.007825032070

  Charge       = 0
  Multiplicity = 1
  Basis Set: 6-31G*
  Basis Set:

    Orbital Energies (a.u.)
    -----------------------

    Doubly Occupied:

       1A    -20.603722     2A    -20.543868     3A    -11.370746
       4A    -11.280569     5A    -11.232968     6A    -11.227914
       7A    -11.221622     8A    -11.217289     9A    -11.216308
      10A    -11.215466    11A    -11.209365    12A     -1.468620
      13A     -1.361301    14A     -1.101319    15A     -1.068923
      16A     -1.019643    17A     -0.974506    18A     -0.930863
      19A     -0.864983    20A     -0.800402    21A     -0.791263
      22A     -0.772614    23A     -0.697575    24A     -0.678381
      25A     -0.673183    26A     -0.652053    27A     -0.625193
      28A     -0.603993    29A     -0.595845    30A     -0.579483
      31A     -0.565210    32A     -0.552602    33A     -0.539705
      34A     -0.529407    35A     -0.518722    36A     -0.515410
      37A     -0.496577    38A     -0.482952    39A     -0.472461
      40A     -0.464549    41A     -0.463152    42A     -0.455743
      43A     -0.443372    44A     -0.427141

  @DF-RHF Final Energy:  -501.04250132862308

   => Energetics <=

    Nuclear Repulsion Energy =            611.8324479233635884
    One-Electron Energy =               -1894.6955133912715610
    Two-Electron Energy =                 781.8205641392852385
    DFT Exchange-Correlation Energy =       0.0000000000000000
    Empirical Dispersion Energy =           0.0000000000000000
    PCM Polarization Energy =               0.0000000000000000
    EFP Energy =                            0.0000000000000000
    Total Energy =                       -501.0425013286227340

  Mulliken Charges: (a.u.)
   Center  Symbol    Alpha    Beta     Spin     Total
       1     O     4.28463  4.28463  0.00000 -0.56926
       2     C     2.61623  2.61623  0.00000  0.76753
       3     C     3.19832  3.19832  0.00000 -0.39665
       4     O     4.30203  4.30203  0.00000 -0.60405
       5     C     3.16559  3.16559  0.00000 -0.33119
       6     H     0.39784  0.39784  0.00000  0.20431
       7     H     0.40545  0.40545  0.00000  0.18909
       8     C     3.15546  3.15546  0.00000 -0.31093
       9     H     0.41391  0.41391  0.00000  0.17218
      10     H     0.40594  0.40594  0.00000  0.18812
      11     C     3.15505  3.15505  0.00000 -0.31010
      12     H     0.41849  0.41849  0.00000  0.16303
      13     H     0.42159  0.42159  0.00000  0.15681
      14     C     3.15066  3.15066  0.00000 -0.30133
      15     H     0.42187  0.42187  0.00000  0.15626
      16     H     0.42160  0.42160  0.00000  0.15680
      17     C     3.15160  3.15160  0.00000 -0.30319
      18     H     0.42369  0.42369  0.00000  0.15263
      19     H     0.42390  0.42390  0.00000  0.15219
      20     C     3.23943  3.23943  0.00000 -0.47885
      21     H     0.42244  0.42244  0.00000  0.15511
      22     H     0.42273  0.42273  0.00000  0.15454
      23     H     0.41889  0.41889  0.00000  0.16222
      24     H     0.42173  0.42173  0.00000  0.15653
      25     H     0.42182  0.42182  0.00000  0.15637
      26     C     3.09230  3.09230  0.00000 -0.18460
      27     H     0.40883  0.40883  0.00000  0.18233
      28     H     0.40892  0.40892  0.00000  0.18217
      29     H     0.40904  0.40904  0.00000  0.18193

   Total alpha = 44.00000, Total beta = 44.00000, Total charge = -0.00000
