                              Psi4 1.0.54 Driver

  ==> Input File <==

--------------------------------------------------------------------------
set {
	reference rhf
	basis cc-pvtz
}

set_num_threads( 4 )
memory 2 gb

molecule MOL {
0 1

H	 -3.144994	 -1.202467	 -0.018751
O	 -2.321472	 -0.864941	 -0.318626
C	 -2.021813	 0.336996	 0.342658
C	 -0.669613	 0.837286	 -0.127252
H	 -2.780861	 1.084746	 0.127159
H	 -2.006390	 0.184138	 1.420053
C	 0.490865	 -0.082543	 0.241244
H	 -0.708709	 0.967192	 -1.204587
H	 -0.507562	 1.822272	 0.303070
C	 0.652618	 -1.255066	 -0.721892
H	 0.342799	 -0.457324	 1.247560
H	 1.412817	 0.495199	 0.259695
C	 1.817002	 -2.170573	 -0.358792
H	 -0.267141	 -1.833380	 -0.739124
H	 0.793317	 -0.877590	 -1.731549
H	 1.687671	 -2.591941	 0.632489
H	 1.904145	 -2.993319	 -1.059362
H	 2.757489	 -1.629390	 -0.365950

	symmetry c1
}
set optking {
	frozen_dihedral = ("
		10 7 4 8
	")
}

ee,wfn = optimize('scf', return_wfn=True)
oeprop( wfn, 'DIPOLE', 'QUADRUPOLE', 'MULLIKEN_CHARGES')
f=open( 'psi4out.xyz', 'w' )
f.write( "18  " )
f.write( str(ee) + "\n" )
f.write( MOL.save_string_xyz() )
f.close()
--------------------------------------------------------------------------

    Molecular point group: c1
  Charge       = 0
  Multiplicity = 1
  Basis Set: CC-PVTZ
  Basis Set:
  @DF-RHF Final Energy:  -271.28264682069778
    Total Energy =                       -271.2826468206978916
    Molecular point group: c1
  Basis Set: CC-PVTZ
  Basis Set:
  Basis Set: CC-PVTZ
  Basis Set:
  @DF-RHF Final Energy:  -271.28364027853149
    Total Energy =                       -271.2836402785317773
  Basis Set: CC-PVTZ
  Basis Set:
  Basis Set: CC-PVTZ
  Basis Set:
  @DF-RHF Final Energy:  -271.28379455189395
    Total Energy =                       -271.2837945518938341
  Basis Set: CC-PVTZ
  Basis Set:
  Basis Set: CC-PVTZ
  Basis Set:
  @DF-RHF Final Energy:  -271.28380640902310
    Total Energy =                       -271.2838064090235548
  Basis Set: CC-PVTZ
  Basis Set:
  Basis Set: CC-PVTZ
  Basis Set:
  @DF-RHF Final Energy:  -271.28380770651648
    Total Energy =                       -271.2838077065164839
  Basis Set: CC-PVTZ
  Basis Set:
  Charge       = 0
  Multiplicity = 1
  Basis Set: CC-PVTZ
  Basis Set:

    Orbital Energies (a.u.)
    -----------------------

    Doubly Occupied:

       1A    -20.547674     2A    -11.266934     3A    -11.211888
       4A    -11.207412     5A    -11.199938     6A    -11.198465
       7A     -1.365579     8A     -1.072815     9A     -1.007673
      10A     -0.913436    11A     -0.822881    12A     -0.777018
      13A     -0.706978    14A     -0.650015    15A     -0.617278
      16A     -0.577346    17A     -0.572577    18A     -0.557880
      19A     -0.527063    20A     -0.507095    21A     -0.486948
      22A     -0.462370    23A     -0.453160    24A     -0.447191
      25A     -0.429948

  @DF-RHF Final Energy:  -271.28380778477458

   => Energetics <=

    Nuclear Repulsion Energy =            254.0448547037705964
    One-Electron Energy =                -871.4821945387138840
    Two-Electron Energy =                 346.1535320501687920
    DFT Exchange-Correlation Energy =       0.0000000000000000
    Empirical Dispersion Energy =           0.0000000000000000
    PCM Polarization Energy =               0.0000000000000000
    EFP Energy =                            0.0000000000000000
    Total Energy =                       -271.2838077847744671
    Molecular point group: c1
  Basis Set: CC-PVTZ
  Basis Set:

  -Total Gradient:
     Atom            X                  Y                   Z
    ------   -----------------  -----------------  -----------------
       1       -0.000004426053     0.000006384767     0.000001154977
       2        0.000008543125     0.000006732428    -0.000003178289
       3       -0.000006056023    -0.000014967824     0.000008615047
       4        0.000580775825     0.000750664269    -0.000022096373
       5        0.000001618916     0.000000488084     0.000000397276
       6       -0.000001392902     0.000002481299     0.000008843088
       7       -0.000492804417    -0.000543387057     0.000347529857
       8       -0.000364115861    -0.000511084029    -0.000094907285
       9        0.000000900531    -0.000003392691    -0.000001095997
      10        0.000299473145     0.000294915887    -0.000255314587
      11       -0.000002571357     0.000000181387     0.000002466822
      12        0.000002842358     0.000001933203     0.000003838309
      13       -0.000006309803     0.000003239743     0.000008321939
      14       -0.000006947650    -0.000006152512     0.000006898447
      15       -0.000008172114     0.000003700774    -0.000014689012
      16       -0.000000860408    -0.000006833643     0.000005763513
      17       -0.000004449645     0.000009060229    -0.000001874305
      18        0.000003952324     0.000006035688    -0.000000673426

  **** Optimization is complete! (in 6 steps) ****
    Final optimized geometry and variables:
    Molecular point group: c1

    Geometry (in Angstrom), charge = 0, multiplicity = 1:

    H           -2.867306009868    -0.635106409139     0.033962447098
    O           -2.021773744583    -0.321483698523    -0.228555483029
    C           -1.694472689205     0.837787825779     0.492963652923
    C           -0.330005085032     1.352686838836     0.071134873277
    H           -2.436276779788     1.611814114652     0.311746645169
    H           -1.691528621297     0.630003237895     1.561195273870
    C            0.858579594650     0.448840280989     0.420329082632
    H           -0.349072453412     1.545108451629    -0.997304111775
    H           -0.197335132766     2.313566807105     0.559709138967
    C            1.133900719716    -0.680740732915    -0.571395229914
    H            0.713108133116     0.032412858581     1.414567859842
    H            1.749146776288     1.068477281685     0.483621235914
    C            2.351426004622    -1.514050033547    -0.184532180703
    H            0.263566262105    -1.317737596478    -0.651247238337
    H            1.291989646534    -0.251495329090    -1.557345561256
    H            2.212338864151    -1.985090182527     0.783336934392
    H            2.534584363309    -2.299590003298    -0.908939288962
    H            3.246763116819    -0.903056887281    -0.126674674960

  Mulliken Charges: (a.u.)
   Center  Symbol    Alpha    Beta     Spin     Total
       1     H     0.39692  0.39692  0.00000  0.20616
       2     O     4.19551  4.19551  0.00000 -0.39101
       3     C     2.97147  2.97147  0.00000  0.05707
       4     C     3.09988  3.09988  0.00000 -0.19975
       5     H     0.46548  0.46548  0.00000  0.06904
       6     H     0.47470  0.47470  0.00000  0.05060
       7     C     3.09043  3.09043  0.00000 -0.18087
       8     H     0.45225  0.45225  0.00000  0.09551
       9     H     0.44724  0.44724  0.00000  0.10551
      10     C     3.08042  3.08042  0.00000 -0.16083
      11     H     0.45802  0.45802  0.00000  0.08395
      12     H     0.45094  0.45094  0.00000  0.09813
      13     C     3.15058  3.15058  0.00000 -0.30116
      14     H     0.44402  0.44402  0.00000  0.11196
      15     H     0.45880  0.45880  0.00000  0.08239
      16     H     0.45653  0.45653  0.00000  0.08694
      17     H     0.44924  0.44924  0.00000  0.10152
      18     H     0.45759  0.45759  0.00000  0.08482

   Total alpha = 25.00000, Total beta = 25.00000, Total charge =  0.00000

*** Psi4 exiting successfully. Buy a developer a beer!
