  ==> Input File <==

--------------------------------------------------------------------------
set {
	reference rhf
	basis cc-pvtz
}

set_num_threads( 4 )
memory 2 gb

molecule MOL {
0 1

H	 2.341977	 -1.816528	 1.560757
O	 2.686225	 -1.027477	 1.181793
C	 1.715972	 -0.290286	 0.612810
C	 2.087879	 0.904787	 0.013974
C	 0.394147	 -0.681595	 0.609243
H	 3.121091	 1.190146	 0.028102
C	 1.138014	 1.700683	 -0.584072
H	 0.079239	 -1.597994	 1.063493
C	 -0.532034	 0.141680	 0.000000
H	 1.434694	 2.622553	 -1.044380
C	 -0.195975	 1.329000	 -0.600514
N	 -1.937041	 -0.281114	 0.000000
H	 -0.944126	 1.936518	 -1.060855
O	 -2.159542	 -1.446261	 0.000000
O	 -2.764978	 0.565773	 0.000000

	symmetry c1
}
set optking {
	frozen_dihedral = ("
		11 9 12 14
	")
}

ee = optimize('scf')
oeprop('DIPOLE', 'QUADRUPOLE', 'MULLIKEN_CHARGES')
f=open( 'psi4out.xyz', 'w' )
f.write( "15  " )
f.write( str(ee) + "\n" )
f.write( MOL.save_string_xyz() )
f.close()
--------------------------------------------------------------------------

    Molecular point group: c1
  Charge       = 0
  Multiplicity = 1
  Basis Set: CC-PVTZ
  Basis Set:
  @DF-RHF Final Energy:  -509.21742777407479
    Total Energy =                       -509.2174277740750767
    Molecular point group: c1
  Basis Set: CC-PVTZ
  Basis Set:
  Basis Set: CC-PVTZ
  Basis Set:
  @DF-RHF Final Energy:  -509.21007552204975
    Total Energy =                       -509.2100755220499195
  Basis Set: CC-PVTZ
  Basis Set:
  Basis Set: CC-PVTZ
  Basis Set:
  @DF-RHF Final Energy:  -509.21740298497474
    Total Energy =                       -509.2174029849747967
  Basis Set: CC-PVTZ
  Basis Set:
  Basis Set: CC-PVTZ
  Basis Set:
  @DF-RHF Final Energy:  -509.21762587579974
    Total Energy =                       -509.2176258758001950
  Basis Set: CC-PVTZ
  Basis Set:
  Basis Set: CC-PVTZ
  Basis Set:
  @DF-RHF Final Energy:  -509.21762671342162
    Total Energy =                       -509.2176267134216232
  Basis Set: CC-PVTZ
  Basis Set:
  Charge       = 0
  Multiplicity = 1
  Basis Set: CC-PVTZ
  Basis Set:

    Orbital Energies (a.u.)
    -----------------------

    Doubly Occupied:

       1A    -20.609055     2A    -20.596204     3A    -20.595719
       4A    -15.850285     5A    -11.328562     6A    -11.309995
       7A    -11.263789     8A    -11.263371     9A    -11.258821
      10A    -11.255435    11A     -1.644661    12A     -1.441744
      13A     -1.427435    14A     -1.203328    15A     -1.096150
      16A     -1.048708    17A     -0.966976    18A     -0.883055
      19A     -0.832248    20A     -0.794653    21A     -0.760462
      22A     -0.741564    23A     -0.727028    24A     -0.711040
      25A     -0.676122    26A     -0.636188    27A     -0.622288
      28A     -0.598176    29A     -0.562286    30A     -0.547774
      31A     -0.525142    32A     -0.494813    33A     -0.492750
      34A     -0.459441    35A     -0.379162    36A     -0.346477

  @DF-RHF Final Energy:  -509.21762804711420

   => Energetics <=

    Nuclear Repulsion Energy =            504.6780326794438452
    One-Electron Energy =               -1695.8895079827848349
    Two-Electron Energy =                 681.9938472562268998
    DFT Exchange-Correlation Energy =       0.0000000000000000
    Empirical Dispersion Energy =           0.0000000000000000
    PCM Polarization Energy =               0.0000000000000000
    EFP Energy =                            0.0000000000000000
    Total Energy =                       -509.2176280471142036
    Molecular point group: c1
  Basis Set: CC-PVTZ
  Basis Set:

  -Total Gradient:
     Atom            X                  Y                   Z
    ------   -----------------  -----------------  -----------------
       1       -0.000002063093     0.000006554158     0.000012185103
       2        0.000009904370    -0.000018692117    -0.000014214162
       3       -0.000007521886     0.000020438054    -0.000002284564
       4        0.000005910308    -0.000008719126     0.000010157463
       5       -0.000009310498     0.000007561322     0.000003033347
       6       -0.000001251815    -0.000000000572    -0.000001859121
       7       -0.000009426656     0.000008406660     0.000005307507
       8        0.000000989651    -0.000003215124    -0.000002014639
       9       -0.000628809061     0.001912989267     0.002256340507
      10       -0.000000464785    -0.000000353738    -0.000001317965
      11        0.000460322166    -0.001341481083    -0.002382582788
      12        0.000116994301    -0.000537435413     0.003268032955
      13        0.000005434345     0.000000147186     0.000002522631
      14        0.000069538347    -0.000048683694    -0.003153889847
      15       -0.000010245694     0.000002484223     0.000000583573

  **** Optimization is complete! (in 6 steps) ****
    Final optimized geometry and variables:
    Molecular point group: c1

    Geometry (in Angstrom), charge = 0, multiplicity = 1:

    H            2.353465646298    -1.856907231180     1.413730007787
    O            2.695295524407    -1.064049690194     1.040646658971
    C            1.724653535020    -0.327564202971     0.472563286304
    C            2.096480816128     0.864540522106    -0.132870935537
    C            0.402459142479    -0.719292838777     0.469221893997
    H            3.130830121933     1.145750642707    -0.127078412904
    C            1.146349773577     1.660450831712    -0.730331815954
    H            0.089265918959    -1.645329182950     0.906721013796
    C           -0.524109473013     0.115014433744    -0.121308550604
    H            1.445086383887     2.575292728333    -1.203235684132
    C           -0.190601776112     1.297782609086    -0.729457384820
    N           -1.922971953234    -0.317793334329    -0.142580850361
    H           -0.942359002492     1.909949805209    -1.179456561649
    O           -2.132740365634    -1.485296807158    -0.133547284119
    O           -2.754445688107     0.524546252878    -0.191023445697

  Mulliken Charges: (a.u.)
   Center  Symbol    Alpha    Beta     Spin     Total
       1     H     0.38428  0.38428  0.00000  0.23143
       2     O     4.16810  4.16810  0.00000 -0.33620
       3     C     2.84471  2.84471  0.00000  0.31058
       4     C     3.09876  3.09876  0.00000 -0.19752
       5     C     3.13727  3.13727  0.00000 -0.27453
       6     H     0.41335  0.41335  0.00000  0.17329
       7     C     3.05581  3.05581  0.00000 -0.11162
       8     H     0.41215  0.41215  0.00000  0.17569
       9     C     2.95702  2.95702  0.00000  0.08596
      10     H     0.41603  0.41603  0.00000  0.16794
      11     C     3.10160  3.10160  0.00000 -0.20321
      12     N     3.26231  3.26231  0.00000  0.47539
      13     H     0.40325  0.40325  0.00000  0.19351
      14     O     4.17395  4.17395  0.00000 -0.34790
      15     O     4.17141  4.17141  0.00000 -0.34282

   Total alpha = 36.00000, Total beta = 36.00000, Total charge =  0.00000
