  ==> Input File <==

--------------------------------------------------------------------------
set {
	reference rhf
	basis cc-pvtz
}

set_num_threads( 4 )
memory 2 gb

molecule MOL {
0 1

H	 -2.525255	 1.148399	 -1.073590
N	 -1.543399	 1.159747	 -0.897807
C	 -0.832659	 0.335444	 -1.857763
H	 -1.398072	 0.810829	 0.025845
C	 0.652004	 0.352820	 -1.574706
H	 -1.167731	 -0.700942	 -1.871028
H	 -0.993120	 0.741802	 -2.850324
O	 0.881195	 -0.248324	 -0.336237
H	 1.183681	 -0.187388	 -2.356798
H	 1.010327	 1.379685	 -1.565645
C	 2.208068	 -0.234417	 0.074171
H	 2.725499	 -1.027054	 -0.446768
H	 2.688377	 0.712084	 -0.164856
H	 2.295137	 -0.403407	 1.144883

	symmetry c1
}
set optking {
	frozen_dihedral = ("
		5 8 11 13
	")
}

ee = optimize('scf')
oeprop('DIPOLE', 'QUADRUPOLE', 'MULLIKEN_CHARGES')
f=open( 'psi4out.xyz', 'w' )
f.write( "14  " )
f.write( str(ee) + "\n" )
f.write( MOL.save_string_xyz() )
f.close()
--------------------------------------------------------------------------

    Molecular point group: c1
  Charge       = 0
  Multiplicity = 1
  Basis Set: CC-PVTZ
  Basis Set:
  @DF-RHF Final Energy:  -248.22444901352458
    Total Energy =                       -248.2244490135245769
    Molecular point group: c1
  Basis Set: CC-PVTZ
  Basis Set:
  Basis Set: CC-PVTZ
  Basis Set:
  @DF-RHF Final Energy:  -248.22510763995754
    Total Energy =                       -248.2251076399575140
  Basis Set: CC-PVTZ
  Basis Set:
  Basis Set: CC-PVTZ
  Basis Set:
  @DF-RHF Final Energy:  -248.22525770460788
    Total Energy =                       -248.2252577046075999
  Basis Set: CC-PVTZ
  Basis Set:
  Basis Set: CC-PVTZ
  Basis Set:
  @DF-RHF Final Energy:  -248.22525883801131
    Total Energy =                       -248.2252588380113707
  Basis Set: CC-PVTZ
  Basis Set:
  Charge       = 0
  Multiplicity = 1
  Basis Set: CC-PVTZ
  Basis Set:

    Orbital Energies (a.u.)
    -----------------------

    Doubly Occupied:

       1A    -20.549961     2A    -15.523403     3A    -11.264193
       4A    -11.263601     5A    -11.239798     6A     -1.383502
       7A     -1.175895     8A     -1.000608     9A     -0.907791
      10A     -0.815837    11A     -0.684587    12A     -0.675712
      13A     -0.647360    14A     -0.611951    15A     -0.607755
      16A     -0.541995    17A     -0.530951    18A     -0.498442
      19A     -0.474463    20A     -0.418593    21A     -0.383767

  @DF-RHF Final Energy:  -248.22525908949740

   => Energetics <=

    Nuclear Repulsion Energy =            194.6339762250863146
    One-Electron Energy =                -723.3181398762466188
    Two-Electron Energy =                 280.4589045616628482
    DFT Exchange-Correlation Energy =       0.0000000000000000
    Empirical Dispersion Energy =           0.0000000000000000
    PCM Polarization Energy =               0.0000000000000000
    EFP Energy =                            0.0000000000000000
    Total Energy =                       -248.2252590894975128
    Molecular point group: c1
  Basis Set: CC-PVTZ
  Basis Set:

  -Total Gradient:
     Atom            X                  Y                   Z
    ------   -----------------  -----------------  -----------------
       1        0.000001014830    -0.000000569634     0.000001283752
       2       -0.000002977996    -0.000004099609     0.000003444360
       3        0.000003630739     0.000015658145    -0.000006953974
       4       -0.000001334178    -0.000000880078     0.000000294894
       5       -0.000276682692     0.001717278830     0.000862429930
       6        0.000008847978     0.000005856329     0.000005304229
       7       -0.000005234819     0.000001346452    -0.000005648901
       8        0.000587728247    -0.002723988536    -0.001865311493
       9        0.000002425695    -0.000001060628     0.000006111844
      10       -0.000004930422    -0.000005151913     0.000003996336
      11       -0.000968336775     0.001897991248     0.003178095322
      12       -0.000005102131     0.000001451043    -0.000001712417
      13        0.000666354907    -0.000905970420    -0.002178257516
      14       -0.000005403381     0.000002138770    -0.000003076365

  **** Optimization is complete! (in 5 steps) ****
    Final optimized geometry and variables:
    Molecular point group: c1

    Geometry (in Angstrom), charge = 0, multiplicity = 1:

    H           -2.802288876525     0.872796934074    -0.160408463882
    N           -1.819387536343     0.887282208506     0.009086118689
    C           -1.111893489690     0.066803762050    -0.956444058959
    H           -1.666991887841     0.537624561528     0.931275761167
    C            0.374244731215     0.087025472086    -0.680897340501
    H           -1.444690139686    -0.970273062039    -0.970393832384
    H           -1.278162949001     0.474877169510    -1.947399494535
    O            0.609133721535    -0.511231185397     0.558058365687
    H            0.901461415022    -0.451874350578    -1.467280554556
    H            0.730674170671     1.113998880127    -0.672899259300
    C            1.937282042066    -0.510453473445     0.969396981883
    H            2.496703133845    -1.310327178819     0.488679644276
    H            2.429246487301     0.428325754712     0.729778043360
    H            1.962034160818    -0.663484874877     2.038710954104

  Mulliken Charges: (a.u.)
   Center  Symbol    Alpha    Beta     Spin     Total
       1     H     0.43027  0.43027  0.00000  0.13947
       2     N     3.69420  3.69420  0.00000 -0.38840
       3     C     3.02244  3.02244  0.00000 -0.04489
       4     H     0.42239  0.42239  0.00000  0.15522
       5     C     2.96933  2.96933  0.00000  0.06134
       6     H     0.46453  0.46453  0.00000  0.07095
       7     H     0.45870  0.45870  0.00000  0.08260
       8     O     4.18120  4.18120  0.00000 -0.36240
       9     H     0.47098  0.47098  0.00000  0.05804
      10     H     0.46712  0.46712  0.00000  0.06576
      11     C     3.03067  3.03067  0.00000 -0.06134
      12     H     0.46706  0.46706  0.00000  0.06588
      13     H     0.47244  0.47244  0.00000  0.05513
      14     H     0.44868  0.44868  0.00000  0.10263

   Total alpha = 21.00000, Total beta = 21.00000, Total charge = -0.00000
