  ==> Input File <==

--------------------------------------------------------------------------
set {
	reference rhf
	basis 6-31G*
}

set_num_threads( 4 )
memory 2 gb

molecule MOL {
0 1

O	 -1.487788	 1.240889	 -0.102860
C	 -1.083277	 0.139568	 0.115197
C	 0.323299	 -0.082943	 0.642902
C	 -1.933017	 -1.084621	 -0.143902
C	 1.355627	 -0.005344	 -0.493127
H	 0.396251	 -1.044647	 1.143147
H	 0.528637	 0.693580	 1.371677
C	 2.753807	 -0.418156	 -0.037137
H	 1.042587	 -0.641897	 -1.317796
H	 1.375188	 1.010631	 -0.873328
H	 3.464526	 -0.349267	 -0.854341
H	 2.763797	 -1.441858	 0.325849
H	 3.107553	 0.222107	 0.765343
H	 -1.393885	 -1.806447	 -0.750509
H	 -2.850323	 -0.799888	 -0.640100
H	 -2.169004	 -1.571158	 0.798858

	symmetry c1
}
set optking {
	frozen_dihedral = ("
		9 5 3 2
	")
}

ee = optimize('scf')
oeprop('DIPOLE', 'QUADRUPOLE', 'MULLIKEN_CHARGES')
f=open( 'psi4out.xyz', 'w' )
f.write( "16  " )
f.write( str(ee) + "\n" )
f.write( MOL.save_string_xyz() )
f.close()
--------------------------------------------------------------------------

    Molecular point group: c1
  Charge       = 0
  Multiplicity = 1
  Basis Set: 6-31G*
  Basis Set:
  @DF-RHF Final Energy:  -270.03001878346845
    Total Energy =                       -270.0300187834686199
    Molecular point group: c1
  Basis Set: 6-31G*
  Basis Set:
  Basis Set: 6-31G*
  Basis Set:
  @DF-RHF Final Energy:  -270.03004699741075
    Total Energy =                       -270.0300469974108069
  Basis Set: 6-31G*
  Basis Set:
  Basis Set: 6-31G*
  Basis Set:
  @DF-RHF Final Energy:  -270.02970360783229
    Total Energy =                       -270.0297036078324027
  Basis Set: 6-31G*
  Basis Set:
  Basis Set: 6-31G*
  Basis Set:
  @DF-RHF Final Energy:  -270.03007219747008
    Total Energy =                       -270.0300721974699627
  Basis Set: 6-31G*
  Basis Set:
  Basis Set: 6-31G*
  Basis Set:
  @DF-RHF Final Energy:  -270.03007587826505
    Total Energy =                       -270.0300758782654498
  Basis Set: 6-31G*
  Basis Set:
  Charge       = 0
  Multiplicity = 1
  Basis Set: 6-31G*
  Basis Set:

    Orbital Energies (a.u.)
    -----------------------

    Doubly Occupied:

       1A    -20.547956     2A    -11.324940     3A    -11.233469
       4A    -11.230000     5A    -11.228671     6A    -11.219859
       7A     -1.393580     8A     -1.082673     9A     -1.013242
      10A     -0.949847    11A     -0.829331    12A     -0.735531
      13A     -0.658189    14A     -0.649462    15A     -0.612113
      16A     -0.606115    17A     -0.576952    18A     -0.559707
      19A     -0.535979    20A     -0.519388    21A     -0.503765
      22A     -0.483575    23A     -0.471624    24A     -0.398098

  @DF-RHF Final Energy:  -270.03007662219738

   => Energetics <=

    Nuclear Repulsion Energy =            237.0820967218709825
    One-Electron Energy =                -835.4962147073896404
    Two-Electron Energy =                 328.3840413633212165
    DFT Exchange-Correlation Energy =       0.0000000000000000
    Empirical Dispersion Energy =           0.0000000000000000
    PCM Polarization Energy =               0.0000000000000000
    EFP Energy =                            0.0000000000000000
    Total Energy =                       -270.0300766221974982
    Molecular point group: c1
  Basis Set: 6-31G*
  Basis Set:

  -Total Gradient:
     Atom            X                  Y                   Z
    ------   -----------------  -----------------  -----------------
       1        0.000005829666     0.000014282461    -0.000009255658
       2       -0.000130304673    -0.001331387529    -0.000276337687
       3       -0.000038869562     0.002037282812     0.000059658702
       4       -0.000055649140     0.000027953675     0.000096748780
       5        0.001138381986    -0.002138456940     0.000934086645
       6        0.000023715900     0.000003184582     0.000032543273
       7        0.000009884034     0.000002079225    -0.000007749692
       8       -0.000050403387    -0.000028022320    -0.000025036687
       9       -0.000938096888     0.001397562969    -0.000748589966
      10        0.000004301389     0.000032694032    -0.000010378988
      11       -0.000003771884    -0.000003494008     0.000001469232
      12        0.000011117388    -0.000002836187     0.000006524705
      13       -0.000014338047     0.000003809573    -0.000006910133
      14        0.000022012226     0.000009477528    -0.000018022544
      15        0.000005011120    -0.000001326581    -0.000007983005
      16        0.000011179875    -0.000022803294    -0.000020766978

  **** Optimization is complete! (in 6 steps) ****
    Final optimized geometry and variables:
    Molecular point group: c1

    Geometry (in Angstrom), charge = 0, multiplicity = 1:

    O           -1.490289294989     1.286034747973    -0.068943154908
    C           -1.076609606388     0.184282312954     0.128988100535
    C            0.330160814341    -0.040474774061     0.653525991528
    C           -1.916367380033    -1.041808846394    -0.154198079910
    C            1.355964877131     0.013535669103    -0.490950325451
    H            0.392951210783    -1.001051921506     1.157991242691
    H            0.549341839828     0.736159078041     1.377493318973
    C            2.760373843516    -0.379361533458    -0.039257809413
    H            1.035627339982    -0.631981900454    -1.305836465814
    H            1.364680629629     1.021463947594    -0.893396656226
    H            3.466794878835    -0.306767563839    -0.859803759023
    H            2.784230552374    -1.400339171586     0.330475127799
    H            3.109771557266     0.270284077895     0.757709726275
    H           -1.367206787494    -1.755751937442    -0.760905475153
    H           -2.828839118232    -0.755982800835    -0.658590256433
    H           -2.162223488871    -1.538162889537     0.780887408724

  Mulliken Charges: (a.u.)
   Center  Symbol    Alpha    Beta     Spin     Total
       1     O     4.26175  4.26175  0.00000 -0.52349
       2     C     2.73767  2.73767  0.00000  0.52467
       3     C     3.19895  3.19895  0.00000 -0.39789
       4     C     3.28965  3.28965  0.00000 -0.57931
       5     C     3.16123  3.16123  0.00000 -0.32246
       6     H     0.41748  0.41748  0.00000  0.16504
       7     H     0.40074  0.40074  0.00000  0.19852
       8     C     3.23978  3.23978  0.00000 -0.47956
       9     H     0.41954  0.41954  0.00000  0.16092
      10     H     0.40600  0.40600  0.00000  0.18799
      11     H     0.41528  0.41528  0.00000  0.16944
      12     H     0.42072  0.42072  0.00000  0.15855
      13     H     0.41784  0.41784  0.00000  0.16433
      14     H     0.40994  0.40994  0.00000  0.18012
      15     H     0.39687  0.39687  0.00000  0.20626
      16     H     0.40656  0.40656  0.00000  0.18688

   Total alpha = 24.00000, Total beta = 24.00000, Total charge =  0.00000
