  ==> Input File <==

--------------------------------------------------------------------------
set {
	reference rhf
	basis 6-31G*
}

set_num_threads( 4 )
memory 2 gb

molecule MOL {
0 1

O	 1.698118	 1.117631	 0.641886
C	 1.705091	 0.115954	 0.001797
C	 0.594002	 -0.354984	 -0.904606
O	 2.721346	 -0.737485	 -0.000216
C	 -0.601160	 0.592583	 -0.941345
H	 1.018994	 -0.491339	 -1.895314
H	 0.300407	 -1.346305	 -0.570237
C	 -1.710616	 0.091830	 -1.867311
H	 -0.268815	 1.575068	 -1.261436
H	 -0.988869	 0.718383	 0.064719
C	 -2.917097	 1.030876	 -1.916864
H	 -1.314656	 -0.035726	 -2.873761
H	 -2.037936	 -0.894713	 -1.542538
C	 -4.025806	 0.529403	 -2.841277
H	 -2.592221	 2.016186	 -2.243606
H	 -3.314296	 1.158603	 -0.912346
H	 -3.668300	 0.424414	 -3.861757
H	 -4.866632	 1.215901	 -2.854814
H	 -4.395815	 -0.440276	 -2.520143
C	 4.024888	 -0.184556	 -0.001949
H	 4.179030	 0.422472	 -0.882452
H	 4.701782	 -1.024608	 -0.003642
H	 4.181981	 0.421185	 0.878906

	symmetry c1
}
set optking {
	frozen_dihedral = ("
		1 2 4 20
	")
}

ee = optimize('scf')
oeprop('DIPOLE', 'QUADRUPOLE', 'MULLIKEN_CHARGES')
f=open( 'psi4out.xyz', 'w' )
f.write( "23  " )
f.write( str(ee) + "\n" )
f.write( MOL.save_string_xyz() )
f.close()
--------------------------------------------------------------------------

    Molecular point group: c1
  Charge       = 0
  Multiplicity = 1
  Basis Set: 6-31G*
  Basis Set:
  @DF-RHF Final Energy:  -422.96774902432571
    Total Energy =                       -422.9677490243258262
    Molecular point group: c1
  Basis Set: 6-31G*
  Basis Set:
  Basis Set: 6-31G*
  Basis Set:
  @DF-RHF Final Energy:  -422.96509276068218
    Total Energy =                       -422.9650927606819550
  Basis Set: 6-31G*
  Basis Set:
  Basis Set: 6-31G*
  Basis Set:
  @DF-RHF Final Energy:  -422.96841263603415
    Total Energy =                       -422.9684126360335767
  Basis Set: 6-31G*
  Basis Set:
  Basis Set: 6-31G*
  Basis Set:
  @DF-RHF Final Energy:  -422.96847129209556
    Total Energy =                       -422.9684712920952734
  Basis Set: 6-31G*
  Basis Set:
  Basis Set: 6-31G*
  Basis Set:
  @DF-RHF Final Energy:  -422.96848058650323
    Total Energy =                       -422.9684805865032331
  Basis Set: 6-31G*
  Basis Set:
  Charge       = 0
  Multiplicity = 1
  Basis Set: 6-31G*
  Basis Set:

    Orbital Energies (a.u.)
    -----------------------

    Doubly Occupied:

       1A    -20.596047     2A    -20.549579     3A    -11.373459
       4A    -11.284260     5A    -11.236069     6A    -11.219590
       7A    -11.218247     8A    -11.216740     9A    -11.209878
      10A     -1.464153    11A     -1.364194    12A     -1.093315
      13A     -1.042864    14A     -0.985293    15A     -0.934319
      16A     -0.845340    17A     -0.795411    18A     -0.765921
      19A     -0.696177    20A     -0.680238    21A     -0.671865
      22A     -0.650685    23A     -0.610478    24A     -0.602633
      25A     -0.574818    26A     -0.565391    27A     -0.553416
      28A     -0.529230    29A     -0.513412    30A     -0.507927
      31A     -0.484982    32A     -0.470379    33A     -0.466766
      34A     -0.464547    35A     -0.452585    36A     -0.432800

  @DF-RHF Final Energy:  -422.96848050347984

   => Energetics <=

    Nuclear Repulsion Energy =            451.7094514917226320
    One-Electron Energy =               -1471.1098520628820552
    Two-Electron Energy =                 596.4319200676794708
    DFT Exchange-Correlation Energy =       0.0000000000000000
    Empirical Dispersion Energy =           0.0000000000000000
    PCM Polarization Energy =               0.0000000000000000
    EFP Energy =                            0.0000000000000000
    Total Energy =                       -422.9684805034800092
    Molecular point group: c1
  Basis Set: 6-31G*
  Basis Set:

  -Total Gradient:
     Atom            X                  Y                   Z
    ------   -----------------  -----------------  -----------------
       1       -0.004953762539    -0.004407410114     0.007309079858
       2        0.007533403039     0.006463350332    -0.014532471015
       3        0.000054935672     0.000049472137    -0.000043088310
       4       -0.003129115666    -0.001885610591     0.014875829993
       5        0.000002289792    -0.000011118045    -0.000000772061
       6        0.000018955693    -0.000031009188     0.000011080212
       7       -0.000060784202     0.000029157285     0.000060777743
       8       -0.000007796483    -0.000004828897     0.000001597205
       9        0.000001994857     0.000005081217     0.000002561601
      10       -0.000000810517    -0.000007138270     0.000002433412
      11       -0.000002821613    -0.000000485814     0.000008605133
      12        0.000000785592    -0.000008473573     0.000001743941
      13       -0.000002710760     0.000002869598     0.000010279390
      14        0.000012169141     0.000005320535    -0.000013281536
      15       -0.000000427537     0.000003711352     0.000007023298
      16       -0.000002924058    -0.000007521155     0.000000579120
      17       -0.000001518615    -0.000004884263    -0.000003445361
      18        0.000005344239     0.000003557679    -0.000002016191
      19       -0.000000068996     0.000003200213     0.000004146384
      20        0.000539971408    -0.000180171712    -0.007693525517
      21        0.000002339934    -0.000004353567    -0.000000430159
      22       -0.000009918704    -0.000006448715    -0.000002461900
      23        0.000000470316    -0.000006266445    -0.000004245240

  **** Optimization is complete! (in 6 steps) ****
    Final optimized geometry and variables:
    Molecular point group: c1

    Geometry (in Angstrom), charge = 0, multiplicity = 1:

    O            1.532866608160     0.939701054836     1.405387463909
    C            1.531361527015    -0.075491242036     0.791646345145
    C            0.408065216956    -0.559842868986    -0.090510952243
    O            2.507407758094    -0.985071853962     0.883878569394
    C           -0.808160614924     0.360631324677    -0.094849586575
    H            0.814856551549    -0.679975934282    -1.092049842998
    H            0.146928988547    -1.561021689862     0.241016417765
    C           -1.924870582562    -0.155594796505    -1.003435003910
    H           -0.504342983367     1.353644664261    -0.410845815428
    H           -1.178245022421     0.467213070038     0.920249398851
    C           -3.152327173621     0.757007538107    -1.019555911400
    H           -1.546510422102    -0.264513130243    -2.018858508428
    H           -2.223830321431    -1.152248986899    -0.682257610699
    C           -4.266325060249     0.242456658539    -1.930334041837
    H           -2.855109437672     1.753194537208    -1.339542488949
    H           -3.533971445571     0.863554173569    -0.006619309090
    H           -3.924921430034     0.157022783120    -2.958180782740
    H           -5.121739589263     0.910704914388    -1.920891735443
    H           -4.609743118473    -0.738617538657    -1.614394703180
    C            3.835995387826    -0.501959148108     0.963211444432
    H            4.075747764077     0.078909114431     0.081225446292
    H            4.470308319956    -1.373502202655     1.007578000970
    H            3.975879567809     0.105475952278     1.845086416525

  Mulliken Charges: (a.u.)
   Center  Symbol    Alpha    Beta     Spin     Total
       1     O     4.27502  4.27502  0.00000 -0.55004
       2     C     2.60457  2.60457  0.00000  0.79087
       3     C     3.21078  3.21078  0.00000 -0.42156
       4     O     4.31193  4.31193  0.00000 -0.62385
       5     C     3.15279  3.15279  0.00000 -0.30557
       6     H     0.40393  0.40393  0.00000  0.19215
       7     H     0.39859  0.39859  0.00000  0.20281
       8     C     3.15323  3.15323  0.00000 -0.30647
       9     H     0.41170  0.41170  0.00000  0.17660
      10     H     0.41169  0.41169  0.00000  0.17663
      11     C     3.15156  3.15156  0.00000 -0.30312
      12     H     0.42441  0.42441  0.00000  0.15119
      13     H     0.42365  0.42365  0.00000  0.15270
      14     C     3.23959  3.23959  0.00000 -0.47918
      15     H     0.42144  0.42144  0.00000  0.15712
      16     H     0.42114  0.42114  0.00000  0.15772
      17     H     0.42195  0.42195  0.00000  0.15611
      18     H     0.41842  0.41842  0.00000  0.16316
      19     H     0.42169  0.42169  0.00000  0.15661
      20     C     3.09447  3.09447  0.00000 -0.18894
      21     H     0.41760  0.41760  0.00000  0.16480
      22     H     0.40663  0.40663  0.00000  0.18675
      23     H     0.40325  0.40325  0.00000  0.19350

   Total alpha = 36.00000, Total beta = 36.00000, Total charge = -0.00000
