  ==> Input File <==

--------------------------------------------------------------------------
set {
	reference rhf
	basis 6-31G*
}

set_num_threads( 1 )
memory 2 gb

molecule MOL {
0 1

H	 2.591676	 2.013956	 0.335017
O	 3.341076	 1.666752	 -0.126416
C	 3.569581	 0.339145	 0.272707
C	 2.539767	 -0.640285	 -0.279495
H	 4.553106	 0.084646	 -0.100901
H	 3.608576	 0.269204	 1.359154
C	 1.115811	 -0.397273	 0.226630
H	 2.556196	 -0.582511	 -1.364741
H	 2.852081	 -1.648031	 -0.010655
C	 1.076917	 0.464837	 1.491570
H	 0.639097	 -1.353317	 0.424338
H	 0.531746	 0.088834	 -0.554976
C	 -0.330283	 0.810025	 1.992542
H	 1.627915	 -0.037780	 2.284428
H	 1.609374	 1.392900	 1.294366
C	 -1.144978	 -0.383525	 2.498694
H	 -0.237680	 1.533769	 2.799658
H	 -0.881218	 1.312266	 1.198778
C	 -2.498450	 0.024103	 3.084688
H	 -0.571243	 -0.913971	 3.257355
H	 -1.311239	 -1.092586	 1.691296
C	 -3.316421	 -1.166047	 3.584819
H	 -2.340411	 0.722568	 3.903625
H	 -3.069262	 0.562756	 2.331090
H	 -2.785896	 -1.706913	 4.363427
H	 -4.268514	 -0.844637	 3.995732
H	 -3.523310	 -1.866020	 2.780085

	symmetry c1
}
set optking {
	frozen_dihedral = ("
		14 10 7 4,
		14 10 13 16,
		8 4 3 2,
		10 13 16 20,
		20 16 19 22,
		4 3 2 1
	")
}

ee = energy('scf')
oeprop('DIPOLE', 'QUADRUPOLE', 'MULLIKEN_CHARGES')
f=open( 'psi4out.xyz', 'w' )
f.write( "27  " )
f.write( str(ee) + "\n" )
f.write( MOL.save_string_xyz() )
f.close()
--------------------------------------------------------------------------

    Molecular point group: c1

    Geometry (in Angstrom), charge = 0, multiplicity = 1:

       Center              X                  Y                   Z               Mass
    ------------   -----------------  -----------------  -----------------  -----------------
           H          2.075469570625     1.912598073825    -1.068636887373     1.007825032070
           O          2.824869570625     1.565394073825    -1.530069887373    15.994914619560
           C          3.053374570625     0.237787073825    -1.130946887373    12.000000000000
           C          2.023560570625    -0.741642926175    -1.683148887373    12.000000000000
           H          4.036899570625    -0.016711926175    -1.504554887373     1.007825032070
           H          3.092369570625     0.167846073825    -0.044499887373     1.007825032070
           C          0.599604570625    -0.498630926175    -1.177023887373    12.000000000000
           H          2.039989570625    -0.683868926175    -2.768394887373     1.007825032070
           H          2.335874570625    -1.749388926175    -1.414308887373     1.007825032070
           C          0.560710570625     0.363479073825     0.087916112627    12.000000000000
           H          0.122890570625    -1.454674926175    -0.979315887373     1.007825032070
           H          0.015539570625    -0.012523926175    -1.958629887373     1.007825032070
           C         -0.846489429375     0.708667073825     0.588888112627    12.000000000000
           H          1.111708570625    -0.139137926175     0.880774112627     1.007825032070
           H          1.093167570625     1.291542073825    -0.109287887373     1.007825032070
           C         -1.661184429375    -0.484882926175     1.095040112627    12.000000000000
           H         -0.753886429375     1.432411073825     1.396004112627     1.007825032070
           H         -1.397424429375     1.210908073825    -0.204875887373     1.007825032070
           C         -3.014656429375    -0.077254926175     1.681034112627    12.000000000000
           H         -1.087449429375    -1.015328926175     1.853701112627     1.007825032070
           H         -1.827445429375    -1.193943926175     0.287642112627     1.007825032070
           C         -3.832627429375    -1.267404926175     2.181165112627    12.000000000000
           H         -2.856617429375     0.621210073825     2.499971112627     1.007825032070
           H         -3.585468429375     0.461398073825     0.927436112627     1.007825032070
           H         -3.302102429375    -1.808270926175     2.959773112627     1.007825032070
           H         -4.784720429375    -0.945994926175     2.592078112627     1.007825032070
           H         -4.039516429375    -1.967377926175     1.376431112627     1.007825032070

  Charge       = 0
  Multiplicity = 1
  Basis Set: 6-31G*
  Basis Set:

    Orbital Energies (a.u.)
    -----------------------

    Doubly Occupied:

       1A    -20.547590     2A    -11.264141     3A    -11.225906
       4A    -11.220087     5A    -11.219214     6A    -11.218183
       7A    -11.217216     8A    -11.213920     9A    -11.210975
      10A     -1.358041    11A     -1.099960    12A     -1.063850
      13A     -1.012681    14A     -0.948377    15A     -0.894290
      16A     -0.831021    17A     -0.800946    18A     -0.777915
      19A     -0.691277    20A     -0.657323    21A     -0.645101
      22A     -0.616015    23A     -0.598571    24A     -0.584657
      25A     -0.572462    26A     -0.560917    27A     -0.544923
      28A     -0.531071    29A     -0.523118    30A     -0.497772
      31A     -0.481414    32A     -0.477939    33A     -0.466752
      34A     -0.461101    35A     -0.452373    36A     -0.440785
      37A     -0.420635

  @DF-RHF Final Energy:  -388.26393097753851

   => Energetics <=

    Nuclear Repulsion Energy =            470.7757241370264865
    One-Electron Energy =               -1459.3820691741641440
    Two-Electron Energy =                 600.3424140595990366
    DFT Exchange-Correlation Energy =       0.0000000000000000
    Empirical Dispersion Energy =           0.0000000000000000
    PCM Polarization Energy =               0.0000000000000000
    EFP Energy =                            0.0000000000000000
    Total Energy =                       -388.2639309775386209

  Mulliken Charges: (a.u.)
   Center  Symbol    Alpha    Beta     Spin     Total
       1     H     0.26788  0.26788  0.00000  0.46424
       2     O     4.37895  4.37895  0.00000 -0.75791
       3     C     3.00463  3.00463  0.00000 -0.00925
       4     C     3.16368  3.16368  0.00000 -0.32736
       5     H     0.41274  0.41274  0.00000  0.17453
       6     H     0.42767  0.42767  0.00000  0.14467
       7     C     3.16080  3.16080  0.00000 -0.32160
       8     H     0.41237  0.41237  0.00000  0.17526
       9     H     0.42292  0.42292  0.00000  0.15417
      10     C     3.15744  3.15744  0.00000 -0.31487
      11     H     0.41495  0.41495  0.00000  0.17010
      12     H     0.41774  0.41774  0.00000  0.16452
      13     C     3.14990  3.14990  0.00000 -0.29980
      14     H     0.41771  0.41771  0.00000  0.16457
      15     H     0.44961  0.44961  0.00000  0.10078
      16     C     3.15372  3.15372  0.00000 -0.30744
      17     H     0.42110  0.42110  0.00000  0.15779
      18     H     0.42250  0.42250  0.00000  0.15500
      19     C     3.15152  3.15152  0.00000 -0.30305
      20     H     0.42422  0.42422  0.00000  0.15156
      21     H     0.42123  0.42123  0.00000  0.15753
      22     C     3.23939  3.23939  0.00000 -0.47879
      23     H     0.42277  0.42277  0.00000  0.15446
      24     H     0.42248  0.42248  0.00000  0.15504
      25     H     0.42168  0.42168  0.00000  0.15664
      26     H     0.41875  0.41875  0.00000  0.16251
      27     H     0.42165  0.42165  0.00000  0.15670

   Total alpha = 37.00000, Total beta = 37.00000, Total charge = -0.00000
