  ==> Input File <==

--------------------------------------------------------------------------
set {
	reference rhf
	basis cc-pvtz
}

set_num_threads( 4 )
memory 2 gb

molecule MOL {
0 1

H	 -1.835082	 1.385983	 0.000069
C	 -1.300516	 0.441153	 -0.000028
O	 -0.006604	 0.654344	 -0.000106
O	 -1.828920	 -0.612308	 0.000113
C	 0.778884	 -0.037839	 0.966183
C	 2.219389	 0.369473	 0.766827
H	 0.642338	 -1.101258	 0.830343
H	 0.424284	 0.219883	 1.954010
H	 2.559630	 0.108940	 -0.227321
H	 2.845530	 -0.141133	 1.488688
H	 2.340477	 1.436733	 0.901969

	symmetry c1
}
set optking {
	frozen_dihedral = ("
		5 3 2 4
	")
}

ee = optimize('scf')
oeprop('DIPOLE', 'QUADRUPOLE', 'MULLIKEN_CHARGES')
f=open( 'psi4out.xyz', 'w' )
f.write( "11  " )
f.write( str(ee) + "\n" )
f.write( MOL.save_string_xyz() )
f.close()
--------------------------------------------------------------------------

    Molecular point group: c1
  Charge       = 0
  Multiplicity = 1
  Basis Set: CC-PVTZ
  Basis Set:
  @DF-RHF Final Energy:  -266.91996372738140
    Total Energy =                       -266.9199637273812300
    Molecular point group: c1
  Basis Set: CC-PVTZ
  Basis Set:
  Basis Set: CC-PVTZ
  Basis Set:
  @DF-RHF Final Energy:  -266.91280291468820
    Total Energy =                       -266.9128029146880863
  Basis Set: CC-PVTZ
  Basis Set:
  Basis Set: CC-PVTZ
  Basis Set:
  @DF-RHF Final Energy:  -266.92059331018095
    Total Energy =                       -266.9205933101810047
  Basis Set: CC-PVTZ
  Basis Set:
  Basis Set: CC-PVTZ
  Basis Set:
  @DF-RHF Final Energy:  -266.92085519670957
    Total Energy =                       -266.9208551967095673
  Basis Set: CC-PVTZ
  Basis Set:
  Basis Set: CC-PVTZ
  Basis Set:
  @DF-RHF Final Energy:  -266.92086087012717
    Total Energy =                       -266.9208608701273988
  Basis Set: CC-PVTZ
  Basis Set:
  Charge       = 0
  Multiplicity = 1
  Basis Set: CC-PVTZ
  Basis Set:

    Orbital Energies (a.u.)
    -----------------------

    Doubly Occupied:

       1A    -20.593495     2A    -20.553029     3A    -11.372143
       4A    -11.294124     5A    -11.225569     6A     -1.472302
       7A     -1.379032     8A     -1.051647     9A     -0.897522
      10A     -0.813258    11A     -0.742652    12A     -0.690213
      13A     -0.668342    14A     -0.620268    15A     -0.564415
      16A     -0.550653    17A     -0.529653    18A     -0.511220
      19A     -0.466930    20A     -0.452495

  @DF-RHF Final Energy:  -266.92086162149894

   => Energetics <=

    Nuclear Repulsion Energy =            178.4103152437526205
    One-Electron Energy =                -717.7644233217101828
    Two-Electron Energy =                 272.4332464564587326
    DFT Exchange-Correlation Energy =       0.0000000000000000
    Empirical Dispersion Energy =           0.0000000000000000
    PCM Polarization Energy =               0.0000000000000000
    EFP Energy =                            0.0000000000000000
    Total Energy =                       -266.9208616214988297
    Molecular point group: c1
  Basis Set: CC-PVTZ
  Basis Set:

  -Total Gradient:
     Atom            X                  Y                   Z
    ------   -----------------  -----------------  -----------------
       1       -0.000000499768    -0.000013287890     0.000008989294
       2       -0.000640939488     0.002006119302     0.017512097300
       3        0.001611760290    -0.007820151673    -0.012827366205
       4        0.000092680843     0.000485204333    -0.009857672087
       5       -0.001067158330     0.005335200823     0.005146084563
       6       -0.000003164628    -0.000002954393     0.000022714855
       7        0.000008258886     0.000010810098     0.000004663667
       8        0.000001199744     0.000006946191    -0.000006593298
       9       -0.000008705597    -0.000003689977    -0.000001066067
      10        0.000009666244     0.000001373534    -0.000002698312
      11       -0.000003098197    -0.000005570352     0.000000846289

  **** Optimization is complete! (in 6 steps) ****
    Final optimized geometry and variables:
    Molecular point group: c1

    Geometry (in Angstrom), charge = 0, multiplicity = 1:

    H           -1.863132785142     1.201450701611    -0.393555708249
    C           -1.291483849485     0.278726417786    -0.336509325038
    O            0.010525357259     0.523597857937    -0.306558485044
    O           -1.785000485753    -0.785904574594    -0.400147229882
    C            0.808643439628    -0.197074216333     0.629645784706
    C            2.250501927642     0.194630936920     0.413206002744
    H            0.661671239009    -1.257391327889     0.484487827282
    H            0.480445123683     0.062406027479     1.628965776614
    H            2.569596651254    -0.066383089480    -0.587564894951
    H            2.881611381520    -0.326678933092     1.123160027128
    H            2.384773520735     1.259938569225     0.550140819797

  Mulliken Charges: (a.u.)
   Center  Symbol    Alpha    Beta     Spin     Total
       1     H     0.45691  0.45691  0.00000  0.08618
       2     C     2.83928  2.83928  0.00000  0.32144
       3     O     4.15538  4.15538  0.00000 -0.31076
       4     O     4.17965  4.17965  0.00000 -0.35930
       5     C     2.97106  2.97106  0.00000  0.05787
       6     C     3.13439  3.13439  0.00000 -0.26878
       7     H     0.44783  0.44783  0.00000  0.10434
       8     H     0.46176  0.46176  0.00000  0.07648
       9     H     0.44797  0.44797  0.00000  0.10406
      10     H     0.45533  0.45533  0.00000  0.08934
      11     H     0.45043  0.45043  0.00000  0.09914

   Total alpha = 20.00000, Total beta = 20.00000, Total charge = -0.00000
