  ==> Input File <==

--------------------------------------------------------------------------
set {
	reference rhf
	basis 6-31G*
}

set_num_threads( 4 )
memory 2 gb

molecule MOL {
0 1

O	 3.225979	 0.970355	 -0.599647
C	 2.701189	 0.057885	 -0.047330
C	 1.245376	 -0.013843	 0.345420
O	 3.347903	 -1.046386	 0.304773
C	 0.455112	 1.231400	 -0.050772
H	 0.838542	 -0.913825	 -0.103701
H	 1.208210	 -0.175333	 1.419774
C	 -0.998893	 1.219485	 0.433193
H	 0.482531	 1.345121	 -1.130325
H	 0.957290	 2.103070	 0.354729
C	 -1.883438	 0.145884	 -0.207175
H	 -1.431207	 2.195402	 0.224832
H	 -1.019646	 1.105716	 1.516076
C	 -3.377717	 0.435444	 -0.051339
H	 -1.640976	 0.067415	 -1.265889
H	 -1.667040	 -0.826826	 0.228691
C	 -4.271349	 -0.633505	 -0.682927
H	 -3.605248	 1.402188	 -0.497289
H	 -3.618790	 0.524672	 1.006783
C	 -5.761983	 -0.334897	 -0.526261
H	 -4.031069	 -0.724675	 -1.740091
H	 -4.048438	 -1.599829	 -0.235370
H	 -6.369055	 -1.110015	 -0.983713
H	 -6.023892	 0.609709	 -0.994575
H	 -6.041162	 -0.271599	 0.521750
C	 4.728119	 -1.109107	 -0.004993
H	 4.882018	 -1.033965	 -1.071845
H	 5.068212	 -2.067527	 0.355250
H	 5.265056	 -0.311663	 0.488280

	symmetry c1
}
set optking {
	frozen_dihedral = ("
		15 11 8 5
	")
}

ee = optimize('scf')
oeprop('DIPOLE', 'QUADRUPOLE', 'MULLIKEN_CHARGES')
f=open( 'psi4out.xyz', 'w' )
f.write( "29  " )
f.write( str(ee) + "\n" )
f.write( MOL.save_string_xyz() )
f.close()
--------------------------------------------------------------------------

    Molecular point group: c1
  Charge       = 0
  Multiplicity = 1
  Basis Set: 6-31G*
  Basis Set:
  @DF-RHF Final Energy:  -501.04343435043688
    Total Energy =                       -501.0434343504372237
    Molecular point group: c1
  Basis Set: 6-31G*
  Basis Set:
  Basis Set: 6-31G*
  Basis Set:
  @DF-RHF Final Energy:  -501.04333333222189
    Total Energy =                       -501.0433333322216640
  Basis Set: 6-31G*
  Basis Set:
  Basis Set: 6-31G*
  Basis Set:
  @DF-RHF Final Energy:  -501.04352917444567
    Total Energy =                       -501.0435291744455526
  Basis Set: 6-31G*
  Basis Set:
  Basis Set: 6-31G*
  Basis Set:
  @DF-RHF Final Energy:  -501.04352496815636
    Total Energy =                       -501.0435249681568166
  Basis Set: 6-31G*
  Basis Set:
  @DF-RHF Final Energy:  -501.04345628312603
    Total Energy =                       -501.0434562831258063
  Basis Set: 6-31G*
  Basis Set:
  @DF-RHF Final Energy:  -501.04355137819266
    Total Energy =                       -501.0435513781928876
  Basis Set: 6-31G*
  Basis Set:
  Basis Set: 6-31G*
  Basis Set:
  @DF-RHF Final Energy:  -501.04355020790024
    Total Energy =                       -501.0435502079008074
  Basis Set: 6-31G*
  Basis Set:
  Basis Set: 6-31G*
  Basis Set:
  @DF-RHF Final Energy:  -501.04355264149626
    Total Energy =                       -501.0435526414954666
  Basis Set: 6-31G*
  Basis Set:
  Charge       = 0
  Multiplicity = 1
  Basis Set: 6-31G*
  Basis Set:

    Orbital Energies (a.u.)
    -----------------------

    Doubly Occupied:

       1A    -20.603306     2A    -20.545120     3A    -11.371895
       4A    -11.280613     5A    -11.234597     6A    -11.219099
       7A    -11.217488     8A    -11.216108     9A    -11.215876
      10A    -11.214644    11A    -11.209069    12A     -1.468989
      13A     -1.362429    14A     -1.098060    15A     -1.066795
      16A     -1.019222    17A     -0.977121    18A     -0.928549
      19A     -0.861836    20A     -0.799572    21A     -0.790704
      22A     -0.763482    23A     -0.700187    24A     -0.682358
      25A     -0.671997    26A     -0.651146    27A     -0.628658
      28A     -0.604795    29A     -0.593739    30A     -0.581126
      31A     -0.566984    32A     -0.549826    33A     -0.531395
      34A     -0.530097    35A     -0.517055    36A     -0.512362
      37A     -0.494832    38A     -0.478168    39A     -0.470624
      40A     -0.461668    41A     -0.458473    42A     -0.455971
      43A     -0.441352    44A     -0.435164

  @DF-RHF Final Energy:  -501.04355266694063

   => Energetics <=

    Nuclear Repulsion Energy =            610.3359624153464438
    One-Electron Energy =               -1891.7939317941795707
    Two-Electron Energy =                 780.4144167118926134
    DFT Exchange-Correlation Energy =       0.0000000000000000
    Empirical Dispersion Energy =           0.0000000000000000
    PCM Polarization Energy =               0.0000000000000000
    EFP Energy =                            0.0000000000000000
    Total Energy =                       -501.0435526669406272
    Molecular point group: c1
  Basis Set: 6-31G*
  Basis Set:

  -Total Gradient:
     Atom            X                  Y                   Z
    ------   -----------------  -----------------  -----------------
       1       -0.000002081120    -0.000002520401    -0.000002259461
       2        0.000004800757     0.000006508987     0.000017654493
       3       -0.000000327207    -0.000005311537    -0.000015601832
       4        0.000000654690    -0.000003286851    -0.000006828787
       5       -0.000412450614     0.001104377668    -0.001280725157
       6        0.000002010366     0.000001770650     0.000003651129
       7        0.000002120449     0.000002715019     0.000001193480
       8        0.000962799843    -0.001955532792     0.001924873897
       9        0.000000616451     0.000001304758     0.000001046038
      10        0.000001003643    -0.000000963292    -0.000000122118
      11       -0.002177965718     0.002477857411    -0.001166439591
      12       -0.000006484234     0.000000995639     0.000002985789
      13       -0.000000770024    -0.000004410240    -0.000001594457
      14        0.000003403529     0.000010123311    -0.000012777328
      15        0.001627198302    -0.001623931356     0.000526207513
      16       -0.000005598247    -0.000003181823    -0.000001142145
      17        0.000001293801    -0.000010686450     0.000015985755
      18       -0.000003917085     0.000004873391    -0.000000509644
      19        0.000002883515    -0.000002805297    -0.000004029650
      20        0.000000398789     0.000005490210    -0.000007899073
      21       -0.000000753128    -0.000001208454     0.000003207992
      22        0.000000727055    -0.000002041470     0.000002734929
      23        0.000000476576     0.000002304958    -0.000004434110
      24       -0.000000837949     0.000003031514     0.000004328335
      25        0.000000539713    -0.000005189224    -0.000000135921
      26       -0.000000049187    -0.000000217769     0.000000774638
      27        0.000000138565    -0.000000062382    -0.000000037829
      28        0.000000187854    -0.000000078352    -0.000000128404
      29       -0.000000019391     0.000000074168     0.000000021522

  **** Optimization is complete! (in 9 steps) ****
    Final optimized geometry and variables:
    Molecular point group: c1

    Geometry (in Angstrom), charge = 0, multiplicity = 1:

    O            3.241911803230     0.899845325404    -0.474026380614
    C            2.699504640153    -0.014942579470     0.057099356944
    C            1.241451795096    -0.068759733673     0.443821739896
    O            3.325547683565    -1.137839784512     0.386853465314
    C            0.475193651931     1.200540617870     0.078272040402
    H            0.817089658479    -0.947872966554    -0.030550218258
    H            1.196966115905    -0.258326882992     1.513283758237
    C           -0.985315956314     1.188494764749     0.540195563058
    H            0.516320104449     1.347144089947    -0.996630549723
    H            0.982649682785     2.052527381801     0.517804156396
    C           -1.856909527628     0.110602625312    -0.116023385547
    H           -1.408873237143     2.164916237429     0.315696459830
    H           -1.030588702795     1.083334460088     1.622696842862
    C           -3.355467887046     0.374727519999     0.035078619049
    H           -1.600233884406     0.028271586019    -1.171183130000
    H           -1.626410798422    -0.860525172608     0.317942333039
    C           -4.229639100956    -0.725375054361    -0.569315665384
    H           -3.601062884270     1.326399181452    -0.432890157941
    H           -3.596167086610     0.484641149633     1.091470800958
    C           -5.725378974759    -0.447579965454    -0.423346527750
    H           -3.985401752897    -0.840398558719    -1.623292585376
    H           -3.991618658792    -1.675573125603    -0.095880760155
    H           -6.318427692475    -1.244429734178    -0.861437352092
    H           -6.001889668821     0.479929664834    -0.916743026531
    H           -6.007930523440    -0.361540339884     0.622136924599
    C            4.705268256436    -1.218471224416     0.079068295246
    H            4.863424763303    -1.123185595708    -0.985558440084
    H            5.027286348263    -2.190313295243     0.419397328769
    H            5.254922676827    -0.441499517959     0.590667052307

  Mulliken Charges: (a.u.)
   Center  Symbol    Alpha    Beta     Spin     Total
       1     O     4.28602  4.28602  0.00000 -0.57205
       2     C     2.60494  2.60494  0.00000  0.79011
       3     C     3.20975  3.20975  0.00000 -0.41950
       4     O     4.30743  4.30743  0.00000 -0.61487
       5     C     3.15407  3.15407  0.00000 -0.30814
       6     H     0.39841  0.39841  0.00000  0.20318
       7     H     0.40131  0.40131  0.00000  0.19737
       8     C     3.15681  3.15681  0.00000 -0.31363
       9     H     0.41274  0.41274  0.00000  0.17452
      10     H     0.40924  0.40924  0.00000  0.18152
      11     C     3.15595  3.15595  0.00000 -0.31190
      12     H     0.41833  0.41833  0.00000  0.16335
      13     H     0.42278  0.42278  0.00000  0.15444
      14     C     3.15049  3.15049  0.00000 -0.30099
      15     H     0.42270  0.42270  0.00000  0.15459
      16     H     0.42344  0.42344  0.00000  0.15312
      17     C     3.15169  3.15169  0.00000 -0.30338
      18     H     0.42300  0.42300  0.00000  0.15400
      19     H     0.42368  0.42368  0.00000  0.15263
      20     C     3.23939  3.23939  0.00000 -0.47877
      21     H     0.42283  0.42283  0.00000  0.15434
      22     H     0.42330  0.42330  0.00000  0.15339
      23     H     0.41922  0.41922  0.00000  0.16156
      24     H     0.42151  0.42151  0.00000  0.15698
      25     H     0.42178  0.42178  0.00000  0.15643
      26     C     3.09240  3.09240  0.00000 -0.18479
      27     H     0.40911  0.40911  0.00000  0.18178
      28     H     0.40852  0.40852  0.00000  0.18295
      29     H     0.40913  0.40913  0.00000  0.18174

   Total alpha = 44.00000, Total beta = 44.00000, Total charge =  0.00000
