  ==> Input File <==

--------------------------------------------------------------------------
set {
	reference rhf
	basis 6-31G*
}

set_num_threads( 4 )
memory 2 gb

molecule MOL {
0 1

H	 2.403597	 1.197592	 0.496618
O	 1.484552	 1.282060	 0.705757
C	 0.702312	 0.627605	 -0.264544
C	 -0.714990	 0.596302	 0.266387
H	 1.053787	 -0.388818	 -0.420122
H	 0.736845	 1.156289	 -1.214714
O	 -1.405996	 -0.526611	 -0.195820
H	 -1.257453	 1.468809	 -0.075599
H	 -0.688972	 0.618407	 1.353696
H	 -0.890587	 -1.292708	 0.022039

	symmetry c1
}
set optking {
	frozen_dihedral = ("
		5 3 4 7
	")
}

ee = optimize('scf')
oeprop('DIPOLE', 'QUADRUPOLE', 'MULLIKEN_CHARGES')
f=open( 'psi4out.xyz', 'w' )
f.write( "10  " )
f.write( str(ee) + "\n" )
f.write( MOL.save_string_xyz() )
f.close()
--------------------------------------------------------------------------

    Molecular point group: c1
  Charge       = 0
  Multiplicity = 1
  Basis Set: 6-31G*
  Basis Set:
  @DF-RHF Final Energy:  -228.91693639122977
    Total Energy =                       -228.9169363912298536
    Molecular point group: c1
  Basis Set: 6-31G*
  Basis Set:
  Basis Set: 6-31G*
  Basis Set:
  @DF-RHF Final Energy:  -228.91839949631708
    Total Energy =                       -228.9183994963170221
  Basis Set: 6-31G*
  Basis Set:
  Basis Set: 6-31G*
  Basis Set:
  @DF-RHF Final Energy:  -228.91890117675550
    Total Energy =                       -228.9189011767555542
  Basis Set: 6-31G*
  Basis Set:
  Basis Set: 6-31G*
  Basis Set:
  @DF-RHF Final Energy:  -228.91893864446124
    Total Energy =                       -228.9189386444612069
  Basis Set: 6-31G*
  Basis Set:
  Charge       = 0
  Multiplicity = 1
  Basis Set: 6-31G*
  Basis Set:

    Orbital Energies (a.u.)
    -----------------------

    Doubly Occupied:

       1A    -20.563823     2A    -20.558294     3A    -11.273793
       4A    -11.268970     5A     -1.375526     6A     -1.361088
       7A     -0.996302     8A     -0.847083     9A     -0.726678
      10A     -0.673412    11A     -0.650787    12A     -0.611832
      13A     -0.573277    14A     -0.525618    15A     -0.493986
      16A     -0.444179    17A     -0.436553

  @DF-RHF Final Energy:  -228.91894015740044

   => Energetics <=

    Nuclear Repulsion Energy =            131.2244171772649395
    One-Electron Energy =                -573.5243155842335909
    Two-Electron Energy =                 213.3809582495682093
    DFT Exchange-Correlation Energy =       0.0000000000000000
    Empirical Dispersion Energy =           0.0000000000000000
    PCM Polarization Energy =               0.0000000000000000
    EFP Energy =                            0.0000000000000000
    Total Energy =                       -228.9189401574004137
    Molecular point group: c1
  Basis Set: 6-31G*
  Basis Set:

  -Total Gradient:
     Atom            X                  Y                   Z
    ------   -----------------  -----------------  -----------------
       1       -0.000020498047    -0.000007686697    -0.000000574422
       2       -0.000076903402    -0.000059341969    -0.000096085170
       3        0.002221401073    -0.001098678294     0.006323838914
       4       -0.001731672894     0.002859365172    -0.004774931853
       5       -0.001435099476     0.000351683651    -0.004285741347
       6        0.000020194367     0.000010678160    -0.000008901880
       7        0.001024742138    -0.002042234493     0.002824081787
       8        0.000017082918     0.000032165216     0.000021866495
       9       -0.000011609566     0.000001211079     0.000008405097
      10       -0.000007637107    -0.000047161825    -0.000011957622

  **** Optimization is complete! (in 5 steps) ****
    Final optimized geometry and variables:
    Molecular point group: c1

    Geometry (in Angstrom), charge = 0, multiplicity = 1:

    H            2.333470231421     0.941952501172     0.288945001401
    O            1.462435839425     0.778729665784     0.620964143668
    C            0.688587255139     0.145766243026    -0.360196314918
    C           -0.757560548206     0.109154830540     0.127034898431
    H            1.024829844686    -0.870711279981    -0.560112860760
    H            0.749441839747     0.678435911719    -1.306819411460
    O           -1.467999228852    -0.973033412907    -0.411765078991
    H           -1.286109029436     1.005502859651    -0.164937675874
    H           -0.747952664802     0.069802663523     1.212617684960
    H           -1.164132009849    -1.776542737310    -0.013620664930

  Mulliken Charges: (a.u.)
   Center  Symbol    Alpha    Beta     Spin     Total
       1     H     0.27837  0.27837  0.00000  0.44327
       2     O     4.37134  4.37134  0.00000 -0.74268
       3     C     3.00779  3.00779  0.00000 -0.01558
       4     C     3.00606  3.00606  0.00000 -0.01212
       5     H     0.43157  0.43157  0.00000  0.13686
       6     H     0.42541  0.42541  0.00000  0.14918
       7     O     4.37116  4.37116  0.00000 -0.74231
       8     H     0.41058  0.41058  0.00000  0.17884
       9     H     0.41654  0.41654  0.00000  0.16692
      10     H     0.28118  0.28118  0.00000  0.43763

   Total alpha = 17.00000, Total beta = 17.00000, Total charge = -0.00000
