  ==> Input File <==

--------------------------------------------------------------------------
set {
	reference rhf
	basis 6-31G*
}

set_num_threads( 4 )
memory 2 gb

molecule MOL {
0 1

H	 0.763062	 1.781470	 0.242629
O	 0.055946	 1.300438	 -0.164479
C	 0.004957	 -0.004114	 0.366649
C	 1.201664	 -0.828089	 -0.095740
C	 -1.317755	 -0.601827	 -0.081511
H	 0.013527	 0.048298	 1.454924
H	 1.216388	 -0.895289	 -1.178704
H	 2.135132	 -0.372895	 0.226467
H	 1.166770	 -1.832878	 0.313827
H	 -1.355732	 -0.658248	 -1.164429
H	 -2.141614	 0.017037	 0.254547
H	 -1.447303	 -1.600817	 0.322594

	symmetry c1
}
set optking {
	frozen_dihedral = ("
		1 2 3 4
	")
}

ee = optimize('scf')
oeprop('DIPOLE', 'QUADRUPOLE', 'MULLIKEN_CHARGES')
f=open( 'psi4out.xyz', 'w' )
f.write( "12  " )
f.write( str(ee) + "\n" )
f.write( MOL.save_string_xyz() )
f.close()
--------------------------------------------------------------------------

    Molecular point group: c1
  Charge       = 0
  Multiplicity = 1
  Basis Set: 6-31G*
  Basis Set:
  @DF-RHF Final Energy:  -193.11517098972658
    Total Energy =                       -193.1151709897265505
    Molecular point group: c1
  Basis Set: 6-31G*
  Basis Set:
  Basis Set: 6-31G*
  Basis Set:
  @DF-RHF Final Energy:  -193.11517805752612
    Total Energy =                       -193.1151780575261796
  Basis Set: 6-31G*
  Basis Set:
  Basis Set: 6-31G*
  Basis Set:
  @DF-RHF Final Energy:  -193.11517925116755
    Total Energy =                       -193.1151792511676035
  Basis Set: 6-31G*
  Basis Set:
  Charge       = 0
  Multiplicity = 1
  Basis Set: 6-31G*
  Basis Set:

    Orbital Energies (a.u.)
    -----------------------

    Doubly Occupied:

       1A    -20.551103     2A    -11.275762     3A    -11.211013
       4A    -11.206384     5A     -1.360212     6A     -1.041331
       7A     -0.938246     8A     -0.800664     9A     -0.703315
      10A     -0.621017    11A     -0.602499    12A     -0.546939
      13A     -0.536617    14A     -0.526291    15A     -0.508848
      16A     -0.466422    17A     -0.430018

  @DF-RHF Final Energy:  -193.11517927851168

   => Energetics <=

    Nuclear Repulsion Energy =            135.5055186177232258
    One-Electron Energy =                -530.5880349578599180
    Two-Electron Energy =                 201.9673370616249031
    DFT Exchange-Correlation Energy =       0.0000000000000000
    Empirical Dispersion Energy =           0.0000000000000000
    PCM Polarization Energy =               0.0000000000000000
    EFP Energy =                            0.0000000000000000
    Total Energy =                       -193.1151792785117891
    Molecular point group: c1
  Basis Set: 6-31G*
  Basis Set:

  -Total Gradient:
     Atom            X                  Y                   Z
    ------   -----------------  -----------------  -----------------
       1       -0.000629838692     0.000314745965     0.000712460541
       2        0.000636242003    -0.000473061988    -0.001067337419
       3        0.000326732002     0.000362721323     0.000856890630
       4       -0.000331937593    -0.000201072758    -0.000498881309
       5       -0.000000991965    -0.000000551825     0.000003437245
       6       -0.000000277181    -0.000000249620    -0.000000321766
       7        0.000006907902     0.000002303395    -0.000001077064
       8       -0.000008581009     0.000001894419     0.000001598324
       9       -0.000002313900    -0.000005730605    -0.000004121820
      10        0.000000721774     0.000000851792    -0.000002482272
      11        0.000000785892    -0.000000832091     0.000000654853
      12        0.000002550766    -0.000001018011    -0.000000819945

  **** Optimization is complete! (in 4 steps) ****
    Final optimized geometry and variables:
    Molecular point group: c1

    Geometry (in Angstrom), charge = 0, multiplicity = 1:

    H            0.768666092488     1.779707754959     0.235289570991
    O            0.060309322545     1.299044368979    -0.169554552766
    C            0.005253243113    -0.003913556081     0.366780321879
    C            1.201178417115    -0.829130309221    -0.095372409118
    C           -1.316599294983    -0.602955337015    -0.083457980693
    H            0.011066546121     0.051168187478     1.454699713229
    H            1.212852462120    -0.897020091450    -1.178158643667
    H            2.134677443346    -0.371941946498     0.222827698604
    H            1.167182068581    -1.833675267071     0.315399511016
    H           -1.356021975738    -0.649458196226    -1.166845513800
    H           -2.142639755792     0.009285651720     0.259354956595
    H           -1.441188441789    -1.606646429974     0.310498859885

  Mulliken Charges: (a.u.)
   Center  Symbol    Alpha    Beta     Spin     Total
       1     H     0.28232  0.28232  0.00000  0.43535
       2     O     4.37145  4.37145  0.00000 -0.74289
       3     C     2.92100  2.92100  0.00000  0.15800
       4     C     3.24461  3.24461  0.00000 -0.48923
       5     C     3.23908  3.23908  0.00000 -0.47817
       6     H     0.43065  0.43065  0.00000  0.13871
       7     H     0.41377  0.41377  0.00000  0.17246
       8     H     0.42498  0.42498  0.00000  0.15004
       9     H     0.42178  0.42178  0.00000  0.15644
      10     H     0.41483  0.41483  0.00000  0.17034
      11     H     0.41216  0.41216  0.00000  0.17569
      12     H     0.42337  0.42337  0.00000  0.15326

   Total alpha = 17.00000, Total beta = 17.00000, Total charge =  0.00000
