                              Psi4 1.0.54 Driver

  ==> Input File <==

--------------------------------------------------------------------------
set {
	reference rhf
	basis cc-pvtz
}

set_num_threads( 4 )
memory 2 gb

molecule MOL {
0 1

H	 -2.123894	 -0.667238	 -0.609809
O	 -2.041679	 -0.058866	 0.103463
C	 -0.959304	 0.780994	 -0.094939
C	 0.354905	 0.037902	 -0.006215
H	 -0.985899	 1.279578	 -1.057596
H	 -0.969809	 1.529522	 0.682889
F	 0.155607	 -1.258866	 0.150198
F	 1.049377	 0.203204	 -1.112552
F	 1.094792	 0.444477	 0.997397

	symmetry c1
}
set optking {
	frozen_dihedral = ("
		7 4 3 5
	")
}

ee,wfn = optimize('scf', return_wfn=True)
oeprop( wfn, 'DIPOLE', 'QUADRUPOLE', 'MULLIKEN_CHARGES')
f=open( 'psi4out.xyz', 'w' )
f.write( "9  " )
f.write( str(ee) + "\n" )
f.write( MOL.save_string_xyz() )
f.close()
--------------------------------------------------------------------------

    Molecular point group: c1
  Charge       = 0
  Multiplicity = 1
  Basis Set: CC-PVTZ
  Basis Set:
  @DF-RHF Final Energy:  -450.83895693095985
    Total Energy =                       -450.8389569309596254
    Molecular point group: c1
  Basis Set: CC-PVTZ
  Basis Set:
  Basis Set: CC-PVTZ
  Basis Set:
  @DF-RHF Final Energy:  -450.83944648553501
    Total Energy =                       -450.8394464855352908
  Basis Set: CC-PVTZ
  Basis Set:
  Basis Set: CC-PVTZ
  Basis Set:
  @DF-RHF Final Energy:  -450.84004000225627
    Total Energy =                       -450.8400400022562735
  Basis Set: CC-PVTZ
  Basis Set:
  Basis Set: CC-PVTZ
  Basis Set:
  @DF-RHF Final Energy:  -450.84007079091805
    Total Energy =                       -450.8400707909179346
  Basis Set: CC-PVTZ
  Basis Set:
  Basis Set: CC-PVTZ
  Basis Set:
  @DF-RHF Final Energy:  -450.84007349230700
    Total Energy =                       -450.8400734923069422
  Basis Set: CC-PVTZ
  Basis Set:
  Charge       = 0
  Multiplicity = 1
  Basis Set: CC-PVTZ
  Basis Set:

    Orbital Energies (a.u.)
    -----------------------

    Doubly Occupied:

       1A    -26.339314     2A    -26.337195     3A    -26.335626
       4A    -20.582851     5A    -11.495636     6A    -11.309927
       7A     -1.747893     8A     -1.644503     9A     -1.641448
      10A     -1.406083    11A     -1.044707    12A     -0.930162
      13A     -0.836325    14A     -0.835020    15A     -0.813792
      16A     -0.729488    17A     -0.719001    18A     -0.705199
      19A     -0.670467    20A     -0.665824    21A     -0.647940
      22A     -0.630923    23A     -0.616072    24A     -0.529143
      25A     -0.483930

  @DF-RHF Final Energy:  -450.84007381190213

   => Energetics <=

    Nuclear Repulsion Energy =            276.5132213615111141
    One-Electron Energy =               -1175.3096549693104862
    Two-Electron Energy =                 447.9563597958972423
    DFT Exchange-Correlation Energy =       0.0000000000000000
    Empirical Dispersion Energy =           0.0000000000000000
    PCM Polarization Energy =               0.0000000000000000
    EFP Energy =                            0.0000000000000000
    Total Energy =                       -450.8400738119021298
    Molecular point group: c1
  Basis Set: CC-PVTZ
  Basis Set:

  -Total Gradient:
     Atom            X                  Y                   Z
    ------   -----------------  -----------------  -----------------
       1       -0.000022730379     0.000016530225     0.000015325748
       2        0.000025012895    -0.000041443059    -0.000028122456
       3       -0.000922545219    -0.001762881030    -0.000436247990
       4        0.000163025733     0.000023079144    -0.001861807080
       5        0.000769121015     0.001470823456     0.000782035821
       6        0.000015369287     0.000009844175    -0.000002448543
       7       -0.000019150402     0.000280040471     0.001533764385
       8       -0.000009958764    -0.000003832874    -0.000064989108
       9        0.000001855834     0.000007839491     0.000062489222

  **** Optimization is complete! (in 6 steps) ****
    Final optimized geometry and variables:
    Molecular point group: c1

    Geometry (in Angstrom), charge = 0, multiplicity = 1:

    H           -2.138240381846    -0.714128359855    -0.575424749380
    O           -2.081313468822    -0.066809999463     0.104625598823
    C           -0.992381741587     0.763442765315    -0.086845273805
    C            0.359294864899     0.036076563738    -0.012100441637
    H           -1.026978379589     1.289943147169    -1.032934266280
    H           -1.009101801120     1.495998941501     0.704374331049
    F            0.218313536576    -1.264270705282     0.104143054571
    F            1.079732830836     0.258148686829    -1.095472210968
    F            1.075545664179     0.447462570918     1.013695744466

  Mulliken Charges: (a.u.)
   Center  Symbol    Alpha    Beta     Spin     Total
       1     H     0.38813  0.38813  0.00000  0.22374
       2     O     4.18432  4.18432  0.00000 -0.36864
       3     C     3.00840  3.00840  0.00000 -0.01679
       4     C     2.67773  2.67773  0.00000  0.64454
       5     H     0.46112  0.46112  0.00000  0.07777
       6     H     0.44799  0.44799  0.00000  0.10403
       7     F     4.60916  4.60916  0.00000 -0.21831
       8     F     4.61262  4.61262  0.00000 -0.22523
       9     F     4.61055  4.61055  0.00000 -0.22109

   Total alpha = 25.00000, Total beta = 25.00000, Total charge = -0.00000

*** Psi4 exiting successfully. Buy a developer a beer!
