  ==> Input File <==

--------------------------------------------------------------------------
set {
	reference rhf
	basis 6-31G*
}

set_num_threads( 1 )
memory 2 gb

molecule MOL {
0 1

O	 0.796840	 0.044119	 0.765367
C	 1.705091	 0.115954	 0.001797
C	 1.868688	 1.163278	 -1.072547
O	 2.721346	 -0.737485	 -0.000216
C	 0.726271	 2.173662	 -1.113208
H	 2.823130	 1.654646	 -0.904284
H	 1.967792	 0.642600	 -2.021121
C	 0.918067	 3.222810	 -2.209366
H	 0.645031	 2.660624	 -0.146535
H	 -0.211018	 1.647767	 -1.265631
C	 -0.218549	 4.245061	 -2.263825
H	 1.861305	 3.744198	 -2.052992
H	 1.001229	 2.728107	 -3.175924
C	 -0.026962	 5.292356	 -3.360055
H	 -0.301271	 4.741969	 -1.299781
H	 -1.161353	 3.725834	 -2.420863
H	 0.891686	 5.852802	 -3.211064
H	 -0.848362	 6.001986	 -3.373432
H	 0.025232	 4.828497	 -4.341086
C	 4.024888	 -0.184556	 -0.001949
H	 4.179030	 0.422472	 -0.882452
H	 4.701782	 -1.024608	 -0.003642
H	 4.181981	 0.421185	 0.878906

	symmetry c1
}
set optking {
	frozen_dihedral = ("
		15 11 8 12,
		9 5 8 12,
		1 2 3 6,
		9 5 3 6
	")
}

ee = energy('scf')
oeprop('DIPOLE', 'QUADRUPOLE', 'MULLIKEN_CHARGES')
f=open( 'psi4out.xyz', 'w' )
f.write( "23  " )
f.write( str(ee) + "\n" )
f.write( MOL.save_string_xyz() )
f.close()
--------------------------------------------------------------------------

    Molecular point group: c1

    Geometry (in Angstrom), charge = 0, multiplicity = 1:

       Center              X                  Y                   Z               Mass
    ------------   -----------------  -----------------  -----------------  -----------------
           O         -0.618645607840    -1.643808006222     1.783056199621    15.994914619560
           C          0.289605392160    -1.571973006222     1.019486199621    12.000000000000
           C          0.453202392160    -0.524649006222    -0.054857800379    12.000000000000
           O          1.305860392160    -2.425412006222     1.017473199621    15.994914619560
           C         -0.689214607840     0.485734993778    -0.095518800379    12.000000000000
           H          1.407644392160    -0.033281006222     0.113405199621     1.007825032070
           H          0.552306392160    -1.045327006222    -1.003431800379     1.007825032070
           C         -0.497418607840     1.534882993778    -1.191676800379    12.000000000000
           H         -0.770454607840     0.972696993778     0.871154199621     1.007825032070
           H         -1.626503607840    -0.040160006222    -0.247941800379     1.007825032070
           C         -1.634034607840     2.557133993778    -1.246135800379    12.000000000000
           H          0.445819392160     2.056270993778    -1.035302800379     1.007825032070
           H         -0.414256607840     1.040179993778    -2.158234800379     1.007825032070
           C         -1.442447607840     3.604428993778    -2.342365800379    12.000000000000
           H         -1.716756607840     3.054041993778    -0.282091800379     1.007825032070
           H         -2.576838607840     2.037906993778    -1.403173800379     1.007825032070
           H         -0.523799607840     4.164874993778    -2.193374800379     1.007825032070
           H         -2.263847607840     4.314058993778    -2.355742800379     1.007825032070
           H         -1.390253607840     3.140569993778    -3.323396800379     1.007825032070
           C          2.609402392160    -1.872483006222     1.015740199621    12.000000000000
           H          2.763544392160    -1.265455006222     0.135237199621     1.007825032070
           H          3.286296392160    -2.712535006222     1.014047199621     1.007825032070
           H          2.766495392160    -1.266742006222     1.896595199621     1.007825032070

  Charge       = 0
  Multiplicity = 1
  Basis Set: 6-31G*
  Basis Set:

    Orbital Energies (a.u.)
    -----------------------

    Doubly Occupied:

       1A    -20.595932     2A    -20.551256     3A    -11.374304
       4A    -11.297144     5A    -11.239320     6A    -11.222155
       7A    -11.220910     8A    -11.218794     9A    -11.211829
      10A     -1.465497    11A     -1.369460    12A     -1.095599
      13A     -1.041918    14A     -0.987270    15A     -0.953239
      16A     -0.855491    17A     -0.798864    18A     -0.766679
      19A     -0.698935    20A     -0.684220    21A     -0.680282
      22A     -0.654268    23A     -0.622677    24A     -0.604144
      25A     -0.581618    26A     -0.566059    27A     -0.560873
      28A     -0.543705    29A     -0.512318    30A     -0.504195
      31A     -0.485753    32A     -0.474530    33A     -0.469853
      34A     -0.467687    35A     -0.453181    36A     -0.429189

  @DF-RHF Final Energy:  -422.95018008215965

   => Energetics <=

    Nuclear Repulsion Energy =            456.9542506722223720
    One-Electron Energy =               -1481.2905169479670349
    Two-Electron Energy =                 601.3860861935863795
    DFT Exchange-Correlation Energy =       0.0000000000000000
    Empirical Dispersion Energy =           0.0000000000000000
    PCM Polarization Energy =               0.0000000000000000
    EFP Energy =                            0.0000000000000000
    Total Energy =                       -422.9501800821583402

  Mulliken Charges: (a.u.)
   Center  Symbol    Alpha    Beta     Spin     Total
       1     O     4.26294  4.26294  0.00000 -0.52588
       2     C     2.60151  2.60151  0.00000  0.79699
       3     C     3.23279  3.23279  0.00000 -0.46558
       4     O     4.30364  4.30364  0.00000 -0.60728
       5     C     3.14998  3.14998  0.00000 -0.29996
       6     H     0.40540  0.40540  0.00000  0.18919
       7     H     0.39885  0.39885  0.00000  0.20231
       8     C     3.15307  3.15307  0.00000 -0.30615
       9     H     0.41180  0.41180  0.00000  0.17641
      10     H     0.40975  0.40975  0.00000  0.18049
      11     C     3.15177  3.15177  0.00000 -0.30353
      12     H     0.42579  0.42579  0.00000  0.14841
      13     H     0.42420  0.42420  0.00000  0.15160
      14     C     3.23964  3.23964  0.00000 -0.47928
      15     H     0.42117  0.42117  0.00000  0.15767
      16     H     0.42052  0.42052  0.00000  0.15896
      17     H     0.42221  0.42221  0.00000  0.15558
      18     H     0.41794  0.41794  0.00000  0.16412
      19     H     0.42173  0.42173  0.00000  0.15654
      20     C     3.10089  3.10089  0.00000 -0.20177
      21     H     0.41477  0.41477  0.00000  0.17046
      22     H     0.39832  0.39832  0.00000  0.20336
      23     H     0.41133  0.41133  0.00000  0.17734

   Total alpha = 36.00000, Total beta = 36.00000, Total charge = -0.00000
