  ==> Input File <==

--------------------------------------------------------------------------
set {
	reference rhf
	basis 6-31G*
}

set_num_threads( 4 )
memory 2 gb

molecule MOL {
0 1

O	 0.625848	 1.349995	 -0.000749
C	 0.486307	 0.169203	 0.000779
C	 1.608116	 -0.841643	 0.000302
O	 -0.698257	 -0.426125	 0.001050
C	 2.990107	 -0.200498	 -0.000684
H	 1.468623	 -1.481519	 -0.865924
H	 1.469683	 -1.481289	 0.866878
H	 3.129736	 0.423364	 -0.875135
H	 3.757882	 -0.966877	 -0.001197
H	 3.130964	 0.423383	 0.873533
C	 -1.720195	 0.142692	 0.813141
C	 -2.961627	 -0.706871	 0.641672
H	 -1.889239	 1.164737	 0.502606
H	 -1.385498	 0.158654	 1.841399
H	 -3.280824	 -0.717013	 -0.394266
H	 -3.769344	 -0.306932	 1.246064
H	 -2.774451	 -1.728628	 0.951889

	symmetry c1
}
set optking {
	frozen_dihedral = ("
		11 4 2 3
	")
}

ee = optimize('scf')
oeprop('DIPOLE', 'QUADRUPOLE', 'MULLIKEN_CHARGES')
f=open( 'psi4out.xyz', 'w' )
f.write( "17  " )
f.write( str(ee) + "\n" )
f.write( MOL.save_string_xyz() )
f.close()
--------------------------------------------------------------------------

    Molecular point group: c1
  Charge       = 0
  Multiplicity = 1
  Basis Set: 6-31G*
  Basis Set:
  @DF-RHF Final Energy:  -344.90375705663234
    Total Energy =                       -344.9037570566325144
    Molecular point group: c1
  Basis Set: 6-31G*
  Basis Set:
  Basis Set: 6-31G*
  Basis Set:
  @DF-RHF Final Energy:  -344.90125383414528
    Total Energy =                       -344.9012538341452228
  Basis Set: 6-31G*
  Basis Set:
  Basis Set: 6-31G*
  Basis Set:
  @DF-RHF Final Energy:  -344.90435732805798
    Total Energy =                       -344.9043573280578698
  Basis Set: 6-31G*
  Basis Set:
  Basis Set: 6-31G*
  Basis Set:
  @DF-RHF Final Energy:  -344.90451166156976
    Total Energy =                       -344.9045116615699840
  Basis Set: 6-31G*
  Basis Set:
  Basis Set: 6-31G*
  Basis Set:
  @DF-RHF Final Energy:  -344.90454686513471
    Total Energy =                       -344.9045468651346482
  Basis Set: 6-31G*
  Basis Set:
  Basis Set: 6-31G*
  Basis Set:
  @DF-RHF Final Energy:  -344.90454885089395
    Total Energy =                       -344.9045488508940593
  Basis Set: 6-31G*
  Basis Set:
  Charge       = 0
  Multiplicity = 1
  Basis Set: 6-31G*
  Basis Set:

    Orbital Energies (a.u.)
    -----------------------

    Doubly Occupied:

       1A    -20.593599     2A    -20.547900     3A    -11.372456
       4A    -11.287930     5A    -11.238917     6A    -11.223080
       7A    -11.216565     8A     -1.463240     9A     -1.362743
      10A     -1.068607    11A     -1.033061    12A     -0.909195
      13A     -0.851872    14A     -0.771258    15A     -0.697842
      16A     -0.683958    17A     -0.663971    18A     -0.630149
      19A     -0.589598    20A     -0.569799    21A     -0.557490
      22A     -0.525797    23A     -0.522075    24A     -0.515267
      25A     -0.503309    26A     -0.493206    27A     -0.451274
      28A     -0.434255

  @DF-RHF Final Energy:  -344.90454904072146

   => Energetics <=

    Nuclear Repulsion Energy =            314.4618753909476254
    One-Electron Energy =               -1093.1760156766108594
    Two-Electron Energy =                 433.8095912449416005
    DFT Exchange-Correlation Energy =       0.0000000000000000
    Empirical Dispersion Energy =           0.0000000000000000
    PCM Polarization Energy =               0.0000000000000000
    EFP Energy =                            0.0000000000000000
    Total Energy =                       -344.9045490407216334
    Molecular point group: c1
  Basis Set: 6-31G*
  Basis Set:

  -Total Gradient:
     Atom            X                  Y                   Z
    ------   -----------------  -----------------  -----------------
       1       -0.000046337933    -0.000029385455    -0.000035565561
       2        0.001455069912    -0.001568639161    -0.006990628505
       3       -0.000305721382    -0.000615141313     0.006878579856
       4       -0.002942856995     0.007181141145    -0.005443318487
       5       -0.000001941563    -0.000013788101     0.000002353285
       6        0.000003069830     0.000009877376     0.000004574855
       7        0.000006796846     0.000004945219     0.000006417932
       8        0.000007594545     0.000001048125    -0.000007129013
       9       -0.000002338189     0.000003353002    -0.000003382147
      10       -0.000005906574    -0.000000175604     0.000006485078
      11        0.001836910549    -0.004998935471     0.005577197600
      12        0.000001811193     0.000011948950     0.000000574364
      13       -0.000006371897     0.000011903725    -0.000001385334
      14       -0.000003928988     0.000001890903     0.000003779354
      15        0.000002848346     0.000001248444     0.000000734776
      16       -0.000000710815    -0.000000718149    -0.000000192212
      17        0.000002013114    -0.000000573637     0.000000904160

  **** Optimization is complete! (in 7 steps) ****
    Final optimized geometry and variables:
    Molecular point group: c1

    Geometry (in Angstrom), charge = 0, multiplicity = 1:

    O            0.622030930360     1.415363717778     0.027417201639
    C            0.463565652248     0.255439266814    -0.167977151630
    C            1.567341938889    -0.773167123617    -0.202701576860
    O           -0.741341174743    -0.308373367205    -0.275085986265
    C            2.960043178569    -0.165727062876    -0.312498463185
    H            1.367753352348    -1.468516668214    -1.011440647144
    H            1.461426224977    -1.347203782212     0.714814588094
    H            3.069265975026     0.393857454962    -1.234443477588
    H            3.712512934304    -0.946973698121    -0.299139073605
    H            3.154001544376     0.512247464762     0.508976334799
    C           -1.785884939063     0.219665399911     0.536412010168
    C           -2.996767069052    -0.670656408897     0.357059696131
    H           -1.993980980718     1.238034888570     0.240460818223
    H           -1.452373854676     0.230320577833     1.567470239583
    H           -3.313539924643    -0.678443419998    -0.679494827317
    H           -3.818227781158    -0.305574785498     0.965075489252
    H           -2.773474999466    -1.688834895248     0.654463137763

  Mulliken Charges: (a.u.)
   Center  Symbol    Alpha    Beta     Spin     Total
       1     O     4.27696  4.27696  0.00000 -0.55393
       2     C     2.60534  2.60534  0.00000  0.78932
       3     C     3.20579  3.20579  0.00000 -0.41158
       4     O     4.31797  4.31797  0.00000 -0.63595
       5     C     3.24051  3.24051  0.00000 -0.48103
       6     H     0.40063  0.40063  0.00000  0.19874
       7     H     0.40256  0.40256  0.00000  0.19487
       8     H     0.41207  0.41207  0.00000  0.17587
       9     H     0.41782  0.41782  0.00000  0.16435
      10     H     0.40715  0.40715  0.00000  0.18570
      11     C     3.00227  3.00227  0.00000 -0.00455
      12     C     3.24809  3.24809  0.00000 -0.49617
      13     H     0.40577  0.40577  0.00000  0.18845
      14     H     0.41811  0.41811  0.00000  0.16378
      15     H     0.40968  0.40968  0.00000  0.18064
      16     H     0.41658  0.41658  0.00000  0.16684
      17     H     0.41268  0.41268  0.00000  0.17464

   Total alpha = 28.00000, Total beta = 28.00000, Total charge =  0.00000
