  ==> Input File <==

--------------------------------------------------------------------------
set {
	reference rhf
	basis 6-31G*
}

set_num_threads( 1 )
memory 2 gb

molecule MOL {
0 1

H	 1.644107	 -1.684557	 0.309911
O	 2.016064	 -0.864478	 0.000222
C	 1.050492	 0.053836	 0.000068
C	 -0.318135	 -0.576402	 0.000164
O	 1.285279	 1.218255	 -0.000078
C	 -1.454360	 0.441875	 -0.000474
H	 -0.374042	 -1.230163	 -0.866135
H	 -0.374274	 -1.229227	 0.867154
C	 -2.826123	 -0.230780	 0.000056
H	 -1.357605	 1.085198	 -0.868380
H	 -1.357504	 1.086451	 0.866496
H	 -2.959731	 -0.858053	 -0.876869
H	 -3.619374	 0.509403	 -0.000080
H	 -2.959371	 -0.857318	 0.877556

	symmetry c1
}
set optking {
	frozen_dihedral = ("
		7 4 6 10,
		2 3 4 7
	")
}

ee = energy('scf')
oeprop('DIPOLE', 'QUADRUPOLE', 'MULLIKEN_CHARGES')
f=open( 'psi4out.xyz', 'w' )
f.write( "14  " )
f.write( str(ee) + "\n" )
f.write( MOL.save_string_xyz() )
f.close()
--------------------------------------------------------------------------

    Molecular point group: c1

    Geometry (in Angstrom), charge = 0, multiplicity = 1:

       Center              X                  Y                   Z               Mass
    ------------   -----------------  -----------------  -----------------  -----------------
           H          1.657956495061    -1.669995730863     0.306365983535     1.007825032070
           O          2.029913495061    -0.849916730863    -0.003323016465    15.994914619560
           C          1.064341495061     0.068397269137    -0.003477016465    12.000000000000
           C         -0.304285504939    -0.561840730863    -0.003381016465    12.000000000000
           O          1.299128495061     1.232816269137    -0.003623016465    15.994914619560
           C         -1.440510504939     0.456436269137    -0.004019016465    12.000000000000
           H         -0.360192504939    -1.215601730863    -0.869680016465     1.007825032070
           H         -0.360424504939    -1.214665730863     0.863608983535     1.007825032070
           C         -2.812273504939    -0.216218730863    -0.003489016465    12.000000000000
           H         -1.343755504939     1.099759269137    -0.871925016465     1.007825032070
           H         -1.343654504939     1.101012269137     0.862950983535     1.007825032070
           H         -2.945881504939    -0.843491730863    -0.880414016465     1.007825032070
           H         -3.605524504939     0.523964269137    -0.003625016465     1.007825032070
           H         -2.945521504939    -0.842756730863     0.874010983535     1.007825032070

  Charge       = 0
  Multiplicity = 1
  Basis Set: 6-31G*
  Basis Set:

    Orbital Energies (a.u.)
    -----------------------

    Doubly Occupied:

       1A    -20.614416     2A    -20.550796     3A    -11.381581
       4A    -11.253068     5A    -11.232515     6A    -11.222925
       7A     -1.471301     8A     -1.371255     9A     -1.090273
      10A     -0.981524    11A     -0.851732    12A     -0.819183
      13A     -0.721436    14A     -0.676010    15A     -0.661185
      16A     -0.623289    17A     -0.591640    18A     -0.584202
      19A     -0.553829    20A     -0.509604    21A     -0.497753
      22A     -0.490224    23A     -0.476525    24A     -0.441299

  @DF-RHF Final Energy:  -305.86687782249430

   => Energetics <=

    Nuclear Repulsion Energy =            240.4015791985519570
    One-Electron Energy =                -893.2018131348384031
    Two-Electron Energy =                 346.9333561137924562
    DFT Exchange-Correlation Energy =       0.0000000000000000
    Empirical Dispersion Energy =           0.0000000000000000
    PCM Polarization Energy =               0.0000000000000000
    EFP Energy =                            0.0000000000000000
    Total Energy =                       -305.8668778224939615

  Mulliken Charges: (a.u.)
   Center  Symbol    Alpha    Beta     Spin     Total
       1     H     0.26792  0.26792  0.00000  0.46416
       2     O     4.34903  4.34903  0.00000 -0.69806
       3     C     2.60491  2.60491  0.00000  0.79019
       4     C     3.23908  3.23908  0.00000 -0.47815
       5     O     4.26708  4.26708  0.00000 -0.53416
       6     C     3.15123  3.15123  0.00000 -0.30245
       7     H     0.39894  0.39894  0.00000  0.20212
       8     H     0.40927  0.40927  0.00000  0.18146
       9     C     3.24368  3.24368  0.00000 -0.48735
      10     H     0.40631  0.40631  0.00000  0.18737
      11     H     0.40748  0.40748  0.00000  0.18504
      12     H     0.42084  0.42084  0.00000  0.15832
      13     H     0.41263  0.41263  0.00000  0.17474
      14     H     0.42160  0.42160  0.00000  0.15680

   Total alpha = 24.00000, Total beta = 24.00000, Total charge = -0.00000
