  ==> Input File <==

--------------------------------------------------------------------------
set {
	reference rhf
	basis 6-31G*
}

set_num_threads( 4 )
memory 2 gb

molecule MOL {
0 1

H	 -3.161837	 0.500524	 -0.000234
C	 -2.367097	 -0.232926	 -0.000000
O	 -1.158440	 0.455814	 -0.000122
H	 -2.468853	 -0.861886	 -0.882833
H	 -2.468942	 -0.861421	 0.883154
C	 -1.248823	 1.774206	 0.448820
C	 0.131713	 2.405209	 0.397633
H	 -1.638510	 1.798040	 1.467386
H	 -1.945354	 2.336201	 -0.174809
C	 0.128747	 3.856987	 0.874299
H	 0.804488	 1.811359	 1.008679
H	 0.499820	 2.345836	 -0.622010
H	 -0.213805	 3.936013	 1.902324
H	 1.125660	 4.282144	 0.826841
H	 -0.521270	 4.474268	 0.260421

	symmetry c1
}
set optking {
	frozen_dihedral = ("
		6 3 2 4
	")
}

ee = optimize('scf')
oeprop('DIPOLE', 'QUADRUPOLE', 'MULLIKEN_CHARGES')
f=open( 'psi4out.xyz', 'w' )
f.write( "15  " )
f.write( str(ee) + "\n" )
f.write( MOL.save_string_xyz() )
f.close()
--------------------------------------------------------------------------

    Molecular point group: c1
  Charge       = 0
  Multiplicity = 1
  Basis Set: 6-31G*
  Basis Set:
  @DF-RHF Final Energy:  -232.13533422024429
    Total Energy =                       -232.1353342202441468
    Molecular point group: c1
  Basis Set: 6-31G*
  Basis Set:
  Basis Set: 6-31G*
  Basis Set:
  @DF-RHF Final Energy:  -232.13622491597039
    Total Energy =                       -232.1362249159706153
  Basis Set: 6-31G*
  Basis Set:
  Basis Set: 6-31G*
  Basis Set:
  @DF-RHF Final Energy:  -232.13649544908725
    Total Energy =                       -232.1364954490872492
  Basis Set: 6-31G*
  Basis Set:
  Charge       = 0
  Multiplicity = 1
  Basis Set: 6-31G*
  Basis Set:

    Orbital Energies (a.u.)
    -----------------------

    Doubly Occupied:

       1A    -20.550387     2A    -11.266623     3A    -11.263518
       4A    -11.213801     5A    -11.212704     6A     -1.374329
       7A     -1.056944     8A     -0.955300     9A     -0.877329
      10A     -0.808826    11A     -0.672128    12A     -0.652130
      13A     -0.629206    14A     -0.608088    15A     -0.563906
      16A     -0.545339    17A     -0.502089    18A     -0.487694
      19A     -0.478722    20A     -0.460535    21A     -0.409710

  @DF-RHF Final Energy:  -232.13649694804178

   => Energetics <=

    Nuclear Repulsion Energy =            189.4860045570464422
    One-Electron Energy =                -690.0663865588488761
    Two-Electron Energy =                 268.4438850537608232
    DFT Exchange-Correlation Energy =       0.0000000000000000
    Empirical Dispersion Energy =           0.0000000000000000
    PCM Polarization Energy =               0.0000000000000000
    EFP Energy =                            0.0000000000000000
    Total Energy =                       -232.1364969480416107
    Molecular point group: c1
  Basis Set: 6-31G*
  Basis Set:

  -Total Gradient:
     Atom            X                  Y                   Z
    ------   -----------------  -----------------  -----------------
       1       -0.000033972393     0.000027052514    -0.000003369470
       2        0.001315209826    -0.002092850350     0.000811831408
       3        0.000228143080    -0.000581803312     0.002589750587
       4       -0.001090955640     0.002075625328    -0.001312801808
       5        0.000047551861     0.000002732195    -0.000002964416
       6       -0.000472658135     0.000674629061    -0.002031261410
       7        0.000021344782    -0.000060805659    -0.000029103042
       8        0.000003957746    -0.000024969852    -0.000019932037
       9       -0.000013575989    -0.000029716176    -0.000010044643
      10       -0.000016015716     0.000004631568     0.000009951836
      11        0.000007785039     0.000004799216    -0.000003380794
      12        0.000003023100    -0.000001092054     0.000000935090
      13       -0.000001762441     0.000004547260     0.000000518117
      14       -0.000000636581    -0.000003438701     0.000001119856
      15        0.000002561462     0.000000658968    -0.000001249274

  **** Optimization is complete! (in 4 steps) ****
    Final optimized geometry and variables:
    Molecular point group: c1

    Geometry (in Angstrom), charge = 0, multiplicity = 1:

    H           -2.303009534026    -1.208875037064    -0.359769186247
    C           -1.444268958963    -1.875297475596    -0.345644139277
    O           -0.242131765920    -1.166760690634    -0.335905455735
    H           -1.480844525773    -2.478723451077    -1.244315225508
    H           -1.523821270909    -2.518713934982     0.526040860774
    C           -0.321913776796     0.152729270057     0.115085526386
    C            1.064226313420     0.770156335817     0.055097735157
    H           -0.703658932527     0.184277195188     1.136199565134
    H           -1.015285739856     0.719226133985    -0.506599563377
    C            1.076688128468     2.224608970983     0.523748400086
    H            1.734186437992     0.173381770424     0.666346712158
    H            1.427088540892     0.701451078579    -0.965851699195
    H            0.738262402941     2.312602222446     1.552421997313
    H            2.077450500219     2.640037320670     0.470917420504
    H            0.430572729665     2.844842622949    -0.091327399786

  Mulliken Charges: (a.u.)
   Center  Symbol    Alpha    Beta     Spin     Total
       1     H     0.43098  0.43098  0.00000  0.13805
       2     C     3.07640  3.07640  0.00000 -0.15280
       3     O     4.30952  4.30952  0.00000 -0.61905
       4     H     0.41661  0.41661  0.00000  0.16678
       5     H     0.42471  0.42471  0.00000  0.15059
       6     C     2.98140  2.98140  0.00000  0.03720
       7     C     3.15995  3.15995  0.00000 -0.31990
       8     H     0.43359  0.43359  0.00000  0.13282
       9     H     0.43283  0.43283  0.00000  0.13434
      10     C     3.24794  3.24794  0.00000 -0.49587
      11     H     0.41435  0.41435  0.00000  0.17130
      12     H     0.41438  0.41438  0.00000  0.17123
      13     H     0.42091  0.42091  0.00000  0.15818
      14     H     0.41544  0.41544  0.00000  0.16911
      15     H     0.42099  0.42099  0.00000  0.15801

   Total alpha = 21.00000, Total beta = 21.00000, Total charge =  0.00000
