                              Psi4 1.0.54 Driver

  ==> Input File <==

--------------------------------------------------------------------------
set {
	reference rhf
	basis cc-pvtz
}

set_num_threads( 4 )
memory 2 gb

molecule MOL {
0 1

H	 2.350616	 -0.994693	 -0.847317
N	 2.433987	 -0.362316	 -0.080024
C	 1.263552	 0.494993	 0.021953
H	 3.259639	 0.178453	 -0.232353
C	 -0.016533	 -0.325589	 -0.026925
H	 1.280915	 1.180773	 -0.818522
H	 1.263064	 1.106893	 0.925038
C	 -1.280353	 0.525521	 0.047747
H	 -0.016686	 -0.912532	 -0.939714
H	 -0.014099	 -1.037598	 0.796369
C	 -2.560681	 -0.301323	 -0.007747
H	 -1.279957	 1.241025	 -0.770189
H	 -1.270445	 1.110526	 0.963468
H	 -2.617064	 -0.872870	 -0.928010
H	 -3.439525	 0.331102	 0.043462
H	 -2.609427	 -1.002736	 0.818585

	symmetry c1
}
set optking {
	frozen_dihedral = ("
		1 2 3 6
	")
}

ee,wfn = optimize('scf', return_wfn=True)
oeprop( wfn, 'DIPOLE', 'QUADRUPOLE', 'MULLIKEN_CHARGES')
f=open( 'psi4out.xyz', 'w' )
f.write( "16  " )
f.write( str(ee) + "\n" )
f.write( MOL.save_string_xyz() )
f.close()
--------------------------------------------------------------------------

    Molecular point group: c1
  Charge       = 0
  Multiplicity = 1
  Basis Set: CC-PVTZ
  Basis Set:
  @DF-RHF Final Energy:  -212.39807967252494
    Total Energy =                       -212.3980796725250002
    Molecular point group: c1
  Basis Set: CC-PVTZ
  Basis Set:
  Basis Set: CC-PVTZ
  Basis Set:
  @DF-RHF Final Energy:  -212.39980707713599
    Total Energy =                       -212.3998070771359608
  Basis Set: CC-PVTZ
  Basis Set:
  Basis Set: CC-PVTZ
  Basis Set:
  @DF-RHF Final Energy:  -212.40004706506693
    Total Energy =                       -212.4000470650668149
  Basis Set: CC-PVTZ
  Basis Set:
  Basis Set: CC-PVTZ
  Basis Set:
  @DF-RHF Final Energy:  -212.40005009551123
    Total Energy =                       -212.4000500955111761
  Basis Set: CC-PVTZ
  Basis Set:
  Charge       = 0
  Multiplicity = 1
  Basis Set: CC-PVTZ
  Basis Set:

    Orbital Energies (a.u.)
    -----------------------

    Doubly Occupied:

       1A    -15.525588     2A    -11.237747     3A    -11.213748
       4A    -11.209683     5A    -11.206502     6A     -1.177805
       7A     -1.061541     8A     -0.960113     9A     -0.844723
      10A     -0.794046    11A     -0.661327    12A     -0.643653
      13A     -0.604705    14A     -0.576539    15A     -0.569055
      16A     -0.524012    17A     -0.503566    18A     -0.470862
      19A     -0.465996    20A     -0.462626    21A     -0.382620

  @DF-RHF Final Energy:  -212.40005040411779

   => Energetics <=

    Nuclear Repulsion Energy =            186.6515333754008452
    One-Electron Energy =                -655.9102536225271933
    Two-Electron Energy =                 256.8586698430086130
    DFT Exchange-Correlation Energy =       0.0000000000000000
    Empirical Dispersion Energy =           0.0000000000000000
    PCM Polarization Energy =               0.0000000000000000
    EFP Energy =                            0.0000000000000000
    Total Energy =                       -212.4000504041177351
    Molecular point group: c1
  Basis Set: CC-PVTZ
  Basis Set:

  -Total Gradient:
     Atom            X                  Y                   Z
    ------   -----------------  -----------------  -----------------
       1       -0.000673568622    -0.001022992500     0.000939355493
       2        0.001085211605     0.001535722431    -0.000938844649
       3       -0.001219564760    -0.001469510781    -0.000781578599
       4        0.000002374381     0.000004265122    -0.000010912100
       5        0.000038641813     0.000023572087     0.000007513471
       6        0.000768801577     0.000927975387     0.000769602695
       7       -0.000003534639    -0.000015646437     0.000011166916
       8       -0.000001237746    -0.000005053675     0.000001210431
       9        0.000009159740     0.000011058772     0.000006060182
      10        0.000006495030     0.000015851235    -0.000001471350
      11       -0.000016745687     0.000006690667     0.000000354920
      12        0.000006996765    -0.000002996135     0.000001774641
      13        0.000000942902    -0.000007198352    -0.000001185511
      14        0.000002813752    -0.000001379046     0.000000526414
      15       -0.000008309284    -0.000002534010    -0.000002103356
      16        0.000001523172     0.000002175237    -0.000001469595

  **** Optimization is complete! (in 5 steps) ****
    Final optimized geometry and variables:
    Molecular point group: c1

    Geometry (in Angstrom), charge = 0, multiplicity = 1:

    H            2.339826832580    -0.989724529937    -0.953315349192
    N            2.429598681188    -0.354537712621    -0.188463082834
    C            1.259706753658     0.501905511114    -0.079733227568
    H            3.261413586404     0.176932001255    -0.330755194058
    C           -0.015397403184    -0.324214617118    -0.019631018612
    H            1.187071350883     1.226302529663    -0.892077236563
    H            1.353554037478     1.077997092610     0.835365243064
    C           -1.273521933325     0.521788784606     0.149113800409
    H           -0.100503121688    -0.914926007255    -0.930006604154
    H            0.068141365889    -1.031230965337     0.799740864906
    C           -2.549438050507    -0.311702142041     0.205718013914
    H           -1.344857183730     1.232156530645    -0.669989002672
    H           -1.189712919048     1.111705889426     1.057665360850
    H           -2.680973879818    -0.888061679497    -0.704061152431
    H           -3.424077818793     0.316785930581     0.327945292203
    H           -2.524026011578    -1.009066324890     1.036251295468

  Mulliken Charges: (a.u.)
   Center  Symbol    Alpha    Beta     Spin     Total
       1     H     0.43060  0.43060  0.00000  0.13880
       2     N     3.69045  3.69045  0.00000 -0.38090
       3     C     3.02159  3.02159  0.00000 -0.04319
       4     H     0.43024  0.43024  0.00000  0.13952
       5     C     3.08300  3.08300  0.00000 -0.16599
       6     H     0.46968  0.46968  0.00000  0.06064
       7     H     0.45846  0.45846  0.00000  0.08308
       8     C     3.08832  3.08832  0.00000 -0.17663
       9     H     0.46115  0.46115  0.00000  0.07769
      10     H     0.44882  0.44882  0.00000  0.10236
      11     C     3.14919  3.14919  0.00000 -0.29838
      12     H     0.45610  0.45610  0.00000  0.08780
      13     H     0.45405  0.45405  0.00000  0.09189
      14     H     0.45553  0.45553  0.00000  0.08895
      15     H     0.44866  0.44866  0.00000  0.10269
      16     H     0.45417  0.45417  0.00000  0.09166

   Total alpha = 21.00000, Total beta = 21.00000, Total charge = -0.00000

*** Psi4 exiting successfully. Buy a developer a beer!
