  ==> Input File <==

--------------------------------------------------------------------------
set {
	reference rhf
	basis 6-31G*
}

set_num_threads( 1 )
memory 2 gb

molecule MOL {
0 1

H	 1.029928	 -0.944259	 -1.084703
O	 1.233834	 -0.021104	 -1.148415
C	 0.709265	 0.639550	 -0.033818
C	 -0.793441	 0.596080	 0.058728
H	 1.039801	 1.669232	 -0.109342
H	 1.135396	 0.242965	 0.887137
C	 -1.530462	 -0.493172	 -0.025500
H	 -1.268471	 1.554324	 0.202247
H	 -1.092586	 -1.461565	 -0.186463
H	 -2.602122	 -0.450675	 0.050101

	symmetry c1
}
set optking {
	frozen_dihedral = ("
		5 3 2 1,
		3 4 7 9
	")
}

ee = energy('scf')
oeprop('DIPOLE', 'QUADRUPOLE', 'MULLIKEN_CHARGES')
f=open( 'psi4out.xyz', 'w' )
f.write( "10  " )
f.write( str(ee) + "\n" )
f.write( MOL.save_string_xyz() )
f.close()
--------------------------------------------------------------------------

    Molecular point group: c1

    Geometry (in Angstrom), charge = 0, multiplicity = 1:

       Center              X                  Y                   Z               Mass
    ------------   -----------------  -----------------  -----------------  -----------------
           H          1.054262113812    -1.102536732691    -0.763920941294     1.007825032070
           O          1.258168113812    -0.179381732691    -0.827632941294    15.994914619560
           C          0.733599113812     0.481272267309     0.286964058706    12.000000000000
           C         -0.769106886188     0.437802267309     0.379510058706    12.000000000000
           H          1.064135113812     1.510954267309     0.211440058706     1.007825032070
           H          1.159730113812     0.084687267309     1.207919058706     1.007825032070
           C         -1.506127886188    -0.651449732691     0.295282058706    12.000000000000
           H         -1.244136886188     1.396046267309     0.523029058706     1.007825032070
           H         -1.068251886188    -1.619842732691     0.134319058706     1.007825032070
           H         -2.577787886188    -0.608952732691     0.370883058706     1.007825032070

  Charge       = 0
  Multiplicity = 1
  Basis Set: 6-31G*
  Basis Set:

    Orbital Energies (a.u.)
    -----------------------

    Doubly Occupied:

       1A    -20.557745     2A    -11.276287     3A    -11.232458
       4A    -11.226123     5A     -1.366716     6A     -1.061719
       7A     -0.928256     8A     -0.769224     9A     -0.699143
      10A     -0.651017    11A     -0.622246    12A     -0.574693
      13A     -0.531319    14A     -0.501388    15A     -0.438349
      16A     -0.369900

  @DF-RHF Final Energy:  -191.91067063894150

   => Energetics <=

    Nuclear Repulsion Energy =            118.8094794592497010
    One-Electron Energy =                -495.8271447231190905
    Two-Electron Energy =                 185.1069946249278360
    DFT Exchange-Correlation Energy =       0.0000000000000000
    Empirical Dispersion Energy =           0.0000000000000000
    PCM Polarization Energy =               0.0000000000000000
    EFP Energy =                            0.0000000000000000
    Total Energy =                       -191.9106706389415535

  Mulliken Charges: (a.u.)
   Center  Symbol    Alpha    Beta     Spin     Total
       1     H     0.28069  0.28069  0.00000  0.43862
       2     O     4.36266  4.36266  0.00000 -0.72531
       3     C     3.00930  3.00930  0.00000 -0.01861
       4     C     3.08270  3.08270  0.00000 -0.16540
       5     H     0.41193  0.41193  0.00000  0.17614
       6     H     0.42283  0.42283  0.00000  0.15433
       7     C     3.19584  3.19584  0.00000 -0.39167
       8     H     0.40643  0.40643  0.00000  0.18714
       9     H     0.42073  0.42073  0.00000  0.15854
      10     H     0.40689  0.40689  0.00000  0.18622

   Total alpha = 16.00000, Total beta = 16.00000, Total charge =  0.00000
