  ==> Input File <==

--------------------------------------------------------------------------
set {
	reference rhf
	basis 6-31G*
}

set_num_threads( 4 )
memory 2 gb

molecule MOL {
0 1

H	 -1.070890	 -1.366565	 0.180696
O	 -1.422729	 -0.573567	 -0.196946
C	 -0.731407	 0.539437	 0.309156
C	 0.680193	 0.672443	 -0.251532
H	 -1.319765	 1.404033	 0.030086
H	 -0.700012	 0.506517	 1.397677
C	 0.725629	 1.245125	 -1.668457
H	 1.259695	 1.303074	 0.416396
H	 1.144254	 -0.311485	 -0.242986
H	 0.335403	 2.258018	 -1.699561
H	 1.743811	 1.282893	 -2.041075
H	 0.145100	 0.638038	 -2.358888

	symmetry c1
}
set optking {
	frozen_dihedral = ("
		8 4 3 2
	")
}

ee = optimize('scf')
oeprop('DIPOLE', 'QUADRUPOLE', 'MULLIKEN_CHARGES')
f=open( 'psi4out.xyz', 'w' )
f.write( "12  " )
f.write( str(ee) + "\n" )
f.write( MOL.save_string_xyz() )
f.close()
--------------------------------------------------------------------------

    Molecular point group: c1
  Charge       = 0
  Multiplicity = 1
  Basis Set: 6-31G*
  Basis Set:
  @DF-RHF Final Energy:  -193.10878166181342
    Total Energy =                       -193.1087816618133957
    Molecular point group: c1
  Basis Set: 6-31G*
  Basis Set:
  Basis Set: 6-31G*
  Basis Set:
  @DF-RHF Final Energy:  -193.10914483457964
    Total Energy =                       -193.1091448345795527
  Basis Set: 6-31G*
  Basis Set:
  Basis Set: 6-31G*
  Basis Set:
  @DF-RHF Final Energy:  -193.10917672948614
    Total Energy =                       -193.1091767294861370
  Basis Set: 6-31G*
  Basis Set:
  Basis Set: 6-31G*
  Basis Set:
  @DF-RHF Final Energy:  -193.10917987764870
    Total Energy =                       -193.1091798776488417
  Basis Set: 6-31G*
  Basis Set:
  Charge       = 0
  Multiplicity = 1
  Basis Set: 6-31G*
  Basis Set:

    Orbital Energies (a.u.)
    -----------------------

    Doubly Occupied:

       1A    -20.553201     2A    -11.268219     3A    -11.220445
       4A    -11.209720     5A     -1.360194     6A     -1.049408
       7A     -0.920225     8A     -0.816866     9A     -0.680079
      10A     -0.634447    11A     -0.624440    12A     -0.567455
      13A     -0.530083    14A     -0.523025    15A     -0.484723
      16A     -0.468083    17A     -0.428659

  @DF-RHF Final Energy:  -193.10918012169012

   => Energetics <=

    Nuclear Repulsion Energy =            132.5715415940882451
    One-Electron Energy =                -524.6828967676706270
    Two-Electron Energy =                 199.0021750518922659
    DFT Exchange-Correlation Energy =       0.0000000000000000
    Empirical Dispersion Energy =           0.0000000000000000
    PCM Polarization Energy =               0.0000000000000000
    EFP Energy =                            0.0000000000000000
    Total Energy =                       -193.1091801216901445
    Molecular point group: c1
  Basis Set: 6-31G*
  Basis Set:

  -Total Gradient:
     Atom            X                  Y                   Z
    ------   -----------------  -----------------  -----------------
       1       -0.000005178473    -0.000042101317    -0.000012433570
       2        0.001169331382    -0.001893069201     0.002523288688
       3       -0.001270330061     0.001877911494    -0.002890747782
       4       -0.001034364660     0.003539391606    -0.001759219439
       5       -0.000002293029     0.000009703089    -0.000005852084
       6       -0.000019578444    -0.000038704820    -0.000000362778
       7        0.000016315671     0.000039807066     0.000027041720
       8        0.001150892853    -0.003416126102     0.002118323939
       9        0.000017549243    -0.000051501883    -0.000003421383
      10        0.000014554180    -0.000013525044     0.000003994674
      11       -0.000038550121     0.000027930830     0.000010596761
      12        0.000001651461    -0.000039715715    -0.000011208750

  **** Optimization is complete! (in 5 steps) ****
    Final optimized geometry and variables:
    Molecular point group: c1

    Geometry (in Angstrom), charge = 0, multiplicity = 1:

    H           -0.772538988353    -1.786150819966     0.509577101295
    O           -1.205740838915    -0.989543643291     0.236829743164
    C           -0.515638083899     0.114574618525     0.764933032695
    C            0.899811353756     0.246260214645     0.206515954214
    H           -1.108248880324     0.985908974148     0.515963236572
    H           -0.481072003845     0.046313564953     1.850905349073
    C            0.941843445182     0.780085152113    -1.222760990964
    H            1.493680095887     0.863216326297     0.876960622473
    H            1.366494668525    -0.738105107996     0.239320665835
    H            0.551146029414     1.792484237900    -1.271874895530
    H            1.956261558039     0.797275912441    -1.608312573020
    H            0.341605761117     0.159093818806    -1.878870415388

  Mulliken Charges: (a.u.)
   Center  Symbol    Alpha    Beta     Spin     Total
       1     H     0.28313  0.28313  0.00000  0.43374
       2     O     4.36880  4.36880  0.00000 -0.73761
       3     C     2.99714  2.99714  0.00000  0.00572
       4     C     3.16403  3.16403  0.00000 -0.32805
       5     H     0.41584  0.41584  0.00000  0.16832
       6     H     0.42898  0.42898  0.00000  0.14203
       7     C     3.24210  3.24210  0.00000 -0.48419
       8     H     0.42167  0.42167  0.00000  0.15665
       9     H     0.42742  0.42742  0.00000  0.14516
      10     H     0.42129  0.42129  0.00000  0.15742
      11     H     0.41934  0.41934  0.00000  0.16133
      12     H     0.41026  0.41026  0.00000  0.17949

   Total alpha = 17.00000, Total beta = 17.00000, Total charge = -0.00000
