  ==> Input File <==

--------------------------------------------------------------------------
set {
	reference rhf
	basis 6-31G*
}

set_num_threads( 4 )
memory 2 gb

molecule MOL {
0 1

H	 1.143950	 -1.992219	 -3.619581
O	 2.053787	 -1.735964	 -3.659603
C	 2.147214	 -0.365269	 -3.953746
C	 1.752433	 0.528923	 -2.783576
H	 3.183115	 -0.190126	 -4.214336
H	 1.547926	 -0.121935	 -4.830343
C	 0.286747	 0.393548	 -2.363688
H	 2.396788	 0.296897	 -1.939575
H	 1.954753	 1.561645	 -3.062717
C	 -0.091721	 1.342687	 -1.223199
H	 0.095358	 -0.632111	 -2.060772
H	 -0.355560	 0.592293	 -3.221757
C	 -1.570727	 1.308579	 -0.821057
H	 0.523020	 1.119738	 -0.353007
H	 0.160948	 2.358439	 -1.520027
C	 -2.037799	 -0.007733	 -0.193645
H	 -1.750617	 2.113728	 -0.111698
H	 -2.185234	 1.531086	 -1.692096
C	 -3.489788	 0.042957	 0.286558
H	 -1.390820	 -0.254184	 0.647064
H	 -1.932436	 -0.820881	 -0.907782
C	 -4.216917	 1.317354	 -0.141063
H	 -4.025645	 -0.823308	 -0.095450
H	 -3.513059	 -0.038752	 1.371301
H	 -4.239342	 1.411634	 -1.223113
H	 -5.243387	 1.322503	 0.212445
H	 -3.726170	 2.201406	 0.256408

	symmetry c1
}
set optking {
	frozen_dihedral = ("
		20 16 19 22
	")
}

ee = optimize('scf')
oeprop('DIPOLE', 'QUADRUPOLE', 'MULLIKEN_CHARGES')
f=open( 'psi4out.xyz', 'w' )
f.write( "27  " )
f.write( str(ee) + "\n" )
f.write( MOL.save_string_xyz() )
f.close()
--------------------------------------------------------------------------

    Molecular point group: c1
  Charge       = 0
  Multiplicity = 1
  Basis Set: 6-31G*
  Basis Set:
  @DF-RHF Final Energy:  -388.26727022745911
    Total Energy =                       -388.2672702274581980
    Molecular point group: c1
  Basis Set: 6-31G*
  Basis Set:
  Basis Set: 6-31G*
  Basis Set:
  @DF-RHF Final Energy:  -388.26707977793285
    Total Energy =                       -388.2670797779319400
  Basis Set: 6-31G*
  Basis Set:
  Basis Set: 6-31G*
  Basis Set:
  @DF-RHF Final Energy:  -388.27118472900730
    Total Energy =                       -388.2711847290077003
  Basis Set: 6-31G*
  Basis Set:
  Basis Set: 6-31G*
  Basis Set:
  @DF-RHF Final Energy:  -388.27178968898102
    Total Energy =                       -388.2717896889812437
  Basis Set: 6-31G*
  Basis Set:
  @DF-RHF Final Energy:  -388.27180313464129
    Total Energy =                       -388.2718031346411180
  @DF-RHF Final Energy:  -388.27185130006853
    Total Energy =                       -388.2718513000680787
  Basis Set: 6-31G*
  Basis Set:
  @DF-RHF Final Energy:  -388.27187717836995
    Total Energy =                       -388.2718771783702323
  Basis Set: 6-31G*
  Basis Set:
  Basis Set: 6-31G*
  Basis Set:
  @DF-RHF Final Energy:  -388.27187926873017
    Total Energy =                       -388.2718792687301175
  Basis Set: 6-31G*
  Basis Set:
  Basis Set: 6-31G*
  Basis Set:
  @DF-RHF Final Energy:  -388.27188155325160
    Total Energy =                       -388.2718815532508643
  Basis Set: 6-31G*
  Basis Set:
  Charge       = 0
  Multiplicity = 1
  Basis Set: 6-31G*
  Basis Set:

    Orbital Energies (a.u.)
    -----------------------

    Doubly Occupied:

       1A    -20.552270     2A    -11.267001     3A    -11.219669
       4A    -11.217072     5A    -11.216788     6A    -11.215248
       7A    -11.215138     8A    -11.214656     9A    -11.209130
      10A     -1.359019    11A     -1.093591    12A     -1.057946
      13A     -1.008764    14A     -0.946113    15A     -0.894978
      16A     -0.830771    17A     -0.798421    18A     -0.763063
      19A     -0.693513    20A     -0.650200    21A     -0.637223
      22A     -0.613743    23A     -0.603565    24A     -0.587748
      25A     -0.578898    26A     -0.555147    27A     -0.536389
      28A     -0.525639    29A     -0.513070    30A     -0.498339
      31A     -0.484137    32A     -0.476199    33A     -0.468498
      34A     -0.451264    35A     -0.445748    36A     -0.440830
      37A     -0.422932

  @DF-RHF Final Energy:  -388.27188215721270

   => Energetics <=

    Nuclear Repulsion Energy =            462.4814779957688984
    One-Electron Energy =               -1442.9812714901693198
    Two-Electron Energy =                 592.2279113371874928
    DFT Exchange-Correlation Energy =       0.0000000000000000
    Empirical Dispersion Energy =           0.0000000000000000
    PCM Polarization Energy =               0.0000000000000000
    EFP Energy =                            0.0000000000000000
    Total Energy =                       -388.2718821572128718
    Molecular point group: c1
  Basis Set: 6-31G*
  Basis Set:

  -Total Gradient:
     Atom            X                  Y                   Z
    ------   -----------------  -----------------  -----------------
       1        0.000002438356    -0.000001311397    -0.000001889059
       2        0.000001892552    -0.000000073668    -0.000001408151
       3       -0.000006130734    -0.000001855475    -0.000001800981
       4        0.000007681732     0.000004752227     0.000013126372
       5       -0.000000786593     0.000001973736     0.000000948868
       6       -0.000000444681    -0.000000585007    -0.000000410964
       7       -0.000013869095    -0.000005171945     0.000016851373
       8        0.000002085509     0.000000383494     0.000000714891
       9        0.000000324150    -0.000000152160    -0.000000351395
      10       -0.000017530024     0.000002954311    -0.000031348863
      11       -0.000016924955    -0.000016139961     0.000005437611
      12       -0.000002297010     0.000003687839     0.000006659580
      13        0.000019432369    -0.000005567350     0.000038938244
      14       -0.000014315661    -0.000010726859    -0.000003858911
      15       -0.000010354683     0.000016914086     0.000006945131
      16        0.000075913848    -0.002918963022     0.000088084460
      17        0.000000061897     0.000018709091     0.000001895115
      18        0.000020385856    -0.000017737781    -0.000005171651
      19       -0.000836169206    -0.000807534846    -0.002475878777
      20        0.000185296582     0.002764293871     0.000568937605
      21        0.000003741439    -0.000017701370    -0.000018312424
      22        0.000594567138     0.000997884357     0.001802040350
      23        0.000010574479    -0.000000232888    -0.000006437645
      24       -0.000000250495    -0.000003769542     0.000002056387
      25       -0.000003571393    -0.000000196890    -0.000004910261
      26        0.000001683401    -0.000001074547     0.000002604316
      27       -0.000003434791    -0.000002758297    -0.000003461222

  **** Optimization is complete! (in 10 steps) ****
    Final optimized geometry and variables:
    Molecular point group: c1

    Geometry (in Angstrom), charge = 0, multiplicity = 1:

    H            1.644838887151    -2.276971679923    -1.970209668338
    O            2.564268997182    -2.055485629874    -1.995912873678
    C            2.713646020867    -0.685410614973    -2.269045424917
    C            2.340594300077     0.206758608606    -1.090235288907
    H            3.758431214408    -0.546981794483    -2.515834578176
    H            2.134224323409    -0.406683466723    -3.148455174857
    C            0.866153701082     0.122207134081    -0.687881697352
    H            2.966106983724    -0.061821382399    -0.242908743144
    H            2.585639522065     1.234684483134    -1.352259090798
    C            0.513210571133     1.068979696350     0.463016917608
    H            0.632434444059    -0.900007483335    -0.404225727402
    H            0.241763434765     0.359425890778    -1.549396928819
    C           -0.971580326491     1.097342166682     0.847780057260
    H            1.107919532415     0.807976579446     1.336613537142
    H            0.812840698970     2.076902085115     0.183506905724
    C           -1.474880646778    -0.209457956404     1.475695074025
    H           -1.118949918681     1.912301737804     1.551209115806
    H           -1.559623951454     1.344731943594    -0.032568749266
    C           -2.948543314414    -0.220282217449     1.972423810181
    H           -0.824355618238    -0.426989461403     2.318949973107
    H           -1.337108808648    -1.018921415933     0.766658934347
    C           -3.824842378972     0.979870642425     1.600774035794
    H           -3.433766474658    -1.122376845477     1.611777034064
    H           -2.949672961983    -0.303339199964     3.055702608872
    H           -3.919118287971     1.100191075857     0.526076450087
    H           -4.824765790950     0.841502654874     2.000779154695
    H           -3.438340017401     1.908220343969     2.006302075838

  Mulliken Charges: (a.u.)
   Center  Symbol    Alpha    Beta     Spin     Total
       1     H     0.27991  0.27991  0.00000  0.44017
       2     O     4.37093  4.37093  0.00000 -0.74186
       3     C     2.99739  2.99739  0.00000  0.00523
       4     C     3.16087  3.16087  0.00000 -0.32175
       5     H     0.41445  0.41445  0.00000  0.17111
       6     H     0.43206  0.43206  0.00000  0.13588
       7     C     3.16325  3.16325  0.00000 -0.32650
       8     H     0.41496  0.41496  0.00000  0.17008
       9     H     0.42435  0.42435  0.00000  0.15129
      10     C     3.15227  3.15227  0.00000 -0.30455
      11     H     0.42302  0.42302  0.00000  0.15395
      12     H     0.42554  0.42554  0.00000  0.14893
      13     C     3.15582  3.15582  0.00000 -0.31163
      14     H     0.42186  0.42186  0.00000  0.15628
      15     H     0.42143  0.42143  0.00000  0.15714
      16     C     3.15733  3.15733  0.00000 -0.31466
      17     H     0.42044  0.42044  0.00000  0.15912
      18     H     0.42282  0.42282  0.00000  0.15435
      19     C     3.15545  3.15545  0.00000 -0.31090
      20     H     0.42099  0.42099  0.00000  0.15802
      21     H     0.42119  0.42119  0.00000  0.15761
      22     C     3.24180  3.24180  0.00000 -0.48360
      23     H     0.42041  0.42041  0.00000  0.15918
      24     H     0.42062  0.42062  0.00000  0.15877
      25     H     0.42157  0.42157  0.00000  0.15686
      26     H     0.41916  0.41916  0.00000  0.16168
      27     H     0.42010  0.42010  0.00000  0.15981

   Total alpha = 37.00000, Total beta = 37.00000, Total charge = -0.00000
