  ==> Input File <==

--------------------------------------------------------------------------
set {
	reference rhf
	basis 6-31G*
}

set_num_threads( 1 )
memory 2 gb

molecule MOL {
0 1

O	 -2.821601	 1.309235	 -0.001213
C	 -2.668563	 0.129746	 -0.000350
C	 -3.801572	 -0.864014	 -0.000442
O	 -1.481751	 -0.454642	 0.000584
H	 -4.417280	 -0.689587	 -0.874708
H	 -3.443784	 -1.883046	 -0.000565
H	 -4.417179	 -0.689832	 0.873954
C	 -0.334255	 0.388708	 0.000906
C	 0.891947	 -0.504646	 0.000751
H	 -0.365390	 1.025305	 -0.873475
H	 -0.365484	 1.024911	 0.875569
C	 2.191998	 0.301789	 0.000897
H	 0.855148	 -1.151283	 -0.871571
H	 0.855132	 -1.151660	 0.872805
C	 2.483786	 0.962142	 -1.347850
H	 2.144207	 1.068837	 0.771896
H	 3.023284	 -0.348249	 0.268287
C	 3.781604	 1.768699	 -1.347257
H	 1.654232	 1.612362	 -1.616417
H	 2.534172	 0.196830	 -2.119102
H	 3.748615	 2.564366	 -0.608447
H	 3.960840	 2.224367	 -2.316007
H	 4.635187	 1.138158	 -1.115254

	symmetry c1
}
set optking {
	frozen_dihedral = ("
		13 9 8 10,
		2 4 8 10,
		19 15 12 16,
		1 2 4 8
	")
}

ee = energy('scf')
oeprop('DIPOLE', 'QUADRUPOLE', 'MULLIKEN_CHARGES')
f=open( 'psi4out.xyz', 'w' )
f.write( "23  " )
f.write( str(ee) + "\n" )
f.write( MOL.save_string_xyz() )
f.close()
--------------------------------------------------------------------------

    Molecular point group: c1

    Geometry (in Angstrom), charge = 0, multiplicity = 1:

       Center              X                  Y                   Z               Mass
    ------------   -----------------  -----------------  -----------------  -----------------
           O         -2.607846605102     0.964587881708     0.299448864106    15.994914619560
           C         -2.454808605102    -0.214901118292     0.300311864106    12.000000000000
           C         -3.587817605102    -1.208661118292     0.300219864106    12.000000000000
           O         -1.267996605102    -0.799289118292     0.301245864106    15.994914619560
           H         -4.203525605102    -1.034234118292    -0.574046135894     1.007825032070
           H         -3.230029605102    -2.227693118292     0.300096864106     1.007825032070
           H         -4.203424605102    -1.034479118292     1.174615864106     1.007825032070
           C         -0.120500605102     0.044060881708     0.301567864106    12.000000000000
           C          1.105701394898    -0.849293118292     0.301412864106    12.000000000000
           H         -0.151635605102     0.680657881708    -0.572813135894     1.007825032070
           H         -0.151729605102     0.680263881708     1.176230864106     1.007825032070
           C          2.405752394898    -0.042858118292     0.301558864106    12.000000000000
           H          1.068902394898    -1.495930118292    -0.570909135894     1.007825032070
           H          1.068886394898    -1.496307118292     1.173466864106     1.007825032070
           C          2.697540394898     0.617494881708    -1.047188135894    12.000000000000
           H          2.357961394898     0.724189881708     1.072557864106     1.007825032070
           H          3.237038394898    -0.692896118292     0.568948864106     1.007825032070
           C          3.995358394898     1.424051881708    -1.046595135894    12.000000000000
           H          1.867986394898     1.267714881708    -1.315755135894     1.007825032070
           H          2.747926394898    -0.147817118292    -1.818440135894     1.007825032070
           H          3.962369394898     2.219718881708    -0.307785135894     1.007825032070
           H          4.174594394898     1.879719881708    -2.015345135894     1.007825032070
           H          4.848941394898     0.793510881708    -0.814592135894     1.007825032070

  Charge       = 0
  Multiplicity = 1
  Basis Set: 6-31G*
  Basis Set:

    Orbital Energies (a.u.)
    -----------------------

    Doubly Occupied:

       1A    -20.602999     2A    -20.540603     3A    -11.374148
       4A    -11.281083     5A    -11.232420     6A    -11.224079
       7A    -11.223447     8A    -11.221223     9A    -11.212750
      10A     -1.467972    11A     -1.360778    12A     -1.095968
      13A     -1.040240    14A     -1.002696    15A     -0.930991
      16A     -0.848382    17A     -0.793348    18A     -0.780351
      19A     -0.688354    20A     -0.684705    21A     -0.672714
      22A     -0.634278    23A     -0.615669    24A     -0.586944
      25A     -0.577837    26A     -0.573323    27A     -0.562223
      28A     -0.529471    29A     -0.527211    30A     -0.509269
      31A     -0.494912    32A     -0.477382    33A     -0.469945
      34A     -0.461512    35A     -0.448297    36A     -0.435842

  @DF-RHF Final Energy:  -422.97736730583068

   => Energetics <=

    Nuclear Repulsion Energy =            456.5332428805095901
    One-Electron Energy =               -1480.6543063240512765
    Two-Electron Energy =                 601.1436961377105490
    DFT Exchange-Correlation Energy =       0.0000000000000000
    Empirical Dispersion Energy =           0.0000000000000000
    PCM Polarization Energy =               0.0000000000000000
    EFP Energy =                            0.0000000000000000
    Total Energy =                       -422.9773673058311942

  Mulliken Charges: (a.u.)
   Center  Symbol    Alpha    Beta     Spin     Total
       1     O     4.28404  4.28404  0.00000 -0.56809
       2     C     2.61538  2.61538  0.00000  0.76925
       3     C     3.28781  3.28781  0.00000 -0.57562
       4     O     4.31268  4.31268  0.00000 -0.62536
       5     H     0.39751  0.39751  0.00000  0.20498
       6     H     0.39983  0.39983  0.00000  0.20035
       7     H     0.39750  0.39750  0.00000  0.20501
       8     C     2.99734  2.99734  0.00000  0.00533
       9     C     3.16614  3.16614  0.00000 -0.33229
      10     H     0.40925  0.40925  0.00000  0.18149
      11     H     0.41067  0.41067  0.00000  0.17865
      12     C     3.16242  3.16242  0.00000 -0.32484
      13     H     0.41423  0.41423  0.00000  0.17155
      14     H     0.41204  0.41204  0.00000  0.17592
      15     C     3.15515  3.15515  0.00000 -0.31031
      16     H     0.42096  0.42096  0.00000  0.15808
      17     H     0.41662  0.41662  0.00000  0.16675
      18     C     3.23917  3.23917  0.00000 -0.47834
      19     H     0.42075  0.42075  0.00000  0.15850
      20     H     0.42100  0.42100  0.00000  0.15799
      21     H     0.42057  0.42057  0.00000  0.15886
      22     H     0.41775  0.41775  0.00000  0.16450
      23     H     0.42117  0.42117  0.00000  0.15765

   Total alpha = 36.00000, Total beta = 36.00000, Total charge =  0.00000
