                              Psi4 1.0.54 Driver

  ==> Input File <==

--------------------------------------------------------------------------
set {
	reference rhf
	basis cc-pvtz
}

set_num_threads( 4 )
memory 2 gb

molecule MOL {
0 1

H	 -0.366580	 2.045936	 -0.305741
C	 0.351829	 1.335402	 0.083179
N	 -0.000018	 0.000080	 -0.334836
H	 1.327156	 1.599860	 -0.305475
H	 0.380566	 1.445403	 1.171445
C	 -1.385220	 -0.302215	 -0.066113
C	 0.347869	 -0.243305	 -1.713959
H	 -1.596249	 -1.331579	 -0.326823
H	 -1.593470	 -0.175416	 0.988753
H	 -2.074986	 0.336470	 -0.625910
H	 1.406606	 -0.073614	 -1.863837
H	 0.134767	 -1.272677	 -1.973008
H	 -0.199071	 0.400459	 -2.409326

	symmetry c1
}
set optking {
	frozen_dihedral = ("
		6 3 2 1
	")
}

ee,wfn = optimize('scf', return_wfn=True)
oeprop( wfn, 'DIPOLE', 'QUADRUPOLE', 'MULLIKEN_CHARGES')
f=open( 'psi4out.xyz', 'w' )
f.write( "13  " )
f.write( str(ee) + "\n" )
f.write( MOL.save_string_xyz() )
f.close()
--------------------------------------------------------------------------

    Molecular point group: c1
  Charge       = 0
  Multiplicity = 1
  Basis Set: CC-PVTZ
  Basis Set:
  @DF-RHF Final Energy:  -173.33250751176979
    Total Energy =                       -173.3325075117697907
    Molecular point group: c1
  Basis Set: CC-PVTZ
  Basis Set:
  Basis Set: CC-PVTZ
  Basis Set:
  @DF-RHF Final Energy:  -173.33324232481019
    Total Energy =                       -173.3332423248102145
  Basis Set: CC-PVTZ
  Basis Set:
  Basis Set: CC-PVTZ
  Basis Set:
  @DF-RHF Final Energy:  -173.33331522099917
    Total Energy =                       -173.3333152209993102
  Basis Set: CC-PVTZ
  Basis Set:
  Charge       = 0
  Multiplicity = 1
  Basis Set: CC-PVTZ
  Basis Set:

    Orbital Energies (a.u.)
    -----------------------

    Doubly Occupied:

       1A    -15.539893     2A    -11.234250     3A    -11.234228
       4A    -11.234179     5A     -1.227046     6A     -0.952363
       7A     -0.951681     8A     -0.807355     9A     -0.643394
      10A     -0.631744    11A     -0.630435    12A     -0.546488
      13A     -0.542488    14A     -0.517065    15A     -0.502093
      16A     -0.500886    17A     -0.350408

  @DF-RHF Final Energy:  -173.33331640010823

   => Energetics <=

    Nuclear Repulsion Energy =            139.4795229259819962
    One-Electron Energy =                -509.5336856982164591
    Two-Electron Energy =                 196.7208463721262888
    DFT Exchange-Correlation Energy =       0.0000000000000000
    Empirical Dispersion Energy =           0.0000000000000000
    PCM Polarization Energy =               0.0000000000000000
    EFP Energy =                            0.0000000000000000
    Total Energy =                       -173.3333164001081741
    Molecular point group: c1
  Basis Set: CC-PVTZ
  Basis Set:

  -Total Gradient:
     Atom            X                  Y                   Z
    ------   -----------------  -----------------  -----------------
       1       -0.001756934248    -0.000293732654     0.002540597220
       2        0.001974036964     0.000632132459    -0.004081131403
       3        0.000258747237    -0.001205420742     0.003526245229
       4       -0.000001850515    -0.000039532074    -0.000016202264
       5        0.000005024697    -0.000004925743    -0.000001157869
       6       -0.000441821319     0.000843469288    -0.002086828628
       7        0.000016419635     0.000049036563     0.000128640056
       8       -0.000012879670    -0.000003396415    -0.000003808330
       9       -0.000023461091     0.000004272649     0.000008545411
      10       -0.000012758674     0.000007434453    -0.000003942562
      11        0.000020764563     0.000008105042    -0.000012655989
      12       -0.000014148929     0.000002162097     0.000017823100
      13       -0.000011138652     0.000000395076    -0.000016123973

  **** Optimization is complete! (in 4 steps) ****
    Final optimized geometry and variables:
    Molecular point group: c1

    Geometry (in Angstrom), charge = 0, multiplicity = 1:

    H           -0.147366190233     1.878825169272     0.232887071928
    C            0.544252493345     1.118554318251     0.606878315640
    N            0.187964681868    -0.217204291360     0.186952023786
    H            1.543336822615     1.362787436670     0.272275341603
    H            0.531044642064     1.179461217746     1.689084609314
    C           -1.202164999769    -0.501121542429     0.451466312888
    C            0.518765967630    -0.455459328879    -1.198808623315
    H           -1.425045495218    -1.531415781037     0.204448914083
    H           -1.416144375291    -0.356834595019     1.503437486804
    H           -1.879387472178     0.139863180485    -0.120831953820
    H            1.579386017682    -0.308552463018    -1.357784078500
    H            0.280768767767    -1.478199877095    -1.462959799072
    H           -0.021445845809     0.203388131891    -1.885653772046

  Mulliken Charges: (a.u.)
   Center  Symbol    Alpha    Beta     Spin     Total
       1     H     0.47326  0.47326  0.00000  0.05347
       2     C     3.08918  3.08918  0.00000 -0.17837
       3     N     3.59616  3.59616  0.00000 -0.19232
       4     H     0.45326  0.45326  0.00000  0.09347
       5     H     0.45162  0.45162  0.00000  0.09675
       6     C     3.09000  3.09000  0.00000 -0.18000
       7     C     3.08880  3.08880  0.00000 -0.17761
       8     H     0.45249  0.45249  0.00000  0.09501
       9     H     0.45267  0.45267  0.00000  0.09467
      10     H     0.47327  0.47327  0.00000  0.05347
      11     H     0.45226  0.45226  0.00000  0.09547
      12     H     0.45274  0.45274  0.00000  0.09453
      13     H     0.47428  0.47428  0.00000  0.05144

   Total alpha = 17.00000, Total beta = 17.00000, Total charge = -0.00000

*** Psi4 exiting successfully. Buy a developer a beer!
