  ==> Input File <==

--------------------------------------------------------------------------
set {
	reference rhf
	basis 6-31G*
}

set_num_threads( 4 )
memory 2 gb

molecule MOL {
0 1

O	 1.093212	 -0.290605	 0.381524
C	 0.028650	 0.075053	 -0.000277
C	 -1.233602	 -0.752807	 0.000328
O	 -0.191724	 1.288506	 -0.489018
C	 -2.501530	 0.091881	 0.000126
H	 -1.193807	 -1.406641	 -0.865785
H	 -1.193516	 -1.405779	 0.867015
H	 -2.545121	 0.729328	 -0.874513
H	 -3.377167	 -0.548497	 0.000561
H	 -2.544818	 0.730135	 0.874258
C	 0.915864	 2.169172	 -0.546154
H	 1.314233	 2.342969	 0.443042
H	 0.539693	 3.089488	 -0.964935
H	 1.693459	 1.761300	 -1.175803

	symmetry c1
}
set optking {
	frozen_dihedral = ("
		4 2 3 6
	")
}

ee = optimize('scf')
oeprop('DIPOLE', 'QUADRUPOLE', 'MULLIKEN_CHARGES')
f=open( 'psi4out.xyz', 'w' )
f.write( "14  " )
f.write( str(ee) + "\n" )
f.write( MOL.save_string_xyz() )
f.close()
--------------------------------------------------------------------------

    Molecular point group: c1
  Charge       = 0
  Multiplicity = 1
  Basis Set: 6-31G*
  Basis Set:
  @DF-RHF Final Energy:  -305.86888051388496
    Total Energy =                       -305.8688805138847897
    Molecular point group: c1
  Basis Set: 6-31G*
  Basis Set:
  Basis Set: 6-31G*
  Basis Set:
  @DF-RHF Final Energy:  -305.86940124226976
    Total Energy =                       -305.8694012422693049
  Basis Set: 6-31G*
  Basis Set:
  Basis Set: 6-31G*
  Basis Set:
  @DF-RHF Final Energy:  -305.86979935237059
    Total Energy =                       -305.8697993523705350
  Basis Set: 6-31G*
  Basis Set:
  Basis Set: 6-31G*
  Basis Set:
  @DF-RHF Final Energy:  -305.86983942726363
    Total Energy =                       -305.8698394272637984
  Basis Set: 6-31G*
  Basis Set:
  Basis Set: 6-31G*
  Basis Set:
  @DF-RHF Final Energy:  -305.86985750967767
    Total Energy =                       -305.8698575096777290
  Basis Set: 6-31G*
  Basis Set:
  Charge       = 0
  Multiplicity = 1
  Basis Set: 6-31G*
  Basis Set:

    Orbital Energies (a.u.)
    -----------------------

    Doubly Occupied:

       1A    -20.606976     2A    -20.542124     3A    -11.372991
       4A    -11.282189     5A    -11.238918     6A    -11.221518
       7A     -1.470918     8A     -1.361992     9A     -1.066303
      10A     -0.975126    11A     -0.887270    12A     -0.775216
      13A     -0.695294    14A     -0.682235    15A     -0.671433
      16A     -0.621253    17A     -0.585976    18A     -0.560592
      19A     -0.546430    20A     -0.521833    21A     -0.516583
      22A     -0.498646    23A     -0.454655    24A     -0.433715

  @DF-RHF Final Energy:  -305.86986930135561

   => Energetics <=

    Nuclear Repulsion Energy =            248.4316430642617490
    One-Electron Energy =                -909.4226564690992518
    Two-Electron Energy =                 355.1211441034819245
    DFT Exchange-Correlation Energy =       0.0000000000000000
    Empirical Dispersion Energy =           0.0000000000000000
    PCM Polarization Energy =               0.0000000000000000
    EFP Energy =                            0.0000000000000000
    Total Energy =                       -305.8698693013556067
    Molecular point group: c1
  Basis Set: 6-31G*
  Basis Set:

  -Total Gradient:
     Atom            X                  Y                   Z
    ------   -----------------  -----------------  -----------------
       1       -0.000011787818    -0.000018792969    -0.000000098906
       2        0.000270561033    -0.000423431985    -0.000550411413
       3       -0.000381401276     0.000629165839    -0.000249790284
       4       -0.000121707137     0.000291562256     0.000455982657
       5       -0.000004552578    -0.000010409456     0.000006545375
       6        0.000288047708    -0.000449372505     0.000343549656
       7       -0.000010715533    -0.000000010167    -0.000003642020
       8        0.000000717922    -0.000003918056     0.000005826886
       9       -0.000005821807    -0.000003355731    -0.000001079151
      10       -0.000000637144     0.000000346557    -0.000006340887
      11       -0.000027103078    -0.000028692248     0.000003955499
      12        0.000007468921     0.000008122761    -0.000001056770
      13       -0.000006168334     0.000002087655    -0.000002588896
      14        0.000003099117     0.000006698051    -0.000000851746

  **** Optimization is complete! (in 6 steps) ****
    Final optimized geometry and variables:
    Molecular point group: c1

    Geometry (in Angstrom), charge = 0, multiplicity = 1:

    O            1.375890647012    -0.757381126097     0.482235387486
    C            0.318892119957    -0.355222580805     0.113746018414
    C           -0.941591575145    -1.191105671919     0.116362074101
    O            0.136755973646     0.865510507520    -0.366764192111
    C           -2.259148287006    -0.420051892897     0.116038047516
    H           -0.878554321506    -1.835854677879    -0.756882362273
    H           -0.868212217485    -1.845324536591     0.976562033576
    H           -2.360903575820     0.190345339637    -0.771904305069
    H           -3.091228395880    -1.115241360547     0.148616813469
    H           -2.334647594263     0.231950057781     0.979311942451
    C            1.275789016063     1.705075822159    -0.433641394777
    H            1.693893060922     1.855304562143     0.551047973059
    H            0.927901493743     2.641717954372    -0.840470366309
    H            2.028018087855     1.272316724119    -1.077102385995

  Mulliken Charges: (a.u.)
   Center  Symbol    Alpha    Beta     Spin     Total
       1     O     4.28789  4.28789  0.00000 -0.57578
       2     C     2.60802  2.60802  0.00000  0.78396
       3     C     3.20705  3.20705  0.00000 -0.41410
       4     O     4.30337  4.30337  0.00000 -0.60674
       5     C     3.24008  3.24008  0.00000 -0.48017
       6     H     0.39929  0.39929  0.00000  0.20143
       7     H     0.39696  0.39696  0.00000  0.20607
       8     H     0.40875  0.40875  0.00000  0.18251
       9     H     0.41617  0.41617  0.00000  0.16765
      10     H     0.41483  0.41483  0.00000  0.17033
      11     C     3.09271  3.09271  0.00000 -0.18542
      12     H     0.40796  0.40796  0.00000  0.18408
      13     H     0.40856  0.40856  0.00000  0.18288
      14     H     0.40836  0.40836  0.00000  0.18329

   Total alpha = 24.00000, Total beta = 24.00000, Total charge = -0.00000
