  ==> Input File <==

--------------------------------------------------------------------------
set {
	reference rhf
	basis 6-31G*
}

set_num_threads( 4 )
memory 2 gb

molecule MOL {
0 1

H	 1.299456	 1.463564	 -0.944659
O	 0.489012	 0.965957	 -0.992587
C	 0.489431	 0.077273	 0.000046
C	 -0.764129	 -0.759190	 0.000191
O	 1.389291	 -0.012071	 0.770004
C	 -2.038368	 0.075731	 -0.000248
H	 -0.717284	 -1.412404	 -0.866059
H	 -0.717458	 -1.411724	 0.866967
H	 -2.086483	 0.712501	 -0.875098
H	 -2.908485	 -0.571682	 -0.000042
H	 -2.086576	 0.713280	 0.874068

	symmetry c1
}
set optking {
	frozen_dihedral = ("
		2 3 4 7
	")
}

ee = optimize('scf')
oeprop('DIPOLE', 'QUADRUPOLE', 'MULLIKEN_CHARGES')
f=open( 'psi4out.xyz', 'w' )
f.write( "11  " )
f.write( str(ee) + "\n" )
f.write( MOL.save_string_xyz() )
f.close()
--------------------------------------------------------------------------

    Molecular point group: c1
  Charge       = 0
  Multiplicity = 1
  Basis Set: 6-31G*
  Basis Set:
  @DF-RHF Final Energy:  -266.84416808069898
    Total Energy =                       -266.8441680806989780
    Molecular point group: c1
  Basis Set: 6-31G*
  Basis Set:
  Basis Set: 6-31G*
  Basis Set:
  @DF-RHF Final Energy:  -266.84435624746402
    Total Energy =                       -266.8443562474640203
  Basis Set: 6-31G*
  Basis Set:
  Basis Set: 6-31G*
  Basis Set:
  @DF-RHF Final Energy:  -266.84425796343169
    Total Energy =                       -266.8442579634314598
  Basis Set: 6-31G*
  Basis Set:
  Basis Set: 6-31G*
  Basis Set:
  @DF-RHF Final Energy:  -266.84443392200285
    Total Energy =                       -266.8444339220029065
  Basis Set: 6-31G*
  Basis Set:
  Charge       = 0
  Multiplicity = 1
  Basis Set: 6-31G*
  Basis Set:

    Orbital Energies (a.u.)
    -----------------------

    Doubly Occupied:

       1A    -20.614309     2A    -20.551017     3A    -11.381361
       4A    -11.243521     5A    -11.228331     6A     -1.475465
       7A     -1.365624     8A     -1.067406     9A     -0.911108
      10A     -0.819464    11A     -0.701557    12A     -0.682638
      13A     -0.645894    14A     -0.610088    15A     -0.590142
      16A     -0.547668    17A     -0.526552    18A     -0.511069
      19A     -0.476768    20A     -0.440691

  @DF-RHF Final Energy:  -266.84443430736013

   => Energetics <=

    Nuclear Repulsion Energy =            180.0161556931016094
    One-Electron Energy =                -720.9398337748382346
    Two-Electron Energy =                 274.0792437743764367
    DFT Exchange-Correlation Energy =       0.0000000000000000
    Empirical Dispersion Energy =           0.0000000000000000
    PCM Polarization Energy =               0.0000000000000000
    EFP Energy =                            0.0000000000000000
    Total Energy =                       -266.8444343073601885
    Molecular point group: c1
  Basis Set: 6-31G*
  Basis Set:

  -Total Gradient:
     Atom            X                  Y                   Z
    ------   -----------------  -----------------  -----------------
       1        0.000025958973     0.000045597109    -0.000038713705
       2       -0.000090094130     0.000308442514     0.000287377171
       3        0.000289947168    -0.000591873120    -0.000208566781
       4       -0.000382780846     0.000514464556    -0.000224983699
       5       -0.000036422255     0.000109048160    -0.000089331858
       6        0.000013396694    -0.000020612360     0.000008690916
       7        0.000219984284    -0.000335223410     0.000269639306
       8       -0.000022882256    -0.000017971190    -0.000006889323
       9        0.000006025953    -0.000003131508     0.000013717462
      10       -0.000027084460    -0.000004915793     0.000001171189
      11        0.000003950875    -0.000003824958    -0.000012110673

  **** Optimization is complete! (in 5 steps) ****
    Final optimized geometry and variables:
    Molecular point group: c1

    Geometry (in Angstrom), charge = 0, multiplicity = 1:

    H            1.384482940519     1.367274234050    -0.865219791571
    O            0.562897941761     0.888231359440    -0.914406962434
    C            0.557099137158    -0.021767570504     0.059376061152
    C           -0.699299846333    -0.854729869016     0.065714961692
    O            1.466971836230    -0.142528179297     0.813447975720
    C           -1.986528616141    -0.025901626655     0.056882442189
    H           -0.665034658823    -1.494564210414    -0.811791252515
    H           -0.648759100243    -1.491805522934     0.938185065676
    H           -2.055850247950     0.583132578323    -0.835162282770
    H           -2.848060119227    -0.683339451491     0.089129022928
    H           -2.035869840688     0.629162845406     0.920424748412

  Mulliken Charges: (a.u.)
   Center  Symbol    Alpha    Beta     Spin     Total
       1     H     0.26727  0.26727  0.00000  0.46547
       2     O     4.34729  4.34729  0.00000 -0.69457
       3     C     2.62882  2.62882  0.00000  0.74236
       4     C     3.20324  3.20324  0.00000 -0.40648
       5     O     4.27924  4.27924  0.00000 -0.55849
       6     C     3.24830  3.24830  0.00000 -0.49659
       7     H     0.40044  0.40044  0.00000  0.19912
       8     H     0.39571  0.39571  0.00000  0.20859
       9     H     0.40445  0.40445  0.00000  0.19111
      10     H     0.41236  0.41236  0.00000  0.17528
      11     H     0.41289  0.41289  0.00000  0.17422

   Total alpha = 20.00000, Total beta = 20.00000, Total charge =  0.00000
