  ==> Input File <==

--------------------------------------------------------------------------
set {
	reference rhf
	basis 6-31G*
}

set_num_threads( 4 )
memory 2 gb

molecule MOL {
0 1

H	 -3.420663	 1.227371	 -1.044276
O	 -3.452007	 0.283848	 -0.965577
C	 -3.181085	 -0.079926	 0.364119
C	 -1.765924	 0.277073	 0.805136
H	 -3.327791	 -1.152017	 0.410903
H	 -3.905698	 0.375695	 1.036898
C	 -1.689642	 1.562042	 1.630699
H	 -1.353056	 -0.553283	 1.378731
H	 -1.143788	 0.370195	 -0.083399
C	 -0.268592	 1.898939	 2.087094
H	 -2.340010	 1.469587	 2.495096
H	 -2.083681	 2.386938	 1.039367
C	 -0.199384	 3.189541	 2.907850
H	 0.122537	 1.067460	 2.668541
H	 0.378669	 1.993544	 1.216055
C	 1.215931	 3.616909	 3.313307
H	 -0.810723	 3.080098	 3.802267
H	 -0.650159	 3.993763	 2.330055
C	 1.913751	 2.664274	 4.285901
H	 1.160327	 4.601852	 3.770564
H	 1.826583	 3.732068	 2.419973
H	 1.319520	 2.520014	 5.184354
H	 2.877970	 3.060888	 4.588915
H	 2.088317	 1.688646	 3.844494

	symmetry c1
}
set optking {
	frozen_dihedral = ("
		7 4 3 2
	")
}

ee = optimize('scf')
oeprop('DIPOLE', 'QUADRUPOLE', 'MULLIKEN_CHARGES')
f=open( 'psi4out.xyz', 'w' )
f.write( "24  " )
f.write( str(ee) + "\n" )
f.write( MOL.save_string_xyz() )
f.close()
--------------------------------------------------------------------------

    Molecular point group: c1
  Charge       = 0
  Multiplicity = 1
  Basis Set: 6-31G*
  Basis Set:
  @DF-RHF Final Energy:  -349.24270703228149
    Total Energy =                       -349.2427070322819418
    Molecular point group: c1
  Basis Set: 6-31G*
  Basis Set:
  Basis Set: 6-31G*
  Basis Set:
  @DF-RHF Final Energy:  -349.24297763243914
    Total Energy =                       -349.2429776324389650
  Basis Set: 6-31G*
  Basis Set:
  Basis Set: 6-31G*
  Basis Set:
  @DF-RHF Final Energy:  -349.24305459504751
    Total Energy =                       -349.2430545950475107
  Basis Set: 6-31G*
  Basis Set:
  Basis Set: 6-31G*
  Basis Set:
  @DF-RHF Final Energy:  -349.24305344689657
    Total Energy =                       -349.2430534468965106
  Basis Set: 6-31G*
  Basis Set:
  Basis Set: 6-31G*
  Basis Set:
  @DF-RHF Final Energy:  -349.24305544789331
    Total Energy =                       -349.2430554478934255
  Basis Set: 6-31G*
  Basis Set:
  Basis Set: 6-31G*
  Basis Set:
  @DF-RHF Final Energy:  -349.24305710115391
    Total Energy =                       -349.2430571011539655
  Basis Set: 6-31G*
  Basis Set:
  Charge       = 0
  Multiplicity = 1
  Basis Set: 6-31G*
  Basis Set:

    Orbital Energies (a.u.)
    -----------------------

    Doubly Occupied:

       1A    -20.551515     2A    -11.266653     3A    -11.221050
       4A    -11.217189     5A    -11.216833     6A    -11.215963
       7A    -11.215298     8A    -11.209659     9A     -1.357447
      10A     -1.092885    11A     -1.050439    12A     -0.986515
      13A     -0.917048    14A     -0.852803    15A     -0.802190
      16A     -0.780484    17A     -0.688188    18A     -0.656776
      19A     -0.622467    20A     -0.615680    21A     -0.595737
      22A     -0.586154    23A     -0.560290    24A     -0.535074
      25A     -0.534467    26A     -0.507138    27A     -0.492780
      28A     -0.485850    29A     -0.475642    30A     -0.462881
      31A     -0.457667    32A     -0.442691    33A     -0.422196

  @DF-RHF Final Energy:  -349.24305739684092

   => Energetics <=

    Nuclear Repulsion Energy =            381.6452894136853615
    One-Electron Energy =               -1229.5853928481335515
    Two-Electron Energy =                 498.6970460376071514
    DFT Exchange-Correlation Energy =       0.0000000000000000
    Empirical Dispersion Energy =           0.0000000000000000
    PCM Polarization Energy =               0.0000000000000000
    EFP Energy =                            0.0000000000000000
    Total Energy =                       -349.2430573968410954
    Molecular point group: c1
  Basis Set: 6-31G*
  Basis Set:

  -Total Gradient:
     Atom            X                  Y                   Z
    ------   -----------------  -----------------  -----------------
       1       -0.000006766313     0.000026923650    -0.000070389271
       2        0.001144944907    -0.003201690676    -0.001036506167
       3       -0.001819728747     0.003637199397     0.002562348015
       4        0.001260808206     0.001224327024    -0.004352889493
       5       -0.000016413329    -0.000004360709     0.000046858693
       6       -0.000023324154    -0.000014764746     0.000002126450
       7       -0.000524221528    -0.001701837956     0.002795551919
       8       -0.000011483104     0.000026378490    -0.000023729418
       9        0.000029187539    -0.000023017763     0.000006526584
      10       -0.000026835039     0.000000935687     0.000050025615
      11        0.000041679556     0.000033935382     0.000030380171
      12       -0.000025405841     0.000014132419    -0.000018010396
      13       -0.000000778052    -0.000003123335     0.000017082709
      14       -0.000001859714    -0.000005000539    -0.000004591187
      15       -0.000024514357     0.000003696657     0.000006749704
      16        0.000004782163    -0.000000910932    -0.000016447710
      17        0.000001307133     0.000001563323     0.000009228899
      18       -0.000008800070    -0.000014176891    -0.000008452794
      19        0.000001655123    -0.000003931636     0.000002132972
      20       -0.000006900920    -0.000007131281    -0.000002081209
      21        0.000008736946     0.000009900269    -0.000000637328
      22        0.000003136571     0.000002430958     0.000002080189
      23        0.000000063410    -0.000002761831    -0.000003311883
      24        0.000000729617     0.000001285042     0.000005954940

  **** Optimization is complete! (in 7 steps) ****
    Final optimized geometry and variables:
    Molecular point group: c1

    Geometry (in Angstrom), charge = 0, multiplicity = 1:

    H           -2.422615154814    -0.435846148981    -2.856675497620
    O           -2.443476710267    -1.378452419737    -2.765483280028
    C           -2.227979734334    -1.728049631767    -1.420497948441
    C           -0.814558243519    -1.389385321500    -0.925673219762
    H           -2.387967516955    -2.797289529659    -1.384205066262
    H           -2.979216245431    -1.270161459206    -0.779567102727
    C           -0.732989930982    -0.094440562786    -0.111725474164
    H           -0.451283045254    -2.204904460434    -0.304135830375
    H           -0.157284393917    -1.345730787655    -1.788979074090
    C            0.688873803454     0.251353105907     0.333468600695
    H           -1.373276883566    -0.184977054433     0.763709762117
    H           -1.135374601403     0.733930472772    -0.695709258777
    C            0.758338113384     1.533736545068     1.166925212958
    H            1.092047520823    -0.584009363101     0.900383641063
    H            1.323067592655     0.358858717589    -0.545081545108
    C            2.175962554598     1.969037730238     1.555538744693
    H            0.162014603805     1.409491398315     2.069620576110
    H            0.292061424436     2.340376512915     0.604673674842
    C            2.896595082272     1.011589663855     2.506454385400
    H            2.118480041416     2.948216509260     2.024558930615
    H            2.771504923067     2.099547860898     0.654248622912
    H            2.318026452598     0.852714574548     3.412609955303
    H            3.862083913592     1.413114516794     2.798430943493
    H            3.072264816067     0.042383572277     2.051709615603

  Mulliken Charges: (a.u.)
   Center  Symbol    Alpha    Beta     Spin     Total
       1     H     0.28346  0.28346  0.00000  0.43307
       2     O     4.36989  4.36989  0.00000 -0.73978
       3     C     2.99575  2.99575  0.00000  0.00850
       4     C     3.17313  3.17313  0.00000 -0.34627
       5     H     0.41428  0.41428  0.00000  0.17145
       6     H     0.42939  0.42939  0.00000  0.14122
       7     C     3.15612  3.15612  0.00000 -0.31223
       8     H     0.42061  0.42061  0.00000  0.15878
       9     H     0.41082  0.41082  0.00000  0.17836
      10     C     3.15349  3.15349  0.00000 -0.30698
      11     H     0.42183  0.42183  0.00000  0.15633
      12     H     0.42965  0.42965  0.00000  0.14070
      13     C     3.15254  3.15254  0.00000 -0.30507
      14     H     0.42060  0.42060  0.00000  0.15880
      15     H     0.42288  0.42288  0.00000  0.15424
      16     C     3.15246  3.15246  0.00000 -0.30491
      17     H     0.42412  0.42412  0.00000  0.15176
      18     H     0.42278  0.42278  0.00000  0.15443
      19     C     3.24135  3.24135  0.00000 -0.48269
      20     H     0.42077  0.42077  0.00000  0.15845
      21     H     0.42306  0.42306  0.00000  0.15388
      22     H     0.42228  0.42228  0.00000  0.15543
      23     H     0.41888  0.41888  0.00000  0.16224
      24     H     0.41986  0.41986  0.00000  0.16028

   Total alpha = 33.00000, Total beta = 33.00000, Total charge = -0.00000
