  ==> Input File <==

--------------------------------------------------------------------------
set {
	reference rhf
	basis 6-31G*
}

set_num_threads( 4 )
memory 2 gb

molecule MOL {
0 1

H	 2.714986	 -0.687272	 -0.683428
N	 2.332695	 -0.069570	 0.000000
C	 0.936681	 -0.007078	 0.000000
H	 2.734824	 -0.244125	 0.895879
C	 0.227108	 -0.002120	 -1.198267
C	 0.227108	 -0.002120	 1.198267
H	 0.761569	 -0.014657	 -2.132680
C	 -1.156334	 0.010459	 -1.192360
H	 0.761569	 -0.014657	 2.132680
C	 -1.156334	 0.010459	 1.192360
H	 -1.684791	 0.014915	 -2.129421
C	 -1.862085	 0.017996	 0.000000
H	 -1.684791	 0.014915	 2.129421
H	 -2.936703	 0.028387	 0.000000

	symmetry c1
}
set optking {
	frozen_dihedral = ("
		1 2 3 5
	")
}

ee = optimize('scf')
oeprop('DIPOLE', 'QUADRUPOLE', 'MULLIKEN_CHARGES')
f=open( 'psi4out.xyz', 'w' )
f.write( "14  " )
f.write( str(ee) + "\n" )
f.write( MOL.save_string_xyz() )
f.close()
--------------------------------------------------------------------------

    Molecular point group: c1
  Charge       = 0
  Multiplicity = 1
  Basis Set: 6-31G*
  Basis Set:
  @DF-RHF Final Energy:  -285.72942608634327
    Total Energy =                       -285.7294260863433237
    Molecular point group: c1
  Basis Set: 6-31G*
  Basis Set:
  Basis Set: 6-31G*
  Basis Set:
  @DF-RHF Final Energy:  -285.72998256703585
    Total Energy =                       -285.7299825670360747
  Basis Set: 6-31G*
  Basis Set:
  Basis Set: 6-31G*
  Basis Set:
  @DF-RHF Final Energy:  -285.73012690035273
    Total Energy =                       -285.7301269003527295
  Basis Set: 6-31G*
  Basis Set:
  Basis Set: 6-31G*
  Basis Set:
  @DF-RHF Final Energy:  -285.73013375349660
    Total Energy =                       -285.7301337534966024
  Basis Set: 6-31G*
  Basis Set:
  Charge       = 0
  Multiplicity = 1
  Basis Set: 6-31G*
  Basis Set:

    Orbital Energies (a.u.)
    -----------------------

    Doubly Occupied:

       1A    -15.560411     2A    -11.270273     3A    -11.228777
       4A    -11.228554     5A    -11.218378     6A    -11.217443
       7A    -11.214249     8A     -1.221476     9A     -1.125630
      10A     -1.009536    11A     -0.984098    12A     -0.828696
      13A     -0.809047    14A     -0.702904    15A     -0.680915
      16A     -0.651563    17A     -0.596287    18A     -0.589747
      19A     -0.578724    20A     -0.527354    21A     -0.502552
      22A     -0.484803    23A     -0.442653    24A     -0.331063
      25A     -0.291486

  @DF-RHF Final Energy:  -285.73013450966573

   => Energetics <=

    Nuclear Repulsion Energy =            273.0177571363734614
    One-Electron Energy =                -926.9025470298350911
    Two-Electron Energy =                 368.1546553837959550
    DFT Exchange-Correlation Energy =       0.0000000000000000
    Empirical Dispersion Energy =           0.0000000000000000
    PCM Polarization Energy =               0.0000000000000000
    EFP Energy =                            0.0000000000000000
    Total Energy =                       -285.7301345096656746
    Molecular point group: c1
  Basis Set: 6-31G*
  Basis Set:

  -Total Gradient:
     Atom            X                  Y                   Z
    ------   -----------------  -----------------  -----------------
       1        0.000059276820    -0.001149396135     0.000861963651
       2       -0.000101985317     0.002041611494    -0.001129930111
       3        0.000054194027    -0.001959271648     0.000177562220
       4        0.000033011046    -0.000031268723     0.000033303010
       5       -0.000021986365     0.001082796359     0.000036208330
       6       -0.000034602902     0.000033150743     0.000010229368
       7        0.000003079988     0.000009989945    -0.000004922329
       8       -0.000006902180    -0.000046820680     0.000020638800
       9       -0.000001019411     0.000017722657    -0.000001029703
      10        0.000016067984    -0.000092706556     0.000006560148
      11        0.000006851262     0.000006910121    -0.000001809294
      12       -0.000002928773     0.000063294658    -0.000019449058
      13       -0.000006535117     0.000012604584     0.000000401156
      14        0.000003478944     0.000011383180     0.000010273812

  **** Optimization is complete! (in 5 steps) ****
    Final optimized geometry and variables:
    Molecular point group: c1

    Geometry (in Angstrom), charge = 0, multiplicity = 1:

    H            2.739256330836    -0.581002743689    -0.721304917028
    N            2.336223122739    -0.014978345985    -0.004321692717
    C            0.935308989498    -0.031439833159     0.003886775827
    H            2.741092060324    -0.250768073074     0.877043208330
    C            0.230022226655    -0.010499398063    -1.197331340379
    C            0.223469043834    -0.001530805196     1.198660711794
    H            0.770159162313    -0.013155218295    -2.128298962113
    C           -1.151966586548     0.023235941028    -1.196281400325
    H            0.753999932890    -0.009179631535     2.135572910496
    C           -1.160623252071     0.042613546413     1.188994030848
    H           -1.677924844368     0.034649504111    -2.134737812634
    C           -1.861145737513     0.051523775380    -0.004968656748
    H           -1.691663483301     0.065708086359     2.124367485906
    H           -2.935473826497     0.081909405722    -0.008772167593

  Mulliken Charges: (a.u.)
   Center  Symbol    Alpha    Beta     Spin     Total
       1     H     0.32133  0.32133  0.00000  0.35735
       2     N     3.94126  3.94126  0.00000 -0.88253
       3     C     2.85754  2.85754  0.00000  0.28492
       4     H     0.32186  0.32186  0.00000  0.35627
       5     C     3.12301  3.12301  0.00000 -0.24603
       6     C     3.12779  3.12779  0.00000 -0.25559
       7     H     0.40244  0.40244  0.00000  0.19512
       8     C     3.09063  3.09063  0.00000 -0.18127
       9     H     0.40478  0.40478  0.00000  0.19045
      10     C     3.09015  3.09015  0.00000 -0.18031
      11     H     0.40070  0.40070  0.00000  0.19859
      12     C     3.11508  3.11508  0.00000 -0.23017
      13     H     0.40077  0.40077  0.00000  0.19845
      14     H     0.40263  0.40263  0.00000  0.19474

   Total alpha = 25.00000, Total beta = 25.00000, Total charge =  0.00000
