  ==> Input File <==

--------------------------------------------------------------------------
set {
	reference rhf
	basis 6-31G*
}

set_num_threads( 4 )
memory 2 gb

molecule MOL {
0 1

H	 -1.340386	 1.226751	 -0.504731
C	 -0.790252	 0.431209	 0.000000
N	 0.538815	 0.649616	 0.000000
O	 -1.343635	 -0.511007	 0.484981
C	 1.521968	 -0.411503	 0.000000
H	 0.852804	 1.592852	 0.000000
H	 2.150599	 -0.357004	 -0.881901
H	 0.999455	 -1.354525	 0.000000
H	 2.150599	 -0.357004	 0.881901

	symmetry c1
}
set optking {
	frozen_dihedral = ("
		1 2 3 6
	")
}

ee = optimize('scf')
oeprop('DIPOLE', 'QUADRUPOLE', 'MULLIKEN_CHARGES')
f=open( 'psi4out.xyz', 'w' )
f.write( "9  " )
f.write( str(ee) + "\n" )
f.write( MOL.save_string_xyz() )
f.close()
--------------------------------------------------------------------------

    Molecular point group: c1
  Charge       = 0
  Multiplicity = 1
  Basis Set: 6-31G*
  Basis Set:
  @DF-RHF Final Energy:  -207.95098830212061
    Total Energy =                       -207.9509883021207202
    Molecular point group: c1
  Basis Set: 6-31G*
  Basis Set:
  Basis Set: 6-31G*
  Basis Set:
  @DF-RHF Final Energy:  -207.95418296880047
    Total Energy =                       -207.9541829688004384
  Basis Set: 6-31G*
  Basis Set:
  Basis Set: 6-31G*
  Basis Set:
  @DF-RHF Final Energy:  -207.95796441967181
    Total Energy =                       -207.9579644196718391
  Basis Set: 6-31G*
  Basis Set:
  Basis Set: 6-31G*
  Basis Set:
  @DF-RHF Final Energy:  -207.95871033445144
    Total Energy =                       -207.9587103344515810
  Basis Set: 6-31G*
  Basis Set:
  @DF-RHF Final Energy:  -207.95893971817719
    Total Energy =                       -207.9589397181771915
  @DF-RHF Final Energy:  -207.95916044391367
    Total Energy =                       -207.9591604439137029
  @DF-RHF Final Energy:  -207.95922209445510
    Total Energy =                       -207.9592220944550434
  @DF-RHF Final Energy:  -207.95921860754805
    Total Energy =                       -207.9592186075480811
  @DF-RHF Final Energy:  -207.95929647136177
    Total Energy =                       -207.9592964713617960
  @DF-RHF Final Energy:  -207.95934332336503
    Total Energy =                       -207.9593433233649762
  @DF-RHF Final Energy:  -207.95946014669943
    Total Energy =                       -207.9594601466995414
  @DF-RHF Final Energy:  -207.95950791408288
    Total Energy =                       -207.9595079140829625
  @DF-RHF Final Energy:  -207.95957206189786
    Total Energy =                       -207.9595720618979158
  @DF-RHF Final Energy:  -207.95959602227896
    Total Energy =                       -207.9595960222789301
  Basis Set: 6-31G*
  Basis Set:
  @DF-RHF Final Energy:  -207.95959994949840
    Total Energy =                       -207.9595999494983971
  Basis Set: 6-31G*
  Basis Set:
  Basis Set: 6-31G*
  Basis Set:
  @DF-RHF Final Energy:  -207.95956412877990
    Total Energy =                       -207.9595641287799310
  Basis Set: 6-31G*
  Basis Set:
  Basis Set: 6-31G*
  Basis Set:
  @DF-RHF Final Energy:  -207.95959950263480
    Total Energy =                       -207.9595995026346884
  Basis Set: 6-31G*
  Basis Set:
  Charge       = 0
  Multiplicity = 1
  Basis Set: 6-31G*
  Basis Set:

    Orbital Energies (a.u.)
    -----------------------

    Doubly Occupied:

       1A    -20.534133     2A    -15.589293     3A    -11.345449
       4A    -11.258675     5A     -1.395730     6A     -1.235721
       7A     -0.964012     8A     -0.806117     9A     -0.743934
      10A     -0.643776    11A     -0.630966    12A     -0.587750
      13A     -0.554123    14A     -0.534524    15A     -0.429382
      16A     -0.397490

  @DF-RHF Final Energy:  -207.95959969489553

   => Energetics <=

    Nuclear Repulsion Energy =            122.7433510030624149
    One-Electron Energy =                -526.1037512264160796
    Two-Electron Energy =                 195.4008005284580918
    DFT Exchange-Correlation Energy =       0.0000000000000000
    Empirical Dispersion Energy =           0.0000000000000000
    PCM Polarization Energy =               0.0000000000000000
    EFP Energy =                            0.0000000000000000
    Total Energy =                       -207.9595996948955872
    Molecular point group: c1
  Basis Set: 6-31G*
  Basis Set:

  -Total Gradient:
     Atom            X                  Y                   Z
    ------   -----------------  -----------------  -----------------
       1       -0.001032414285    -0.001798881786    -0.003612791260
       2        0.001750760309     0.002301446624     0.006139078632
       3       -0.002395663896    -0.000236430948    -0.007040601323
       4        0.000031233400     0.000022407616    -0.000005752126
       5        0.000098128619     0.000074135105     0.000034897442
       6        0.001581713151    -0.000390136447     0.004522334044
       7       -0.000005183363     0.000008268963    -0.000012595677
       8       -0.000026176147    -0.000011855142     0.000011693319
       9       -0.000002397784     0.000031046015    -0.000036263052

  **** Optimization is complete! (in 18 steps) ****
    Final optimized geometry and variables:
    Molecular point group: c1

    Geometry (in Angstrom), charge = 0, multiplicity = 1:

    H           -1.405459600185     1.302244159693    -0.256781471042
    C           -0.785404604000     0.440726838508    -0.004715413377
    N            0.494953827589     0.571460289480    -0.434786024634
    O           -1.236118097853    -0.532057498187     0.519264694343
    C            1.469709671092    -0.452806519290    -0.108680551737
    H            0.841494707523     1.504652192605    -0.480269238518
    H            2.371992889554    -0.267893250599    -0.676384173923
    H            1.073490429322    -1.417876926137    -0.385745929070
    H            1.711607767087    -0.473226311587     0.949328940291

  Mulliken Charges: (a.u.)
   Center  Symbol    Alpha    Beta     Spin     Total
       1     H     0.42422  0.42422  0.00000  0.15156
       2     C     2.75353  2.75353  0.00000  0.49293
       3     N     3.86587  3.86587  0.00000 -0.73174
       4     O     4.27559  4.27559  0.00000 -0.55117
       5     C     3.14489  3.14489  0.00000 -0.28978
       6     H     0.31295  0.31295  0.00000  0.37409
       7     H     0.41398  0.41398  0.00000  0.17204
       8     H     0.39581  0.39581  0.00000  0.20838
       9     H     0.41315  0.41315  0.00000  0.17370

   Total alpha = 16.00000, Total beta = 16.00000, Total charge = -0.00000
