  ==> Input File <==

--------------------------------------------------------------------------
set {
	reference rhf
	basis cc-pvtz
}

set_num_threads( 4 )
memory 2 gb

molecule MOL {
0 1

O	 -0.294688	 1.318815	 -0.000872
C	 -0.448732	 0.145721	 -0.000187
C	 -1.780748	 -0.548101	 0.000195
O	 0.550743	 -0.719877	 0.000412
H	 -1.859389	 -1.183260	 -0.872613
H	 -2.570236	 0.185547	 -0.001342
H	 -1.860233	 -1.180337	 0.875064
C	 1.670654	 -0.415805	 0.808128
H	 2.122139	 0.514786	 0.497983
H	 2.364243	 -1.229705	 0.673285
H	 1.381967	 -0.339259	 1.845829

	symmetry c1
}
set optking {
	frozen_dihedral = ("
		8 4 2 1
	")
}

ee = optimize('scf')
oeprop('DIPOLE', 'QUADRUPOLE', 'MULLIKEN_CHARGES')
f=open( 'psi4out.xyz', 'w' )
f.write( "11  " )
f.write( str(ee) + "\n" )
f.write( MOL.save_string_xyz() )
f.close()
--------------------------------------------------------------------------

    Molecular point group: c1
  Charge       = 0
  Multiplicity = 1
  Basis Set: CC-PVTZ
  Basis Set:
  @DF-RHF Final Energy:  -266.93087160869129
    Total Energy =                       -266.9308716086911772
    Molecular point group: c1
  Basis Set: CC-PVTZ
  Basis Set:
  Basis Set: CC-PVTZ
  Basis Set:
  @DF-RHF Final Energy:  -266.92793526668072
    Total Energy =                       -266.9279352666809473
  Basis Set: CC-PVTZ
  Basis Set:
  Basis Set: CC-PVTZ
  Basis Set:
  @DF-RHF Final Energy:  -266.93148317317286
    Total Energy =                       -266.9314831731727509
  Basis Set: CC-PVTZ
  Basis Set:
  Basis Set: CC-PVTZ
  Basis Set:
  @DF-RHF Final Energy:  -266.93154150344844
    Total Energy =                       -266.9315415034484431
  Basis Set: CC-PVTZ
  Basis Set:
  Basis Set: CC-PVTZ
  Basis Set:
  @DF-RHF Final Energy:  -266.93155151943677
    Total Energy =                       -266.9315515194369937
  Basis Set: CC-PVTZ
  Basis Set:
  Basis Set: CC-PVTZ
  Basis Set:
  @DF-RHF Final Energy:  -266.93151085784996
    Total Energy =                       -266.9315108578500713
  Basis Set: CC-PVTZ
  Basis Set:
  Basis Set: CC-PVTZ
  Basis Set:
  @DF-RHF Final Energy:  -266.93155948727019
    Total Energy =                       -266.9315594872697375
  Basis Set: CC-PVTZ
  Basis Set:
  Charge       = 0
  Multiplicity = 1
  Basis Set: CC-PVTZ
  Basis Set:

    Orbital Energies (a.u.)
    -----------------------

    Doubly Occupied:

       1A    -20.591041     2A    -20.539596     3A    -11.370314
       4A    -11.283113     5A    -11.234113     6A     -1.469161
       7A     -1.369062     8A     -1.034299     9A     -0.955637
      10A     -0.779368    11A     -0.697639    12A     -0.683322
      13A     -0.677436    14A     -0.601549    15A     -0.594042
      16A     -0.566570    17A     -0.534660    18A     -0.515247
      19A     -0.460588    20A     -0.444548

  @DF-RHF Final Energy:  -266.93156061537979

   => Energetics <=

    Nuclear Repulsion Energy =            183.1601008885988051
    One-Electron Energy =                -727.3807088886662768
    Two-Electron Energy =                 277.2890473846877057
    DFT Exchange-Correlation Energy =       0.0000000000000000
    Empirical Dispersion Energy =           0.0000000000000000
    PCM Polarization Energy =               0.0000000000000000
    EFP Energy =                            0.0000000000000000
    Total Energy =                       -266.9315606153797944
    Molecular point group: c1
  Basis Set: CC-PVTZ
  Basis Set:

  -Total Gradient:
     Atom            X                  Y                   Z
    ------   -----------------  -----------------  -----------------
       1       -0.000288346244    -0.000046161176    -0.009716981979
       2       -0.001139303017    -0.001743386890     0.017339569689
       3        0.000043482244    -0.000013607054     0.000011699608
       4        0.004416630514     0.005642783001    -0.013478093209
       5        0.000000493164    -0.000003515638    -0.000012086549
       6       -0.000004799592    -0.000014758422    -0.000006066464
       7        0.000000293601    -0.000002057777    -0.000013178128
       8       -0.003074930256    -0.003837308669     0.005873994446
       9        0.000005474003     0.000012047232     0.000000970762
      10        0.000014124677    -0.000005289236    -0.000000740310
      11        0.000026880904     0.000011254632     0.000000912133

  **** Optimization is complete! (in 8 steps) ****
    Final optimized geometry and variables:
    Molecular point group: c1

    Geometry (in Angstrom), charge = 0, multiplicity = 1:

    O           -0.270406686240     1.365380024792    -0.117302967862
    C           -0.419090124768     0.194442527301    -0.131806503836
    C           -1.747226124293    -0.500949819792    -0.205208301897
    O            0.595123185083    -0.669299220037    -0.181322429630
    H           -1.750059381677    -1.187976493430    -1.041151425563
    H           -2.537198595924     0.224783175456    -0.310545466722
    H           -1.895917079182    -1.083280839482     0.696156079311
    C            1.740616410455    -0.370893939281     0.592068306971
    H            2.193079263534     0.556570840704     0.275754889393
    H            2.427947387575    -1.187537585126     0.442650489186
    H            1.477396977040    -0.304166186140     1.639658855285

  Mulliken Charges: (a.u.)
   Center  Symbol    Alpha    Beta     Spin     Total
       1     O     4.18653  4.18653  0.00000 -0.37305
       2     C     2.80066  2.80066  0.00000  0.39867
       3     C     3.13695  3.13695  0.00000 -0.27389
       4     O     4.15600  4.15600  0.00000 -0.31200
       5     H     0.44367  0.44367  0.00000  0.11267
       6     H     0.43839  0.43839  0.00000  0.12323
       7     H     0.44914  0.44914  0.00000  0.10172
       8     C     3.03264  3.03264  0.00000 -0.06527
       9     H     0.44716  0.44716  0.00000  0.10567
      10     H     0.44552  0.44552  0.00000  0.10895
      11     H     0.46335  0.46335  0.00000  0.07331

   Total alpha = 20.00000, Total beta = 20.00000, Total charge = -0.00000
