  ==> Input File <==

--------------------------------------------------------------------------
set {
	reference rhf
	basis 6-31G*
}

set_num_threads( 1 )
memory 2 gb

molecule MOL {
0 1

H	 -2.681203	 -1.215850	 1.297959
O	 -1.850690	 -0.905753	 0.966503
C	 -2.026376	 0.340750	 0.341611
C	 -0.673256	 0.843270	 -0.132153
H	 -2.701085	 0.247497	 -0.507511
H	 -2.467244	 1.056710	 1.034207
C	 0.486613	 -0.083066	 0.235839
H	 -0.715586	 0.970948	 -1.210718
H	 -0.508072	 1.829858	 0.297090
C	 1.840406	 0.433480	 -0.254303
H	 0.300215	 -1.068318	 -0.178947
H	 0.519509	 -0.203625	 1.318070
C	 3.000220	 -0.489290	 0.118523
H	 1.809207	 0.553576	 -1.335192
H	 2.021860	 1.424500	 0.157276
H	 2.864959	 -1.479103	 -0.307933
H	 3.946603	 -0.099227	 -0.243630
H	 3.080049	 -0.602997	 1.196117

	symmetry c1
}
set optking {
	frozen_dihedral = ("
		14 10 7 11,
		10 7 4 8,
		1 2 3 4
	")
}

ee = energy('scf')
oeprop('DIPOLE', 'QUADRUPOLE', 'MULLIKEN_CHARGES')
f=open( 'psi4out.xyz', 'w' )
f.write( "18  " )
f.write( str(ee) + "\n" )
f.write( MOL.save_string_xyz() )
f.close()
--------------------------------------------------------------------------

    Molecular point group: c1

    Geometry (in Angstrom), charge = 0, multiplicity = 1:

       Center              X                  Y                   Z               Mass
    ------------   -----------------  -----------------  -----------------  -----------------
           H         -2.765682104659    -1.209939141185     1.062946258845     1.007825032070
           O         -1.935169104659    -0.899842141185     0.731490258845    15.994914619560
           C         -2.110855104659     0.346660858815     0.106598258845    12.000000000000
           C         -0.757735104659     0.849180858815    -0.367165741155    12.000000000000
           H         -2.785564104659     0.253407858815    -0.742523741155     1.007825032070
           H         -2.551723104659     1.062620858815     0.799194258845     1.007825032070
           C          0.402133895341    -0.077155141185     0.000826258845    12.000000000000
           H         -0.800065104659     0.976858858815    -1.445730741155     1.007825032070
           H         -0.592551104659     1.835768858815     0.062077258845     1.007825032070
           C          1.755926895341     0.439390858815    -0.489315741155    12.000000000000
           H          0.215735895341    -1.062407141185    -0.413959741155     1.007825032070
           H          0.435029895341    -0.197714141185     1.083057258845     1.007825032070
           C          2.915740895341    -0.483379141185    -0.116489741155    12.000000000000
           H          1.724727895341     0.559486858815    -1.570204741155     1.007825032070
           H          1.937380895341     1.430410858815    -0.077736741155     1.007825032070
           H          2.780479895341    -1.473192141185    -0.542945741155     1.007825032070
           H          3.862123895341    -0.093316141185    -0.478642741155     1.007825032070
           H          2.995569895341    -0.597086141185     0.961104258845     1.007825032070

  Charge       = 0
  Multiplicity = 1
  Basis Set: 6-31G*
  Basis Set:

    Orbital Energies (a.u.)
    -----------------------

    Doubly Occupied:

       1A    -20.552232     2A    -11.266968     3A    -11.209785
       4A    -11.206554     5A    -11.201541     6A    -11.200972
       7A     -1.360386     8A     -1.070463     9A     -1.006663
      10A     -0.912354    11A     -0.815766    12A     -0.779096
      13A     -0.695850    14A     -0.659328    15A     -0.614522
      16A     -0.580885    17A     -0.570013    18A     -0.549291
      19A     -0.512806    20A     -0.500019    21A     -0.495286
      22A     -0.461022    23A     -0.455889    24A     -0.443785
      25A     -0.421151

  @DF-RHF Final Energy:  -271.16980255312080

   => Energetics <=

    Nuclear Repulsion Energy =            251.5286449479465603
    One-Electron Energy =                -866.3115251132080630
    Two-Electron Energy =                 343.6130776121416375
    DFT Exchange-Correlation Energy =       0.0000000000000000
    Empirical Dispersion Energy =           0.0000000000000000
    PCM Polarization Energy =               0.0000000000000000
    EFP Energy =                            0.0000000000000000
    Total Energy =                       -271.1698025531198937

  Mulliken Charges: (a.u.)
   Center  Symbol    Alpha    Beta     Spin     Total
       1     H     0.28075  0.28075  0.00000  0.43851
       2     O     4.37233  4.37233  0.00000 -0.74466
       3     C     2.98869  2.98869  0.00000  0.02263
       4     C     3.17820  3.17820  0.00000 -0.35639
       5     H     0.43000  0.43000  0.00000  0.14000
       6     H     0.43045  0.43045  0.00000  0.13910
       7     C     3.14103  3.14103  0.00000 -0.28206
       8     H     0.42024  0.42024  0.00000  0.15952
       9     H     0.42067  0.42067  0.00000  0.15865
      10     C     3.15201  3.15201  0.00000 -0.30402
      11     H     0.41350  0.41350  0.00000  0.17300
      12     H     0.41655  0.41655  0.00000  0.16690
      13     C     3.23832  3.23832  0.00000 -0.47665
      14     H     0.42600  0.42600  0.00000  0.14799
      15     H     0.42610  0.42610  0.00000  0.14780
      16     H     0.42180  0.42180  0.00000  0.15639
      17     H     0.42135  0.42135  0.00000  0.15730
      18     H     0.42201  0.42201  0.00000  0.15598

   Total alpha = 25.00000, Total beta = 25.00000, Total charge = -0.00000
