  ==> Input File <==

--------------------------------------------------------------------------
set {
	reference rhf
	basis 6-31G*
}

set_num_threads( 4 )
memory 2 gb

molecule MOL {
0 1

H	 -1.070890	 -1.366565	 0.180696
O	 -1.422729	 -0.573567	 -0.196946
C	 -0.731407	 0.539437	 0.309156
C	 0.680193	 0.672443	 -0.251532
H	 -1.319765	 1.404033	 0.030086
H	 -0.700012	 0.506517	 1.397677
C	 0.839083	 1.823126	 -1.245709
H	 1.370050	 0.806882	 0.576520
H	 0.943795	 -0.264965	 -0.736630
H	 0.653587	 2.783409	 -0.773860
H	 1.845877	 1.853768	 -1.648690
H	 0.152848	 1.719792	 -2.082768

	symmetry c1
}
set optking {
	frozen_dihedral = ("
		8 4 3 2
	")
}

ee = optimize('scf')
oeprop('DIPOLE', 'QUADRUPOLE', 'MULLIKEN_CHARGES')
f=open( 'psi4out.xyz', 'w' )
f.write( "12  " )
f.write( str(ee) + "\n" )
f.write( MOL.save_string_xyz() )
f.close()
--------------------------------------------------------------------------

    Molecular point group: c1
  Charge       = 0
  Multiplicity = 1
  Basis Set: 6-31G*
  Basis Set:
  @DF-RHF Final Energy:  -193.10391139509179
    Total Energy =                       -193.1039113950919273
    Molecular point group: c1
  Basis Set: 6-31G*
  Basis Set:
  Basis Set: 6-31G*
  Basis Set:
  @DF-RHF Final Energy:  -193.10432413603530
    Total Energy =                       -193.1043241360352454
  Basis Set: 6-31G*
  Basis Set:
  Basis Set: 6-31G*
  Basis Set:
  @DF-RHF Final Energy:  -193.10440213985686
    Total Energy =                       -193.1044021398569441
  Basis Set: 6-31G*
  Basis Set:
  Basis Set: 6-31G*
  Basis Set:
  @DF-RHF Final Energy:  -193.10440348294702
    Total Energy =                       -193.1044034829470206
  Basis Set: 6-31G*
  Basis Set:
  Charge       = 0
  Multiplicity = 1
  Basis Set: 6-31G*
  Basis Set:

    Orbital Energies (a.u.)
    -----------------------

    Doubly Occupied:

       1A    -20.552001     2A    -11.267897     3A    -11.219369
       4A    -11.212889     5A     -1.358793     6A     -1.048621
       7A     -0.917968     8A     -0.819331     9A     -0.684052
      10A     -0.625530    11A     -0.621632    12A     -0.574907
      13A     -0.532624    14A     -0.519049    15A     -0.487268
      16A     -0.465496    17A     -0.426743

  @DF-RHF Final Energy:  -193.10440440698915

   => Energetics <=

    Nuclear Repulsion Energy =            131.2832372044047133
    One-Electron Energy =                -522.1069420792164237
    Two-Electron Energy =                 197.7193004678225918
    DFT Exchange-Correlation Energy =       0.0000000000000000
    Empirical Dispersion Energy =           0.0000000000000000
    PCM Polarization Energy =               0.0000000000000000
    EFP Energy =                            0.0000000000000000
    Total Energy =                       -193.1044044069891186
    Molecular point group: c1
  Basis Set: 6-31G*
  Basis Set:

  -Total Gradient:
     Atom            X                  Y                   Z
    ------   -----------------  -----------------  -----------------
       1        0.000019502590     0.000004929549     0.000016780943
       2        0.000753615052    -0.001189630749     0.001710069306
       3       -0.000877054397     0.001068665927    -0.002213808753
       4       -0.000187558206     0.003141779756     0.000339015542
       5        0.000008809511    -0.000052574925    -0.000047861686
       6       -0.000027594066    -0.000046735085     0.000019186762
       7        0.000039064775    -0.000004547423     0.000031903155
       8        0.000253989896    -0.002841533820     0.000159421515
       9        0.000035835323    -0.000036476110    -0.000034903055
      10        0.000006482206    -0.000025462317     0.000007826249
      11       -0.000022205329     0.000021066566     0.000014698403
      12       -0.000002887353    -0.000039481369    -0.000002328382

  **** Optimization is complete! (in 5 steps) ****
    Final optimized geometry and variables:
    Molecular point group: c1

    Geometry (in Angstrom), charge = 0, multiplicity = 1:

    H           -0.831479109323    -1.936358368564     0.434985073586
    O           -1.248257768706    -1.137329350439     0.144802588759
    C           -0.546176133197    -0.035189367053     0.661932224800
    C            0.880839604376     0.095839846738     0.097582759396
    H           -1.138833158747     0.832937441157     0.404439367440
    H           -0.520232569745    -0.091900170694     1.748124078159
    C            1.037925020550     1.226706209592    -0.917719473967
    H            1.593105809939     0.217680414657     0.909445357892
    H            1.137592431630    -0.846384125957    -0.380036759981
    H            0.828656684566     2.191888272331    -0.465236726976
    H            2.046438834333     1.260762414505    -1.317229355979
    H            0.352331680821     1.093280699584    -1.748899441698

  Mulliken Charges: (a.u.)
   Center  Symbol    Alpha    Beta     Spin     Total
       1     H     0.28348  0.28348  0.00000  0.43304
       2     O     4.36942  4.36942  0.00000 -0.73883
       3     C     2.99806  2.99806  0.00000  0.00388
       4     C     3.16939  3.16939  0.00000 -0.33879
       5     H     0.41337  0.41337  0.00000  0.17327
       6     H     0.42915  0.42915  0.00000  0.14170
       7     C     3.24323  3.24323  0.00000 -0.48646
       8     H     0.42102  0.42102  0.00000  0.15795
       9     H     0.41845  0.41845  0.00000  0.16309
      10     H     0.42130  0.42130  0.00000  0.15741
      11     H     0.41887  0.41887  0.00000  0.16227
      12     H     0.41426  0.41426  0.00000  0.17148

   Total alpha = 17.00000, Total beta = 17.00000, Total charge = -0.00000
