  ==> Input File <==

--------------------------------------------------------------------------
set {
	reference rhf
	basis 6-31G*
}

set_num_threads( 4 )
memory 2 gb

molecule MOL {
0 1

H	 -2.698709	 -0.000305	 0.034435
C	 -1.693833	 0.000034	 0.434417
O	 -0.828952	 -0.000968	 -0.659236
H	 -1.574200	 0.882896	 1.055746
H	 -1.574147	 -0.881698	 1.057355
C	 0.559449	 -0.000018	 -0.420814
C	 0.938096	 0.792208	 0.828955
C	 1.154072	 -1.406921	 -0.418627
H	 0.956587	 0.526648	 -1.280428
H	 0.458493	 1.765036	 0.817325
H	 2.012595	 0.942625	 0.861545
H	 0.652782	 0.279976	 1.742398
H	 0.823392	 -1.956451	 -1.293342
H	 2.238008	 -1.351689	 -0.440923
H	 0.874542	 -1.969896	 0.466111

	symmetry c1
}
set optking {
	frozen_dihedral = ("
		9 6 3 2
	")
}

ee = optimize('scf')
oeprop('DIPOLE', 'QUADRUPOLE', 'MULLIKEN_CHARGES')
f=open( 'psi4out.xyz', 'w' )
f.write( "15  " )
f.write( str(ee) + "\n" )
f.write( MOL.save_string_xyz() )
f.close()
--------------------------------------------------------------------------

    Molecular point group: c1
  Charge       = 0
  Multiplicity = 1
  Basis Set: 6-31G*
  Basis Set:
  @DF-RHF Final Energy:  -232.13482957307687
    Total Energy =                       -232.1348295730768996
    Molecular point group: c1
  Basis Set: 6-31G*
  Basis Set:
  Basis Set: 6-31G*
  Basis Set:
  @DF-RHF Final Energy:  -232.13543424668870
    Total Energy =                       -232.1354342466885896
  Basis Set: 6-31G*
  Basis Set:
  Basis Set: 6-31G*
  Basis Set:
  @DF-RHF Final Energy:  -232.13593895609191
    Total Energy =                       -232.1359389560918771
  Basis Set: 6-31G*
  Basis Set:
  Basis Set: 6-31G*
  Basis Set:
  @DF-RHF Final Energy:  -232.13596698200169
    Total Energy =                       -232.1359669820014346
  Basis Set: 6-31G*
  Basis Set:
  Basis Set: 6-31G*
  Basis Set:
  @DF-RHF Final Energy:  -232.13599440970941
    Total Energy =                       -232.1359944097093830
  Basis Set: 6-31G*
  Basis Set:
  Basis Set: 6-31G*
  Basis Set:
  @DF-RHF Final Energy:  -232.13599817576099
    Total Energy =                       -232.1359981757610171
  Basis Set: 6-31G*
  Basis Set:
  Charge       = 0
  Multiplicity = 1
  Basis Set: 6-31G*
  Basis Set:

    Orbital Energies (a.u.)
    -----------------------

    Doubly Occupied:

       1A    -20.546846     2A    -11.274434     3A    -11.261983
       4A    -11.214181     5A    -11.207253     6A     -1.368715
       7A     -1.051198     8A     -0.945182     9A     -0.924429
      10A     -0.781220    11A     -0.674928    12A     -0.642177
      13A     -0.632117    14A     -0.576837    15A     -0.556653
      16A     -0.550682    17A     -0.535351    18A     -0.504564
      19A     -0.493737    20A     -0.444288    21A     -0.402698

  @DF-RHF Final Energy:  -232.13599836599838

   => Energetics <=

    Nuclear Repulsion Energy =            198.6116626579445779
    One-Electron Energy =                -708.3163767678069007
    Two-Electron Energy =                 277.5687157438638906
    DFT Exchange-Correlation Energy =       0.0000000000000000
    Empirical Dispersion Energy =           0.0000000000000000
    PCM Polarization Energy =               0.0000000000000000
    EFP Energy =                            0.0000000000000000
    Total Energy =                       -232.1359983659984323
    Molecular point group: c1
  Basis Set: 6-31G*
  Basis Set:

  -Total Gradient:
     Atom            X                  Y                   Z
    ------   -----------------  -----------------  -----------------
       1        0.000006270000     0.000004676992    -0.000016542217
       2       -0.000067382223     0.003238608374     0.000051781953
       3        0.000059502771    -0.004179982381     0.000305126606
       4       -0.000007644650    -0.000012078522    -0.000011631014
       5        0.000010802865    -0.000010215706     0.000000467845
       6        0.000386060435    -0.002237605042    -0.002200949010
       7        0.000013928040     0.000010891432     0.000007410559
       8       -0.000015440091    -0.000009833300     0.000001328385
       9       -0.000395594108     0.003185486039     0.001859916393
      10        0.000007272346     0.000007289572     0.000001014606
      11       -0.000003269556    -0.000002994341    -0.000000079395
      12        0.000000291744    -0.000001154919     0.000001823728
      13        0.000006165391     0.000003999495    -0.000006504725
      14       -0.000001460517     0.000014444878     0.000006359145
      15        0.000000497556    -0.000011532573     0.000000477144

  **** Optimization is complete! (in 7 steps) ****
    Final optimized geometry and variables:
    Molecular point group: c1

    Geometry (in Angstrom), charge = 0, multiplicity = 1:

    H           -2.701324474402    -0.041159543458     0.058102285339
    C           -1.707721789191     0.088230942325     0.465759444949
    O           -0.834377072386     0.119975502912    -0.619609399955
    H           -1.689056831265     1.010725036663     1.037401526189
    H           -1.505697486446    -0.741248985690     1.139781491169
    C            0.558223224319     0.147342573310    -0.388153868150
    C            0.973563459337     0.926973038698     0.859187938319
    C            1.112444516624    -1.272777026088    -0.390458347690
    H            0.956579704727     0.691892115405    -1.236786923704
    H            0.555467315999     1.927894309966     0.850859298877
    H            2.054685673242     1.018848465237     0.878203464682
    H            0.670506005581     0.434649557364     1.777421391039
    H            0.824440030417    -1.783172022266    -1.302243403788
    H            2.196470309711    -1.267736651291    -0.325653229633
    H            0.729242265219    -1.842295234302     0.451445674143

  Mulliken Charges: (a.u.)
   Center  Symbol    Alpha    Beta     Spin     Total
       1     H     0.41234  0.41234  0.00000  0.17532
       2     C     3.07890  3.07890  0.00000 -0.15780
       3     O     4.31564  4.31564  0.00000 -0.63129
       4     H     0.42794  0.42794  0.00000  0.14412
       5     H     0.43190  0.43190  0.00000  0.13619
       6     C     2.90638  2.90638  0.00000  0.18724
       7     C     3.26180  3.26180  0.00000 -0.52360
       8     C     3.24268  3.24268  0.00000 -0.48535
       9     H     0.41750  0.41750  0.00000  0.16500
      10     H     0.41259  0.41259  0.00000  0.17483
      11     H     0.41565  0.41565  0.00000  0.16870
      12     H     0.41920  0.41920  0.00000  0.16160
      13     H     0.41129  0.41129  0.00000  0.17742
      14     H     0.42380  0.42380  0.00000  0.15241
      15     H     0.42240  0.42240  0.00000  0.15520

   Total alpha = 21.00000, Total beta = 21.00000, Total charge =  0.00000
