  ==> Input File <==

--------------------------------------------------------------------------
set {
	reference rhf
	basis 6-31G*
}

set_num_threads( 4 )
memory 2 gb

molecule MOL {
0 1

H	 -4.240532	 0.513195	 0.085262
O	 -3.521084	 -0.050669	 -0.160415
C	 -2.306886	 0.532354	 0.237577
C	 -1.177863	 -0.397191	 -0.171080
H	 -2.177080	 1.506060	 -0.232906
H	 -2.291107	 0.686500	 1.315691
C	 0.198102	 0.111031	 0.262842
H	 -1.208843	 -0.518759	 -1.250427
H	 -1.368741	 -1.376554	 0.258909
C	 1.331804	 -0.827780	 -0.158768
H	 0.361943	 1.100838	 -0.156218
H	 0.217265	 0.229072	 1.345532
C	 2.723619	 -0.410569	 0.329459
H	 1.342964	 -0.912588	 -1.244120
H	 1.116806	 -1.824343	 0.220779
C	 3.243875	 0.895854	 -0.272975
H	 3.424222	 -1.207124	 0.091250
H	 2.714788	 -0.329854	 1.414619
H	 3.251977	 0.848779	 -1.358681
H	 2.637085	 1.747371	 0.016682
H	 4.259473	 1.094070	 0.055697

	symmetry c1
}
set optking {
	frozen_dihedral = ("
		2 3 4 8
	")
}

ee = optimize('scf')
oeprop('DIPOLE', 'QUADRUPOLE', 'MULLIKEN_CHARGES')
f=open( 'psi4out.xyz', 'w' )
f.write( "21  " )
f.write( str(ee) + "\n" )
f.write( MOL.save_string_xyz() )
f.close()
--------------------------------------------------------------------------

    Molecular point group: c1
  Charge       = 0
  Multiplicity = 1
  Basis Set: 6-31G*
  Basis Set:
  @DF-RHF Final Energy:  -310.21281765654641
    Total Energy =                       -310.2128176565466902
    Molecular point group: c1
  Basis Set: 6-31G*
  Basis Set:
  Basis Set: 6-31G*
  Basis Set:
  @DF-RHF Final Energy:  -310.21281891583561
    Total Energy =                       -310.2128189158357827
  Basis Set: 6-31G*
  Basis Set:
  Basis Set: 6-31G*
  Basis Set:
  @DF-RHF Final Energy:  -310.21282011164664
    Total Energy =                       -310.2128201116465789
  Basis Set: 6-31G*
  Basis Set:
  Charge       = 0
  Multiplicity = 1
  Basis Set: 6-31G*
  Basis Set:

    Orbital Energies (a.u.)
    -----------------------

    Doubly Occupied:

       1A    -20.551822     2A    -11.267063     3A    -11.215670
       4A    -11.215161     5A    -11.213593     6A    -11.210700
       7A    -11.208227     8A     -1.358634     9A     -1.086270
      10A     -1.033218    11A     -0.954387    12A     -0.875682
      13A     -0.807210    14A     -0.778970    15A     -0.692489
      16A     -0.661425    17A     -0.622479    18A     -0.606993
      19A     -0.586377    20A     -0.569782    21A     -0.536230
      22A     -0.519917    23A     -0.510843    24A     -0.486600
      25A     -0.479791    26A     -0.460634    27A     -0.455880
      28A     -0.443109    29A     -0.433979

  @DF-RHF Final Energy:  -310.21281990544151

   => Energetics <=

    Nuclear Repulsion Energy =            312.4686605980452896
    One-Electron Energy =               -1039.6766888387039671
    Two-Electron Energy =                 416.9952083352170007
    DFT Exchange-Correlation Energy =       0.0000000000000000
    Empirical Dispersion Energy =           0.0000000000000000
    PCM Polarization Energy =               0.0000000000000000
    EFP Energy =                            0.0000000000000000
    Total Energy =                       -310.2128199054416768
    Molecular point group: c1
  Basis Set: 6-31G*
  Basis Set:

  -Total Gradient:
     Atom            X                  Y                   Z
    ------   -----------------  -----------------  -----------------
       1       -0.000003183196     0.000003257850    -0.000006803135
       2       -0.000030635836    -0.000178258820     0.000338196065
       3        0.000104394690     0.000312927106    -0.000433204035
       4       -0.000414205845    -0.000565940146     0.000131048669
       5        0.000011802359    -0.000008913928     0.000013946296
       6       -0.000009373771    -0.000003928420     0.000015726886
       7        0.000001871714     0.000003968216    -0.000002100416
       8        0.000331355801     0.000395783012    -0.000083128319
       9        0.000005022344     0.000043270094     0.000026562171
      10        0.000005451053    -0.000013619774     0.000022235585
      11        0.000042697800     0.000035263971    -0.000003503500
      12       -0.000015329627     0.000001834997    -0.000011233241
      13        0.000013791036    -0.000015462153    -0.000030373873
      14       -0.000002313546    -0.000017919373     0.000008037814
      15       -0.000002844443     0.000000548075     0.000015605135
      16       -0.000015890370     0.000000893525     0.000007704940
      17        0.000006742999     0.000007764366    -0.000011608277
      18        0.000001681162    -0.000014236463    -0.000005179642
      19        0.000003136632    -0.000003972030     0.000005006709
      20       -0.000032457459     0.000010147439    -0.000001258353
      21       -0.000001713499     0.000006592457     0.000004322519

  **** Optimization is complete! (in 4 steps) ****
    Final optimized geometry and variables:
    Molecular point group: c1

    Geometry (in Angstrom), charge = 0, multiplicity = 1:

    H           -4.237409767555     0.527182797409     0.066279204598
    O           -3.519749079913    -0.043194029984    -0.169424295480
    C           -2.304566547439     0.536880332797     0.229964206151
    C           -1.177240485789    -0.396380437877    -0.175021511960
    H           -2.170511555595     1.510149892231    -0.240044712604
    H           -2.291103551326     0.690860353335     1.308204425598
    C            0.199216328481     0.112504126113     0.257322254428
    H           -1.205148974817    -0.520508368498    -1.254222450322
    H           -1.369791697046    -1.373231444002     0.259400977541
    C            1.332734448317    -0.826100231359    -0.165250136206
    H            0.362608399200     1.102288526230    -0.162211804521
    H            0.219354342741     0.230909446885     1.339884663557
    C            2.725141253880    -0.407328936644     0.319885352742
    H            1.342023142554    -0.912145837064    -1.250523533606
    H            1.119044878731    -1.822381219298     0.215827722049
    C            3.240219967792     0.902440770465    -0.279722616174
    H            3.426883628935    -1.201369741805     0.076704892270
    H            2.719597442509    -0.330310235806     1.405328867704
    H            3.245378689564     0.858931857272    -1.365596323327
    H            2.631917225730     1.751343866543     0.014431290468
    H            4.256200213897     1.102347318596     0.046732288906

  Mulliken Charges: (a.u.)
   Center  Symbol    Alpha    Beta     Spin     Total
       1     H     0.28119  0.28119  0.00000  0.43762
       2     O     4.37180  4.37180  0.00000 -0.74360
       3     C     2.98972  2.98972  0.00000  0.02055
       4     C     3.15887  3.15887  0.00000 -0.31775
       5     H     0.43286  0.43286  0.00000  0.13428
       6     H     0.43292  0.43292  0.00000  0.13415
       7     C     3.16198  3.16198  0.00000 -0.32396
       8     H     0.41519  0.41519  0.00000  0.16962
       9     H     0.41437  0.41437  0.00000  0.17127
      10     C     3.15176  3.15176  0.00000 -0.30352
      11     H     0.42168  0.42168  0.00000  0.15663
      12     H     0.42397  0.42397  0.00000  0.15206
      13     C     3.15250  3.15250  0.00000 -0.30499
      14     H     0.42307  0.42307  0.00000  0.15387
      15     H     0.42093  0.42093  0.00000  0.15814
      16     C     3.24120  3.24120  0.00000 -0.48241
      17     H     0.42062  0.42062  0.00000  0.15877
      18     H     0.42353  0.42353  0.00000  0.15295
      19     H     0.42200  0.42200  0.00000  0.15601
      20     H     0.42063  0.42063  0.00000  0.15875
      21     H     0.41922  0.41922  0.00000  0.16155

   Total alpha = 29.00000, Total beta = 29.00000, Total charge =  0.00000
