  ==> Input File <==

--------------------------------------------------------------------------
set {
	reference rhf
	basis 6-31G*
}

set_num_threads( 4 )
memory 2 gb

molecule MOL {
0 1

H	 -3.085097	 0.173137	 3.119037
C	 -2.210974	 0.203806	 2.493134
C	 -1.923639	 1.346993	 1.762580
C	 -1.375493	 -0.899591	 2.419528
H	 -2.572421	 2.202028	 1.820568
C	 -0.799511	 1.385673	 0.958016
H	 -1.599840	 -1.784889	 2.986558
C	 -0.249671	 -0.863143	 1.614811
H	 -0.561543	 2.261757	 0.385722
C	 0.041074	 0.281107	 0.881379
H	 0.399633	 -1.714688	 1.554840
C	 1.239129	 0.373821	 0.000060
O	 1.970282	 -0.730723	 0.000018
O	 1.519838	 1.336790	 -0.642399
C	 3.377318	 -0.566646	 -0.000065
H	 3.695437	 -0.028981	 -0.881264
H	 3.789299	 -1.563704	 0.000236
H	 3.695516	 -0.028316	 0.880770

	symmetry c1
}
set optking {
	frozen_dihedral = ("
		10 12 13 15
	")
}

ee = optimize('scf')
oeprop('DIPOLE', 'QUADRUPOLE', 'MULLIKEN_CHARGES')
f=open( 'psi4out.xyz', 'w' )
f.write( "18  " )
f.write( str(ee) + "\n" )
f.write( MOL.save_string_xyz() )
f.close()
--------------------------------------------------------------------------

    Molecular point group: c1
  Charge       = 0
  Multiplicity = 1
  Basis Set: 6-31G*
  Basis Set:
  @DF-RHF Final Energy:  -457.34256934373849
    Total Energy =                       -457.3425693437383188
    Molecular point group: c1
  Basis Set: 6-31G*
  Basis Set:
  Basis Set: 6-31G*
  Basis Set:
  @DF-RHF Final Energy:  -457.33932133967244
    Total Energy =                       -457.3393213396727788
  Basis Set: 6-31G*
  Basis Set:
  Basis Set: 6-31G*
  Basis Set:
  @DF-RHF Final Energy:  -457.34300800517019
    Total Energy =                       -457.3430080051700770
  Basis Set: 6-31G*
  Basis Set:
  Basis Set: 6-31G*
  Basis Set:
  @DF-RHF Final Energy:  -457.34306798429230
    Total Energy =                       -457.3430679842920199
  Basis Set: 6-31G*
  Basis Set:
  Basis Set: 6-31G*
  Basis Set:
  @DF-RHF Final Energy:  -457.34306986878755
    Total Energy =                       -457.3430698687877793
  Basis Set: 6-31G*
  Basis Set:
  Charge       = 0
  Multiplicity = 1
  Basis Set: 6-31G*
  Basis Set:

    Orbital Energies (a.u.)
    -----------------------

    Doubly Occupied:

       1A    -20.599131     2A    -20.547862     3A    -11.378654
       4A    -11.285306     5A    -11.246688     6A    -11.246435
       7A    -11.245215     8A    -11.242907     9A    -11.238476
      10A    -11.237765    11A     -1.467350    12A     -1.364385
      13A     -1.166126    14A     -1.046989    15A     -1.025886
      16A     -0.976432    17A     -0.863174    18A     -0.835528
      19A     -0.777209    20A     -0.738792    21A     -0.683441
      22A     -0.674438    23A     -0.669148    24A     -0.632940
      25A     -0.625016    26A     -0.599917    27A     -0.592139
      28A     -0.558618    29A     -0.528328    30A     -0.517172
      31A     -0.502597    32A     -0.499178    33A     -0.458253
      34A     -0.442968    35A     -0.345992    36A     -0.342049

  @DF-RHF Final Energy:  -457.34307006522431

   => Energetics <=

    Nuclear Repulsion Energy =            493.4339780140126095
    One-Electron Energy =               -1601.1490898377285248
    Two-Electron Energy =                 650.3720417584917186
    DFT Exchange-Correlation Energy =       0.0000000000000000
    Empirical Dispersion Energy =           0.0000000000000000
    PCM Polarization Energy =               0.0000000000000000
    EFP Energy =                            0.0000000000000000
    Total Energy =                       -457.3430700652241967
    Molecular point group: c1
  Basis Set: 6-31G*
  Basis Set:

  -Total Gradient:
     Atom            X                  Y                   Z
    ------   -----------------  -----------------  -----------------
       1       -0.000001194318     0.000002127027    -0.000001993548
       2       -0.000002789259     0.000030805951    -0.000009665653
       3       -0.000017023304    -0.000007465108     0.000021396765
       4        0.000023641548    -0.000011580109    -0.000012827551
       5       -0.000004954215    -0.000000370699    -0.000003582947
       6        0.000017786829    -0.000019747912    -0.000002364302
       7        0.000001104550     0.000003202118     0.000000654748
       8       -0.000005528679    -0.000026999451     0.000023981137
       9        0.000001345351     0.000008202096     0.000000899096
      10        0.003717374681     0.002412305493     0.005363487783
      11       -0.000004243174     0.000006938519    -0.000003755305
      12       -0.005328219945    -0.003529837859    -0.004222924522
      13        0.001682499481     0.001231085988    -0.008674844234
      14       -0.000061412655     0.000040730506     0.000011341895
      15       -0.000014512114    -0.000123401572     0.007498631590
      16        0.000004664976    -0.000001097371     0.000010791329
      17        0.000003531292    -0.000009552774     0.000007918505
      18       -0.000012071046    -0.000005344843    -0.000007144780

  **** Optimization is complete! (in 6 steps) ****
    Final optimized geometry and variables:
    Molecular point group: c1

    Geometry (in Angstrom), charge = 0, multiplicity = 1:

    H           -3.347909040993    -0.004910633594     2.241213621148
    C           -2.480150280948     0.023598807982     1.606484966024
    C           -2.198874352288     1.166153604021     0.871310797826
    C           -1.647586351614    -1.080943933749     1.525858784399
    H           -2.846464051477     2.021739632078     0.934695390806
    C           -1.083483680730     1.202500120234     0.055770522137
    H           -1.867996844580    -1.965496696106     2.095524874912
    C           -0.529222524281    -1.046443425788     0.709938273372
    H           -0.849910857474     2.078064581513    -0.519111391941
    C           -0.242292984112     0.097419065604    -0.025235020116
    H            0.118013212298    -1.898797648684     0.642729606560
    C            0.962833957592     0.193500213222    -0.896338700936
    O            1.699583087543    -0.918258310295    -0.913131783465
    O            1.286106259064     1.186123560110    -1.465787029029
    C            3.106528700886    -0.749865113480    -0.904241922776
    H            3.443224132065    -0.260411728209    -1.805586089497
    H            3.524112172619    -1.742494707705    -0.840526664499
    H            3.405701357465    -0.168023506186    -0.042089639715

  Mulliken Charges: (a.u.)
   Center  Symbol    Alpha    Beta     Spin     Total
       1     H     0.39508  0.39508  0.00000  0.20983
       2     C     3.08970  3.08970  0.00000 -0.17940
       3     C     3.10707  3.10707  0.00000 -0.21414
       4     C     3.10692  3.10692  0.00000 -0.21384
       5     H     0.39509  0.39509  0.00000  0.20982
       6     C     3.08600  3.08600  0.00000 -0.17201
       7     H     0.39605  0.39605  0.00000  0.20790
       8     C     3.08780  3.08780  0.00000 -0.17560
       9     H     0.37599  0.37599  0.00000  0.24802
      10     C     3.07867  3.07867  0.00000 -0.15734
      11     H     0.38112  0.38112  0.00000  0.23775
      12     C     2.58145  2.58145  0.00000  0.83710
      13     O     4.31939  4.31939  0.00000 -0.63878
      14     O     4.28171  4.28171  0.00000 -0.56343
      15     C     3.09355  3.09355  0.00000 -0.18709
      16     H     0.40280  0.40280  0.00000  0.19439
      17     H     0.40726  0.40726  0.00000  0.18548
      18     H     0.41433  0.41433  0.00000  0.17134

   Total alpha = 36.00000, Total beta = 36.00000, Total charge = -0.00000
