  ==> Input File <==

--------------------------------------------------------------------------
set {
	reference rhf
	basis 6-31G*
}

set_num_threads( 4 )
memory 2 gb

molecule MOL {
0 1

H	 -3.420663	 1.227371	 -1.044276
O	 -3.452007	 0.283848	 -0.965577
C	 -3.181085	 -0.079926	 0.364119
C	 -1.765924	 0.277073	 0.805136
H	 -3.327791	 -1.152017	 0.410903
H	 -3.905698	 0.375695	 1.036898
C	 -0.677594	 -0.417312	 -0.014550
H	 -1.637766	 1.358238	 0.744969
H	 -1.659588	 0.017670	 1.857098
C	 0.738335	 -0.034840	 0.421385
H	 -0.814977	 -0.178223	 -1.064632
H	 -0.802730	 -1.495410	 0.071702
C	 1.822265	 -0.738362	 -0.399735
H	 0.853533	 1.043532	 0.342250
H	 0.871597	 -0.279636	 1.474438
C	 3.258060	 -0.455774	 0.057203
H	 1.718003	 -0.459167	 -1.447053
H	 1.651028	 -1.811884	 -0.354513
C	 3.400309	 -0.137367	 1.546762
H	 3.642832	 0.383970	 -0.516444
H	 3.888809	 -1.306811	 -0.191983
H	 2.770553	 0.702588	 1.827870
H	 4.425855	 0.124398	 1.788781
H	 3.124731	 -0.980955	 2.170926

	symmetry c1
}
set optking {
	frozen_dihedral = ("
		20 16 13 17
	")
}

ee = optimize('scf')
oeprop('DIPOLE', 'QUADRUPOLE', 'MULLIKEN_CHARGES')
f=open( 'psi4out.xyz', 'w' )
f.write( "24  " )
f.write( str(ee) + "\n" )
f.write( MOL.save_string_xyz() )
f.close()
--------------------------------------------------------------------------

    Molecular point group: c1
  Charge       = 0
  Multiplicity = 1
  Basis Set: 6-31G*
  Basis Set:
  @DF-RHF Final Energy:  -349.24146297567432
    Total Energy =                       -349.2414629756744944
    Molecular point group: c1
  Basis Set: 6-31G*
  Basis Set:
  Basis Set: 6-31G*
  Basis Set:
  @DF-RHF Final Energy:  -349.24257278646360
    Total Energy =                       -349.2425727864637679
  Basis Set: 6-31G*
  Basis Set:
  Basis Set: 6-31G*
  Basis Set:
  @DF-RHF Final Energy:  -349.24364067350501
    Total Energy =                       -349.2436406735050127
  Basis Set: 6-31G*
  Basis Set:
  Basis Set: 6-31G*
  Basis Set:
  @DF-RHF Final Energy:  -349.24370727203711
    Total Energy =                       -349.2437072720370566
  Basis Set: 6-31G*
  Basis Set:
  Basis Set: 6-31G*
  Basis Set:
  @DF-RHF Final Energy:  -349.24375928564024
    Total Energy =                       -349.2437592856402944
  Basis Set: 6-31G*
  Basis Set:
  Basis Set: 6-31G*
  Basis Set:
  @DF-RHF Final Energy:  -349.24376633061888
    Total Energy =                       -349.2437663306187687
  Basis Set: 6-31G*
  Basis Set:
  Charge       = 0
  Multiplicity = 1
  Basis Set: 6-31G*
  Basis Set:

    Orbital Energies (a.u.)
    -----------------------

    Doubly Occupied:

       1A    -20.553495     2A    -11.267591     3A    -11.217283
       4A    -11.214090     5A    -11.212184     6A    -11.211619
       7A    -11.210795     8A    -11.207796     9A     -1.360083
      10A     -1.087700    11A     -1.047031    12A     -0.984987
      13A     -0.915475    14A     -0.853372    15A     -0.801723
      16A     -0.770245    17A     -0.678909    18A     -0.656249
      19A     -0.626829    20A     -0.617898    21A     -0.593028
      22A     -0.586244    23A     -0.554171    24A     -0.544739
      25A     -0.517642    26A     -0.504658    27A     -0.502575
      28A     -0.470974    29A     -0.468616    30A     -0.458478
      31A     -0.453077    32A     -0.449240    33A     -0.418443

  @DF-RHF Final Energy:  -349.24376645418857

   => Energetics <=

    Nuclear Repulsion Energy =            385.1393220138906486
    One-Electron Energy =               -1236.7317051422378427
    Two-Electron Energy =                 502.3486166741585066
    DFT Exchange-Correlation Energy =       0.0000000000000000
    Empirical Dispersion Energy =           0.0000000000000000
    PCM Polarization Energy =               0.0000000000000000
    EFP Energy =                            0.0000000000000000
    Total Energy =                       -349.2437664541886306
    Molecular point group: c1
  Basis Set: 6-31G*
  Basis Set:

  -Total Gradient:
     Atom            X                  Y                   Z
    ------   -----------------  -----------------  -----------------
       1        0.000000175441    -0.000001515308     0.000002064993
       2        0.000004739698    -0.000007089860     0.000000382870
       3       -0.000008649945     0.000015748683     0.000006271211
       4        0.000003525513    -0.000010990471    -0.000000186870
       5        0.000001231624     0.000002523585    -0.000004205026
       6       -0.000005906049    -0.000002496530     0.000000737146
       7        0.000000587801     0.000006430333    -0.000003022181
       8       -0.000004392273    -0.000003723132    -0.000002718264
       9       -0.000000255683     0.000002266211     0.000002239776
      10        0.000000231651    -0.000014652437     0.000003820008
      11       -0.000002301187    -0.000000618572    -0.000004452464
      12       -0.000000599555     0.000003349699     0.000003016643
      13        0.002802342565    -0.007477521085    -0.002882055391
      14        0.000005250005    -0.000005189453    -0.000003600043
      15        0.000000283239    -0.000004447400    -0.000001442803
      16       -0.002986919302     0.005844253806     0.005501036378
      17       -0.001893448656     0.005428487967     0.001559471247
      18       -0.000002423321     0.000002827099    -0.000000904538
      19        0.000001190986     0.000005553248    -0.000008069924
      20        0.002076643806    -0.003780238290    -0.004173655730
      21        0.000005388657    -0.000004747895     0.000004326301
      22        0.000003339055     0.000001805008    -0.000001908308
      23        0.000001386536     0.000000340964     0.000003445783
      24       -0.000001420602    -0.000000356172    -0.000000590810

  **** Optimization is complete! (in 7 steps) ****
    Final optimized geometry and variables:
    Molecular point group: c1

    Geometry (in Angstrom), charge = 0, multiplicity = 1:

    H           -3.341418365694     1.423949433295    -1.295868931884
    O           -3.390216463724     0.479453991372    -1.242131410519
    C           -3.171257087565     0.078739065445     0.086564693732
    C           -1.766745495305     0.401360924987     0.584534488688
    H           -3.336124901168    -0.991544048867     0.101194291606
    H           -3.911605381893     0.529420234295     0.745335807933
    C           -0.661632389298    -0.290084054533    -0.215000088654
    H           -1.619809921326     1.481441038271     0.555975775605
    H           -1.700885494608     0.114464375557     1.632646848913
    C            0.744351150411     0.063536203756     0.274298039698
    H           -0.763301941051    -0.028014149212    -1.263571882147
    H           -0.803125938089    -1.368171467851    -0.155252484853
    C            1.840330591349    -0.653374861696    -0.523780655508
    H            0.888793011297     1.140737237219     0.200387649409
    H            0.826615358812    -0.183502527371     1.329666583788
    C            3.285968880870    -0.252300670035    -0.167050965537
    H            1.670923067385    -0.411852043203    -1.570154121067
    H            1.714095252912    -1.727039948123    -0.411020734489
    C            3.567796852969     0.029282830558     1.308361619481
    H            3.589044949921     0.592216624212    -0.781267772755
    H            3.939533287922    -1.061612802597    -0.486611547510
    H            3.027845300413     0.897680316197     1.669839122492
    H            4.626365476142     0.215334501576     1.461514453913
    H            3.290168910602    -0.816733684386     1.931176380910

  Mulliken Charges: (a.u.)
   Center  Symbol    Alpha    Beta     Spin     Total
       1     H     0.28340  0.28340  0.00000  0.43319
       2     O     4.36831  4.36831  0.00000 -0.73661
       3     C     2.99617  2.99617  0.00000  0.00767
       4     C     3.16883  3.16883  0.00000 -0.33766
       5     H     0.41635  0.41635  0.00000  0.16730
       6     H     0.42819  0.42819  0.00000  0.14362
       7     C     3.15190  3.15190  0.00000 -0.30380
       8     H     0.42837  0.42837  0.00000  0.14326
       9     H     0.42241  0.42241  0.00000  0.15518
      10     C     3.15541  3.15541  0.00000 -0.31081
      11     H     0.41227  0.41227  0.00000  0.17545
      12     H     0.42376  0.42376  0.00000  0.15249
      13     C     3.15240  3.15240  0.00000 -0.30481
      14     H     0.42555  0.42555  0.00000  0.14889
      15     H     0.42244  0.42244  0.00000  0.15511
      16     C     3.15361  3.15361  0.00000 -0.30722
      17     H     0.42129  0.42129  0.00000  0.15742
      18     H     0.42240  0.42240  0.00000  0.15519
      19     C     3.24199  3.24199  0.00000 -0.48398
      20     H     0.42222  0.42222  0.00000  0.15555
      21     H     0.42164  0.42164  0.00000  0.15671
      22     H     0.41971  0.41971  0.00000  0.16058
      23     H     0.41935  0.41935  0.00000  0.16131
      24     H     0.42201  0.42201  0.00000  0.15598

   Total alpha = 33.00000, Total beta = 33.00000, Total charge = -0.00000
