                              Psi4 1.0.54 Driver

  ==> Input File <==

--------------------------------------------------------------------------
set {
	reference rhf
	basis cc-pvtz
}

set_num_threads( 4 )
memory 2 gb

molecule MOL {
0 1

H	 -3.258660	 -0.290394	 1.471450
C	 -3.307964	 -0.275695	 0.374072
C	 -2.653809	 0.914422	 -0.273689
O	 -3.855140	 -1.148880	 -0.205112
C	 -1.216901	 1.136108	 0.207794
H	 -2.700131	 0.790676	 -1.347875
H	 -3.256452	 1.781007	 -0.010713
C	 -0.247837	 0.040196	 -0.230469
H	 -0.872882	 2.093195	 -0.169002
H	 -1.209325	 1.218376	 1.291938
C	 1.181757	 0.280428	 0.247371
H	 -0.259600	 -0.030819	 -1.314870
H	 -0.591284	 -0.923375	 0.136958
C	 2.151032	 -0.811012	 -0.202643
H	 1.515939	 1.247397	 -0.115449
H	 1.191514	 0.341223	 1.333422
C	 3.580021	 -0.656538	 0.320835
H	 2.170545	 -0.847575	 -1.289412
H	 1.766632	 -1.772905	 0.124928
C	 4.623686	 -0.353090	 -0.751437
H	 3.859640	 -1.574977	 0.827466
H	 3.602429	 0.124059	 1.076793
H	 4.619655	 -1.114304	 -1.525085
H	 4.449898	 0.603993	 -1.228380
H	 5.618586	 -0.325694	 -0.322034

	symmetry c1
}
set optking {
	frozen_dihedral = ("
		20 17 14 18
	")
}

ee,wfn = optimize('scf', return_wfn=True)
oeprop( wfn, 'DIPOLE', 'QUADRUPOLE', 'MULLIKEN_CHARGES')
f=open( 'psi4out.xyz', 'w' )
f.write( "25  " )
f.write( str(ee) + "\n" )
f.write( MOL.save_string_xyz() )
f.close()
--------------------------------------------------------------------------

    Molecular point group: c1
  Charge       = 0
  Multiplicity = 1
  Basis Set: CC-PVTZ
  Basis Set:
  @DF-RHF Final Energy:  -387.25613058628852
    Total Energy =                       -387.2561305862883501
    Molecular point group: c1
  Basis Set: CC-PVTZ
  Basis Set:
  Basis Set: CC-PVTZ
  Basis Set:
  @DF-RHF Final Energy:  -387.25638143764689
    Total Energy =                       -387.2563814376475193
  Basis Set: CC-PVTZ
  Basis Set:
  Basis Set: CC-PVTZ
  Basis Set:
  @DF-RHF Final Energy:  -387.25673525383229
    Total Energy =                       -387.2567352538321757
  Basis Set: CC-PVTZ
  Basis Set:
  Basis Set: CC-PVTZ
  Basis Set:
  @DF-RHF Final Energy:  -387.25670698076465
    Total Energy =                       -387.2567069807647613
  Basis Set: CC-PVTZ
  Basis Set:
  Basis Set: CC-PVTZ
  Basis Set:
  @DF-RHF Final Energy:  -387.25660049692664
    Total Energy =                       -387.2566004969264668
  Basis Set: CC-PVTZ
  Basis Set:
  Basis Set: CC-PVTZ
  Basis Set:
  @DF-RHF Final Energy:  -387.25674753760973
    Total Energy =                       -387.2567475376100674
  Basis Set: CC-PVTZ
  Basis Set:
  Basis Set: CC-PVTZ
  Basis Set:
  @DF-RHF Final Energy:  -387.25675085486091
    Total Energy =                       -387.2567508548607975
  Basis Set: CC-PVTZ
  Basis Set:
  Charge       = 0
  Multiplicity = 1
  Basis Set: CC-PVTZ
  Basis Set:

    Orbital Energies (a.u.)
    -----------------------

    Doubly Occupied:

       1A    -20.551414     2A    -11.321030     3A    -11.233849
       4A    -11.232946     5A    -11.221579     6A    -11.218602
       7A    -11.215633     8A    -11.214543     9A    -11.209266
      10A     -1.406404    11A     -1.104958    12A     -1.069755
      13A     -1.015612    14A     -0.944115    15A     -0.869986
      16A     -0.817186    17A     -0.792876    18A     -0.787564
      19A     -0.667987    20A     -0.663645    21A     -0.636234
      22A     -0.621468    23A     -0.608286    24A     -0.592684
      25A     -0.574043    26A     -0.554455    27A     -0.535046
      28A     -0.523319    29A     -0.511629    30A     -0.500845
      31A     -0.485470    32A     -0.482125    33A     -0.467195
      34A     -0.458438    35A     -0.440850    36A     -0.411910

  @DF-RHF Final Energy:  -387.25675118863694

   => Energetics <=

    Nuclear Repulsion Energy =            437.2735753758552164
    One-Electron Energy =               -1391.1347436677569931
    Two-Electron Energy =                 566.6044171032652912
    DFT Exchange-Correlation Energy =       0.0000000000000000
    Empirical Dispersion Energy =           0.0000000000000000
    PCM Polarization Energy =               0.0000000000000000
    EFP Energy =                            0.0000000000000000
    Total Energy =                       -387.2567511886364855
    Molecular point group: c1
  Basis Set: CC-PVTZ
  Basis Set:

  -Total Gradient:
     Atom            X                  Y                   Z
    ------   -----------------  -----------------  -----------------
       1        0.000028821595    -0.000003463220     0.000052006554
       2       -0.000036828983     0.000076682830     0.000002436003
       3        0.000013994732    -0.000011328666    -0.000004723519
       4       -0.000012220434    -0.000066936314    -0.000052803599
       5        0.000011956425     0.000018311259    -0.000026207468
       6       -0.000001539370     0.000004894895    -0.000006505543
       7       -0.000004119666    -0.000006995549     0.000005655970
       8       -0.000003235278    -0.000001631282     0.000006505223
       9        0.000007613286     0.000007659569     0.000002354874
      10        0.000001017408    -0.000002280060     0.000003154354
      11       -0.000001376008    -0.000013116016     0.000010194686
      12       -0.000005998532    -0.000004301184    -0.000008384993
      13       -0.000000818395    -0.000004025631     0.000007783591
      14        0.000368419039    -0.002504930690     0.000099206979
      15        0.000012048432     0.000012036203     0.000012432255
      16       -0.000009433108    -0.000018312290     0.000007038537
      17       -0.000384642353     0.002090378575     0.000134902529
      18       -0.000232731521     0.001626238146    -0.000126680309
      19       -0.000005994691    -0.000006463834     0.000015168137
      20        0.000225128617    -0.001191326776    -0.000097571407
      21       -0.000003549723    -0.000003213979     0.000003142986
      22       -0.000000591112     0.000004006958     0.000001688304
      23       -0.000004997329    -0.000029678399    -0.000041970871
      24       -0.000012133329     0.000034451648    -0.000005938646
      25        0.000051210289    -0.000006656191     0.000007115372

  **** Optimization is complete! (in 8 steps) ****
    Final optimized geometry and variables:
    Molecular point group: c1

    Geometry (in Angstrom), charge = 0, multiplicity = 1:

    H           -3.325715477647    -0.145198282913     1.485022637907
    C           -3.351140030317    -0.118798059730     0.386959967768
    C           -2.653447986376     1.060431728094    -0.234855627333
    O           -3.907328700278    -0.972357828564    -0.212590810869
    C           -1.223086325875     1.242624171526     0.281163662482
    H           -2.678207578153     0.947204067603    -1.310930354725
    H           -3.240826105186     1.939168044599     0.022282297906
    C           -0.271832974963     0.125529542487    -0.142713226524
    H           -0.846390876157     2.193202810449    -0.080623005209
    H           -1.238605792954     1.317382281719     1.365738219684
    C            1.152599027239     0.329403565351     0.363706658563
    H           -0.264477188389     0.058219417271    -1.227376126220
    H           -0.644820992100    -0.831088866026     0.214504368556
    C            2.111249048459    -0.783173352367    -0.058132647863
    H            1.529654649182     1.283334505807     0.001526377779
    H            1.142365743946     0.399775130257     1.448704539756
    C            3.562110994714    -0.551817750465     0.410375156152
    H            2.088902870358    -0.860040112207    -1.141229144280
    H            1.741059958463    -1.729062368379     0.322932689220
    C            4.529551403554    -0.250708039270    -0.731078519192
    H            3.918583003485    -1.426229480370     0.943985545531
    H            3.588638317785     0.263911736164     1.125812147291
    H            4.574117862276    -1.078694594611    -1.430359847045
    H            4.221875741058     0.630859757243    -1.284734615654
    H            5.533218828569    -0.074466133863    -0.360728627988

  Mulliken Charges: (a.u.)
   Center  Symbol    Alpha    Beta     Spin     Total
       1     H     0.46417  0.46417  0.00000  0.07166
       2     C     2.90473  2.90473  0.00000  0.19053
       3     C     3.08914  3.08914  0.00000 -0.17829
       4     O     4.16626  4.16626  0.00000 -0.33253
       5     C     3.11617  3.11617  0.00000 -0.23234
       6     H     0.44290  0.44290  0.00000  0.11420
       7     H     0.44047  0.44047  0.00000  0.11906
       8     C     3.09156  3.09156  0.00000 -0.18312
       9     H     0.44311  0.44311  0.00000  0.11377
      10     H     0.44983  0.44983  0.00000  0.10034
      11     C     3.09103  3.09103  0.00000 -0.18205
      12     H     0.44947  0.44947  0.00000  0.10106
      13     H     0.44852  0.44852  0.00000  0.10297
      14     C     3.09552  3.09552  0.00000 -0.19103
      15     H     0.45285  0.45285  0.00000  0.09430
      16     H     0.45319  0.45319  0.00000  0.09362
      17     C     3.09088  3.09088  0.00000 -0.18175
      18     H     0.45409  0.45409  0.00000  0.09182
      19     H     0.44664  0.44664  0.00000  0.10672
      20     C     3.14700  3.14700  0.00000 -0.29399
      21     H     0.44869  0.44869  0.00000  0.10262
      22     H     0.45469  0.45469  0.00000  0.09063
      23     H     0.45396  0.45396  0.00000  0.09208
      24     H     0.45590  0.45590  0.00000  0.08819
      25     H     0.44923  0.44923  0.00000  0.10154

   Total alpha = 36.00000, Total beta = 36.00000, Total charge = -0.00000

*** Psi4 exiting successfully. Buy a developer a beer!
