  ==> Input File <==

--------------------------------------------------------------------------
set {
	reference rhf
	basis cc-pvtz
}

set_num_threads( 4 )
memory 2 gb

molecule MOL {
0 1

H	 -0.134000	 -2.128000	 -0.000000
C	 0.420000	 -1.212000	 -0.000000
C	 1.803000	 -1.204000	 -0.000000
C	 -0.247000	 -0.000000	 -0.000000
H	 2.340000	 -2.134000	 -0.000000
C	 2.492000	 -0.000000	 -0.000000
N	 -1.706000	 -0.000000	 -0.000000
C	 0.420000	 1.212000	 0.000000
H	 3.567000	 0.000000	 -0.000000
C	 1.803000	 1.204000	 0.000000
O	 -2.261000	 1.057000	 -0.000000
O	 -2.261000	 -1.057000	 0.000000
H	 -0.134000	 2.128000	 0.000000
H	 2.340000	 2.134000	 0.000000

	symmetry c1
}
ee = optimize('scf')
oeprop('DIPOLE', 'QUADRUPOLE', 'MULLIKEN_CHARGES')
f=open( 'psi4out.xyz', 'w' )
f.write( "14  " )
f.write( str(ee) + "\n" )
f.write( MOL.save_string_xyz() )
f.close()
--------------------------------------------------------------------------

    Molecular point group: c1
  Charge       = 0
  Multiplicity = 1
  Basis Set: CC-PVTZ
  Basis Set:
  @DF-RHF Final Energy:  -434.32974545710124
    Total Energy =                       -434.3297454571016942
    Molecular point group: c1
  Basis Set: CC-PVTZ
  Basis Set:
  Basis Set: CC-PVTZ
  Basis Set:
  @DF-RHF Final Energy:  -434.33007127700733
    Total Energy =                       -434.3300712770072778
  Basis Set: CC-PVTZ
  Basis Set:
  Basis Set: CC-PVTZ
  Basis Set:
  @DF-RHF Final Energy:  -434.33008643272774
    Total Energy =                       -434.3300864327277395
  Basis Set: CC-PVTZ
  Basis Set:
  Basis Set: CC-PVTZ
  Basis Set:
  @DF-RHF Final Energy:  -434.33008780917521
    Total Energy =                       -434.3300878091753248
  Basis Set: CC-PVTZ
  Basis Set:
  Basis Set: CC-PVTZ
  Basis Set:
  @DF-RHF Final Energy:  -434.33006129927833
    Total Energy =                       -434.3300612992780998
  Basis Set: CC-PVTZ
  Basis Set:
  Charge       = 0
  Multiplicity = 1
  Basis Set: CC-PVTZ
  Basis Set:

    Orbital Energies (a.u.)
    -----------------------

    Doubly Occupied:

       1A    -20.591664     2A    -20.591608     3A    -15.847796
       4A    -11.302445     5A    -11.267209     6A    -11.267168
       7A    -11.264891     8A    -11.258198     9A    -11.258066
      10A     -1.641247    11A     -1.423513    12A     -1.204443
      13A     -1.095618    14A     -1.054969    15A     -0.959442
      16A     -0.866926    17A     -0.828965    18A     -0.789554
      19A     -0.740829    20A     -0.735303    21A     -0.711458
      22A     -0.659863    23A     -0.652000    24A     -0.626401
      25A     -0.555151    26A     -0.540607    27A     -0.531278
      28A     -0.492037    29A     -0.491707    30A     -0.457726
      31A     -0.377780    32A     -0.369244

  @DF-RHF Final Energy:  -434.33008810155405

   => Energetics <=

    Nuclear Repulsion Energy =            418.2048364579470103
    One-Electron Energy =               -1420.1596377662172017
    Two-Electron Energy =                 567.6247132067160237
    DFT Exchange-Correlation Energy =       0.0000000000000000
    Empirical Dispersion Energy =           0.0000000000000000
    PCM Polarization Energy =               0.0000000000000000
    EFP Energy =                            0.0000000000000000
    Total Energy =                       -434.3300881015541108
    Molecular point group: c1
  Basis Set: CC-PVTZ
  Basis Set:

  -Total Gradient:
     Atom            X                  Y                   Z
    ------   -----------------  -----------------  -----------------
       1       -0.000012309750     0.000000084389    -0.000000569972
       2       -0.000030312902    -0.000055617580    -0.000000690767
       3       -0.000061969270    -0.000017548605     0.000000503393
       4        0.000000006877     0.000105360924    -0.000016528231
       5       -0.000013318576    -0.000007690986     0.000000312538
       6        0.000000003582    -0.000053737594    -0.000000743946
       7        0.000000020687     0.000027104086     0.000063823939
       8        0.000030293991    -0.000055587315    -0.000000698331
       9        0.000000001137    -0.000020456098     0.000000267188
      10        0.000061952933    -0.000017583180     0.000000508753
      11       -0.000146517946     0.000051635527    -0.000022963294
      12        0.000146503262     0.000051640675    -0.000022964494
      13        0.000012321689     0.000000086998    -0.000000569080
      14        0.000013324289    -0.000007691235     0.000000312303

  **** Optimization is complete! (in 6 steps) ****
    Final optimized geometry and variables:
    Molecular point group: c1

    Geometry (in Angstrom), charge = 0, multiplicity = 1:

    H           -2.122787908486     0.067662443127     0.000039812850
    C           -1.207832089086    -0.484956392465     0.000033169799
    C           -1.200233704683    -1.865056178845     0.000002708918
    C            0.000000023960     0.179984819343     0.000045924466
    H           -2.128938798914    -2.400800642710    -0.000006050198
    C            0.000000005136    -2.552036106161    -0.000013028728
    N            0.000000009240     1.644630462461     0.000075884843
    C            1.207832105488    -0.484956385656     0.000033107051
    H            0.000000003084    -3.625035791662    -0.000032034503
    C            1.200233701190    -1.865056207524     0.000002678553
    O            1.050559429477     2.194173277842    -0.000073345941
    O           -1.050559472316     2.194173208505    -0.000073760603
    H            2.122787950732     0.067662407253     0.000039723333
    H            2.128938804942    -2.400800662613    -0.000006113177

  Mulliken Charges: (a.u.)
   Center  Symbol    Alpha    Beta     Spin     Total
       1     H     0.39892  0.39892  0.00000  0.20217
       2     C     3.07667  3.07667  0.00000 -0.15333
       3     C     3.07223  3.07223  0.00000 -0.14446
       4     C     2.98228  2.98228  0.00000  0.03544
       5     H     0.41693  0.41693  0.00000  0.16614
       6     C     3.06446  3.06446  0.00000 -0.12892
       7     N     3.25239  3.25239  0.00000  0.49522
       8     C     3.07667  3.07667  0.00000 -0.15333
       9     H     0.41708  0.41708  0.00000  0.16585
      10     C     3.07223  3.07223  0.00000 -0.14446
      11     O     4.17715  4.17715  0.00000 -0.35430
      12     O     4.17715  4.17715  0.00000 -0.35430
      13     H     0.39892  0.39892  0.00000  0.20217
      14     H     0.41693  0.41693  0.00000  0.16614

   Total alpha = 32.00000, Total beta = 32.00000, Total charge =  0.00000
