  ==> Input File <==

--------------------------------------------------------------------------
set {
	reference rhf
	basis 6-31G*
}

set_num_threads( 1 )
memory 2 gb

molecule MOL {
0 1

O	 -1.107602	 2.212866	 -2.470673
C	 -1.374957	 1.424418	 -1.615508
C	 -0.548681	 0.163291	 -1.433486
C	 -2.520726	 1.652861	 -0.655091
C	 0.758148	 0.467775	 -0.683401
H	 -0.317893	 -0.223894	 -2.419959
H	 -1.116859	 -0.591995	 -0.898000
C	 1.631333	 -0.777471	 -0.511575
H	 1.291863	 1.235608	 -1.232004
H	 0.529694	 0.883100	 0.296936
C	 2.915987	 -0.544314	 0.291766
H	 1.888045	 -1.172784	 -1.492672
H	 1.047304	 -1.549551	 -0.014935
C	 3.373361	 0.914346	 0.347591
H	 3.708709	 -1.142521	 -0.150311
H	 2.780642	 -0.921148	 1.303579
H	 3.506512	 1.320010	 -0.651625
H	 4.322697	 0.999599	 0.867103
H	 2.660624	 1.545032	 0.868198
H	 -3.291146	 0.904393	 -0.820958
H	 -2.939236	 2.638232	 -0.805686
H	 -2.187415	 1.546608	 0.373218

	symmetry c1
}
set optking {
	frozen_dihedral = ("
		6 3 2 1,
		6 3 5 8,
		3 5 8 12
	")
}

ee = energy('scf')
oeprop('DIPOLE', 'QUADRUPOLE', 'MULLIKEN_CHARGES')
f=open( 'psi4out.xyz', 'w' )
f.write( "22  " )
f.write( str(ee) + "\n" )
f.write( MOL.save_string_xyz() )
f.close()
--------------------------------------------------------------------------

    Molecular point group: c1

    Geometry (in Angstrom), charge = 0, multiplicity = 1:

       Center              X                  Y                   Z               Mass
    ------------   -----------------  -----------------  -----------------  -----------------
           O         -1.502626950513     1.507205866516    -1.634166306625    15.994914619560
           C         -1.769981950513     0.718757866516    -0.779001306625    12.000000000000
           C         -0.943705950513    -0.542369133484    -0.596979306625    12.000000000000
           C         -2.915750950513     0.947200866516     0.181415693375    12.000000000000
           C          0.363123049487    -0.237885133484     0.153105693375    12.000000000000
           H         -0.712917950513    -0.929554133484    -1.583452306625     1.007825032070
           H         -1.511883950513    -1.297655133484    -0.061493306625     1.007825032070
           C          1.236308049487    -1.483131133484     0.324931693375    12.000000000000
           H          0.896838049487     0.529947866516    -0.395497306625     1.007825032070
           H          0.134669049487     0.177439866516     1.133442693375     1.007825032070
           C          2.520962049487    -1.249974133484     1.128272693375    12.000000000000
           H          1.493020049487    -1.878444133484    -0.656165306625     1.007825032070
           H          0.652279049487    -2.255211133484     0.821571693375     1.007825032070
           C          2.978336049487     0.208685866516     1.184097693375    12.000000000000
           H          3.313684049487    -1.848181133484     0.686195693375     1.007825032070
           H          2.385617049487    -1.626808133484     2.140085693375     1.007825032070
           H          3.111487049487     0.614349866516     0.184881693375     1.007825032070
           H          3.927672049487     0.293938866516     1.703609693375     1.007825032070
           H          2.265599049487     0.839371866516     1.704704693375     1.007825032070
           H         -3.686170950513     0.198732866516     0.015548693375     1.007825032070
           H         -3.334260950513     1.932571866516     0.030820693375     1.007825032070
           H         -2.582439950513     0.840947866516     1.209724693375     1.007825032070

  Charge       = 0
  Multiplicity = 1
  Basis Set: 6-31G*
  Basis Set:

    Orbital Energies (a.u.)
    -----------------------

    Doubly Occupied:

       1A    -20.547042     2A    -11.324154     3A    -11.228943
       4A    -11.228336     5A    -11.228025     6A    -11.221253
       7A    -11.219442     8A    -11.211053     9A     -1.392798
      10A     -1.096610    11A     -1.043531    12A     -0.998033
      13A     -0.936382    14A     -0.865269    15A     -0.777054
      16A     -0.733091    17A     -0.665705    18A     -0.645145
      19A     -0.629987    20A     -0.618125    21A     -0.591546
      22A     -0.586608    23A     -0.560950    24A     -0.539171
      25A     -0.534919    26A     -0.524814    27A     -0.499572
      28A     -0.487437    29A     -0.467599    30A     -0.463228
      31A     -0.454005    32A     -0.395920

  @DF-RHF Final Energy:  -348.09095350814152

   => Energetics <=

    Nuclear Repulsion Energy =            375.9100425276088799
    One-Electron Energy =               -1216.5704826503956610
    Two-Electron Energy =                 492.5694866146459958
    DFT Exchange-Correlation Energy =       0.0000000000000000
    Empirical Dispersion Energy =           0.0000000000000000
    PCM Polarization Energy =               0.0000000000000000
    EFP Energy =                            0.0000000000000000
    Total Energy =                       -348.0909535081407853

  Mulliken Charges: (a.u.)
   Center  Symbol    Alpha    Beta     Spin     Total
       1     O     4.26264  4.26264  0.00000 -0.52529
       2     C     2.73713  2.73713  0.00000  0.52574
       3     C     3.19853  3.19853  0.00000 -0.39706
       4     C     3.28950  3.28950  0.00000 -0.57900
       5     C     3.16711  3.16711  0.00000 -0.33423
       6     H     0.40151  0.40151  0.00000  0.19698
       7     H     0.41730  0.41730  0.00000  0.16541
       8     C     3.15415  3.15415  0.00000 -0.30830
       9     H     0.40262  0.40262  0.00000  0.19475
      10     H     0.42061  0.42061  0.00000  0.15879
      11     C     3.15440  3.15440  0.00000 -0.30880
      12     H     0.41877  0.41877  0.00000  0.16245
      13     H     0.42099  0.42099  0.00000  0.15802
      14     C     3.24591  3.24591  0.00000 -0.49182
      15     H     0.41859  0.41859  0.00000  0.16283
      16     H     0.42091  0.42091  0.00000  0.15817
      17     H     0.41870  0.41870  0.00000  0.16260
      18     H     0.41733  0.41733  0.00000  0.16535
      19     H     0.41939  0.41939  0.00000  0.16121
      20     H     0.40693  0.40693  0.00000  0.18613
      21     H     0.39715  0.39715  0.00000  0.20570
      22     H     0.40981  0.40981  0.00000  0.18038

   Total alpha = 32.00000, Total beta = 32.00000, Total charge =  0.00000
