  ==> Input File <==

--------------------------------------------------------------------------
set {
	reference rhf
	basis 6-31G*
}

set_num_threads( 4 )
memory 2 gb

molecule MOL {
0 1

H	 -2.646374	 -0.642757	 1.268656
C	 -2.083525	 -0.384536	 0.393091
O	 -0.807605	 -0.127164	 0.768327
F	 -2.118945	 -1.383102	 -0.486752
F	 -2.621877	 0.670592	 -0.209486
C	 -0.489903	 1.170286	 1.126625
C	 0.808660	 1.523391	 0.413036
Cl	 -0.295559	 1.310962	 2.881520
H	 -1.244561	 1.875145	 0.824238
F	 1.168796	 2.756819	 0.697813
F	 0.612913	 1.444292	 -0.888066
F	 1.786763	 0.712750	 0.735758

	symmetry c1
}
set optking {
	frozen_dihedral = ("
		6 3 2 4
	")
}

ee = optimize('scf')
oeprop('DIPOLE', 'QUADRUPOLE', 'MULLIKEN_CHARGES')
f=open( 'psi4out.xyz', 'w' )
f.write( "12  " )
f.write( str(ee) + "\n" )
f.write( MOL.save_string_xyz() )
f.close()
--------------------------------------------------------------------------

    Molecular point group: c1
  Charge       = 0
  Multiplicity = 1
  Basis Set: 6-31G*
  Basis Set:
  @DF-RHF Final Energy: -1146.30686558056573
    Total Energy =                      -1146.3068655805654998
    Molecular point group: c1
  Basis Set: 6-31G*
  Basis Set:
  Basis Set: 6-31G*
  Basis Set:
  @DF-RHF Final Energy: -1146.30896493143882
    Total Energy =                      -1146.3089649314392773
  Basis Set: 6-31G*
  Basis Set:
  Basis Set: 6-31G*
  Basis Set:
  @DF-RHF Final Energy: -1146.30988593408165
    Total Energy =                      -1146.3098859340814215
  Basis Set: 6-31G*
  Basis Set:
  Basis Set: 6-31G*
  Basis Set:
  @DF-RHF Final Energy: -1146.31015466483495
    Total Energy =                      -1146.3101546648354088
  Basis Set: 6-31G*
  Basis Set:
  @DF-RHF Final Energy: -1146.31037540401394
    Total Energy =                      -1146.3103754040139393
  @DF-RHF Final Energy: -1146.31086817804521
    Total Energy =                      -1146.3108681780449842
  Basis Set: 6-31G*
  Basis Set:
  @DF-RHF Final Energy: -1146.31114320366032
    Total Energy =                      -1146.3111432036598671
  Basis Set: 6-31G*
  Basis Set:
  Basis Set: 6-31G*
  Basis Set:
  @DF-RHF Final Energy: -1146.31118887286448
    Total Energy =                      -1146.3111888728651593
  Basis Set: 6-31G*
  Basis Set:
  Basis Set: 6-31G*
  Basis Set:
  @DF-RHF Final Energy: -1146.31119417693662
    Total Energy =                      -1146.3111941769366240
  Basis Set: 6-31G*
  Basis Set:
  Charge       = 0
  Multiplicity = 1
  Basis Set: 6-31G*
  Basis Set:

    Orbital Energies (a.u.)
    -----------------------

    Doubly Occupied:

       1A   -104.848558     2A    -26.361589     3A    -26.359528
       4A    -26.359039     5A    -26.351988     6A    -26.345100
       7A    -20.648331     8A    -11.530171     9A    -11.491205
      10A    -11.404316    11A    -10.583398    12A     -8.052692
      13A     -8.049308    14A     -8.049139    15A     -1.762751
      16A     -1.720253    17A     -1.659173    18A     -1.657572
      19A     -1.643097    20A     -1.485520    21A     -1.178698
      22A     -1.059308    23A     -0.984978    24A     -0.920979
      25A     -0.860995    26A     -0.849990    27A     -0.843734
      28A     -0.836946    29A     -0.814645    30A     -0.791767
      31A     -0.729213    32A     -0.726407    33A     -0.699151
      34A     -0.693283    35A     -0.685235    36A     -0.674170
      37A     -0.663244    38A     -0.661970    39A     -0.659017
      40A     -0.633731    41A     -0.604834    42A     -0.574196
      43A     -0.513608    44A     -0.484068    45A     -0.475059

  @DF-RHF Final Energy: -1146.31119458744729

   => Energetics <=

    Nuclear Repulsion Energy =            730.3665674874305296
    One-Electron Energy =               -3043.3916208701434698
    Two-Electron Energy =                1166.7138587952661055
    DFT Exchange-Correlation Energy =       0.0000000000000000
    Empirical Dispersion Energy =           0.0000000000000000
    PCM Polarization Energy =               0.0000000000000000
    EFP Energy =                            0.0000000000000000
    Total Energy =                      -1146.3111945874468347
    Molecular point group: c1
  Basis Set: 6-31G*
  Basis Set:

  -Total Gradient:
     Atom            X                  Y                   Z
    ------   -----------------  -----------------  -----------------
       1       -0.000051235379    -0.000032382278     0.000002045395
       2        0.000508900397    -0.001523362091     0.000615091228
       3        0.000427076315    -0.000775244565     0.002587826344
       4       -0.000576491095     0.001689530953    -0.001239009346
       5       -0.000018226253    -0.000195748412    -0.000052814295
       6       -0.000181424442     0.001028906895    -0.001767075892
       7        0.000038807193     0.000031191449     0.000028045876
       8        0.000015487116    -0.000085040161    -0.000004208990
       9        0.000051846857    -0.000011093550    -0.000119368374
      10       -0.000066067127    -0.000045084116    -0.000032987185
      11       -0.000110866172    -0.000071051617    -0.000104677113
      12       -0.000037807424    -0.000010622510     0.000087132411

  **** Optimization is complete! (in 10 steps) ****
    Final optimized geometry and variables:
    Molecular point group: c1

    Geometry (in Angstrom), charge = 0, multiplicity = 1:

    H           -1.938663056762    -1.763718580265     0.652034121227
    C           -1.679849543532    -1.277940333882    -0.271645433302
    O           -0.381027497483    -0.853372319313    -0.286206076252
    F           -1.819625963670    -2.114362166642    -1.279030316787
    F           -2.508172950854    -0.254254228499    -0.470824335829
    C           -0.065089167544     0.397035674902     0.178007057913
    C            1.351420471759     0.685078085781    -0.302984268015
    CL          -0.147651480978     0.484051910322     1.959037554331
    H           -0.720887389749     1.157789582060    -0.204567182899
    F            1.724475965977     1.886088827106     0.084984846585
    F            1.369591264702     0.656915284514    -1.619213966945
    F            2.215934521756    -0.191048762263     0.145980541859

  Mulliken Charges: (a.u.)
   Center  Symbol    Alpha    Beta     Spin     Total
       1     H     0.40975  0.40975  0.00000  0.18050
       2     C     2.56289  2.56289  0.00000  0.87423
       3     O     4.30586  4.30586  0.00000 -0.61172
       4     F     4.67028  4.67028  0.00000 -0.34055
       5     F     4.68501  4.68501  0.00000 -0.37001
       6     C     3.03574  3.03574  0.00000 -0.07147
       7     C     2.43128  2.43128  0.00000  1.13743
       8    CL     8.51629  8.51629  0.00000 -0.03258
       9     H     0.36578  0.36578  0.00000  0.26843
      10     F     4.67478  4.67478  0.00000 -0.34957
      11     F     4.67461  4.67461  0.00000 -0.34922
      12     F     4.66773  4.66773  0.00000 -0.33546

   Total alpha = 45.00000, Total beta = 45.00000, Total charge = -0.00000
