                              Psi4 1.0.54 Driver

  ==> Input File <==

--------------------------------------------------------------------------
set {
	reference rhf
	basis cc-pvtz
}

set_num_threads( 4 )
memory 2 gb

molecule MOL {
0 1

H	 -3.642953	 0.223825	 0.000000
C	 -2.571844	 0.155001	 0.000000
C	 -1.957580	 -1.086132	 0.000000
C	 -1.807160	 1.303787	 0.000000
H	 -2.551493	 -1.979629	 0.000000
C	 -0.582719	 -1.174294	 0.000000
H	 -2.279934	 2.266806	 0.000000
C	 -0.427220	 1.213406	 0.000000
H	 -0.094904	 -2.127556	 0.000000
C	 0.196908	 -0.024061	 0.000000
H	 0.151409	 2.115254	 0.000000
C	 1.690041	 -0.173233	 0.000000
C	 2.297411	 -1.481515	 -0.451841
O	 2.386848	 0.725064	 0.350546
H	 1.955095	 -2.299005	 0.171465
H	 3.370712	 -1.402685	 -0.384457
H	 2.014634	 -1.703048	 -1.474064

	symmetry c1
}
set optking {
	frozen_dihedral = ("
		13 12 10 8
	")
}

ee,wfn = optimize('scf', return_wfn=True)
oeprop( wfn, 'DIPOLE', 'QUADRUPOLE', 'MULLIKEN_CHARGES')
f=open( 'psi4out.xyz', 'w' )
f.write( "17  " )
f.write( str(ee) + "\n" )
f.write( MOL.save_string_xyz() )
f.close()
--------------------------------------------------------------------------

    Molecular point group: c1
  Charge       = 0
  Multiplicity = 1
  Basis Set: CC-PVTZ
  Basis Set:
  @DF-RHF Final Energy:  -382.60306486308548
    Total Energy =                       -382.6030648630852511
    Molecular point group: c1
  Basis Set: CC-PVTZ
  Basis Set:
  Basis Set: CC-PVTZ
  Basis Set:
  @DF-RHF Final Energy:  -382.59800395784015
    Total Energy =                       -382.5980039578405467
  Basis Set: CC-PVTZ
  Basis Set:
  Basis Set: CC-PVTZ
  Basis Set:
  @DF-RHF Final Energy:  -382.60438298260016
    Total Energy =                       -382.6043829826001001
  Basis Set: CC-PVTZ
  Basis Set:
  Basis Set: CC-PVTZ
  Basis Set:
  @DF-RHF Final Energy:  -382.59817835173629
    Total Energy =                       -382.5981783517364647
  Basis Set: CC-PVTZ
  Basis Set:
  @DF-RHF Final Energy:  -382.60390241648719
    Total Energy =                       -382.6039024164870170
  Basis Set: CC-PVTZ
  Basis Set:
  @DF-RHF Final Energy:  -382.60504636074967
    Total Energy =                       -382.6050463607500660
  Basis Set: CC-PVTZ
  Basis Set:
  Basis Set: CC-PVTZ
  Basis Set:
  @DF-RHF Final Energy:  -382.60505933994318
    Total Energy =                       -382.6050593399434092
  Basis Set: CC-PVTZ
  Basis Set:
  Basis Set: CC-PVTZ
  Basis Set:
  @DF-RHF Final Energy:  -382.60506103579826
    Total Energy =                       -382.6050610357980304
  Basis Set: CC-PVTZ
  Basis Set:
  Charge       = 0
  Multiplicity = 1
  Basis Set: CC-PVTZ
  Basis Set:

    Orbital Energies (a.u.)
    -----------------------

    Doubly Occupied:

       1A    -20.540939     2A    -11.327918     3A    -11.246596
       4A    -11.243947     5A    -11.242901     6A    -11.239275
       7A    -11.239023     8A    -11.236830     9A    -11.229117
      10A     -1.402242    11A     -1.171250    12A     -1.053479
      13A     -1.030721    14A     -0.998983    15A     -0.864480
      16A     -0.839210    17A     -0.763738    18A     -0.712636
      19A     -0.659276    20A     -0.651958    21A     -0.628355
      22A     -0.613134    23A     -0.602718    24A     -0.598532
      25A     -0.556463    26A     -0.529932    27A     -0.520875
      28A     -0.504054    29A     -0.497488    30A     -0.414453
      31A     -0.350707    32A     -0.346909

  @DF-RHF Final Energy:  -382.60506137094404

   => Energetics <=

    Nuclear Repulsion Energy =            404.4512262111467749
    One-Electron Energy =               -1320.3962948633302403
    Two-Electron Energy =                 533.3400072812394228
    DFT Exchange-Correlation Energy =       0.0000000000000000
    Empirical Dispersion Energy =           0.0000000000000000
    PCM Polarization Energy =               0.0000000000000000
    EFP Energy =                            0.0000000000000000
    Total Energy =                       -382.6050613709439858
    Molecular point group: c1
  Basis Set: CC-PVTZ
  Basis Set:

  -Total Gradient:
     Atom            X                  Y                   Z
    ------   -----------------  -----------------  -----------------
       1       -0.000003162034    -0.000001873799     0.000002513205
       2        0.000005507150     0.000051101333    -0.000011328910
       3        0.000042770276    -0.000017544050     0.000008733061
       4       -0.000032306367    -0.000010390998    -0.000004509221
       5       -0.000003734464     0.000003278171    -0.000001239783
       6       -0.000030009227    -0.000025905892    -0.000007783377
       7       -0.000004579473     0.000002283385     0.000000322323
       8       -0.000148093662     0.000014886459    -0.001867101485
       9        0.000000136380     0.000003721989     0.000006706842
      10        0.000110545036     0.000261812370     0.001929455709
      11        0.000001174814    -0.000001028303    -0.000005896064
      12        0.000214770892    -0.000879230695     0.001580354163
      13       -0.000128287245     0.000623909275    -0.001638153300
      14       -0.000020446389    -0.000007222017     0.000002676453
      15       -0.000002046242    -0.000013362709     0.000012870227
      16        0.000002675453    -0.000011824680    -0.000003778049
      17       -0.000004914891     0.000007390165    -0.000003841794

  **** Optimization is complete! (in 9 steps) ****
    Final optimized geometry and variables:
    Molecular point group: c1

    Geometry (in Angstrom), charge = 0, multiplicity = 1:

    H           -3.638667680792     0.049990999017     0.262159519866
    C           -2.567693877243     0.037348672523     0.192235342813
    C           -1.894662581952    -1.166276004204     0.129894742857
    C           -1.861721412178     1.227890721603     0.161638791930
    H           -2.438825223651    -2.090607004770     0.153942834071
    C           -0.515633186106    -1.181004509884     0.030463418527
    H           -2.384390488265     2.163932608959     0.204408871508
    C           -0.486121943465     1.211424376361     0.077409569833
    H           -0.007987414685    -2.123450971331    -0.025291748790
    C            0.200016038902     0.005566408217     0.014332736955
    H            0.072226927964     2.125387013168     0.061552893938
    C            1.696117275347     0.041188953335    -0.098600523892
    C            2.416620519894    -1.181679540162    -0.618796947129
    O            2.299395466918     1.026699039725     0.182575268452
    H            2.327638161355    -2.004707057658     0.081029906653
    H            3.459797762609    -0.939225623170    -0.746220076654
    H            1.993350714822    -1.502975286574    -1.562491200539

  Mulliken Charges: (a.u.)
   Center  Symbol    Alpha    Beta     Spin     Total
       1     H     0.42033  0.42033  0.00000  0.15933
       2     C     3.07397  3.07397  0.00000 -0.14794
       3     C     3.07480  3.07480  0.00000 -0.14961
       4     C     3.07306  3.07306  0.00000 -0.14611
       5     H     0.42219  0.42219  0.00000  0.15562
       6     C     3.08701  3.08701  0.00000 -0.17402
       7     H     0.42037  0.42037  0.00000  0.15926
       8     C     3.07794  3.07794  0.00000 -0.15588
       9     H     0.42185  0.42185  0.00000  0.15629
      10     C     3.00432  3.00432  0.00000 -0.00864
      11     H     0.40827  0.40827  0.00000  0.18346
      12     C     2.84181  2.84181  0.00000  0.31637
      13     C     3.16569  3.16569  0.00000 -0.33139
      14     O     4.18187  4.18187  0.00000 -0.36374
      15     H     0.44903  0.44903  0.00000  0.10194
      16     H     0.43227  0.43227  0.00000  0.13546
      17     H     0.44521  0.44521  0.00000  0.10957

   Total alpha = 32.00000, Total beta = 32.00000, Total charge = -0.00000

*** Psi4 exiting successfully. Buy a developer a beer!
