                              Psi4 1.0.54 Driver

  ==> Input File <==

--------------------------------------------------------------------------
set {
	reference rhf
	basis cc-pvtz
}

set_num_threads( 4 )
memory 2 gb

molecule MOL {
0 1

H	 3.726381	 -0.814114	 0.710972
O	 2.826940	 -1.082738	 0.598979
C	 2.079334	 0.006418	 0.443232
C	 0.626018	 -0.337582	 0.258241
O	 2.543369	 1.093782	 0.455572
C	 -0.267326	 0.883135	 0.076490
H	 0.570351	 -1.013459	 -0.586714
H	 0.324682	 -0.919057	 1.123988
C	 -1.726822	 0.642622	 0.463839
H	 -0.210803	 1.217591	 -0.953497
H	 0.129920	 1.693110	 0.675679
C	 -2.480891	 -0.340606	 -0.429852
H	 -2.243098	 1.597649	 0.438609
H	 -1.776542	 0.301208	 1.495542
C	 -3.955933	 -0.460128	 -0.060472
H	 -2.393755	 -0.020485	 -1.464726
H	 -2.024244	 -1.323637	 -0.374360
H	 -4.467673	 -1.160944	 -0.709827
H	 -4.458917	 0.497287	 -0.144505
H	 -4.076458	 -0.806900	 0.960497

	symmetry c1
}
set optking {
	frozen_dihedral = ("
		7 4 6 10
	")
}

ee,wfn = optimize('scf', return_wfn=True)
oeprop( wfn, 'DIPOLE', 'QUADRUPOLE', 'MULLIKEN_CHARGES')
f=open( 'psi4out.xyz', 'w' )
f.write( "20  " )
f.write( str(ee) + "\n" )
f.write( MOL.save_string_xyz() )
f.close()
--------------------------------------------------------------------------

    Molecular point group: c1
  Charge       = 0
  Multiplicity = 1
  Basis Set: CC-PVTZ
  Basis Set:
  @DF-RHF Final Energy:  -384.09377584405019
    Total Energy =                       -384.0937758440499579
    Molecular point group: c1
  Basis Set: CC-PVTZ
  Basis Set:
  Basis Set: CC-PVTZ
  Basis Set:
  @DF-RHF Final Energy:  -384.09385538112599
    Total Energy =                       -384.0938553811255929
  Basis Set: CC-PVTZ
  Basis Set:
  Basis Set: CC-PVTZ
  Basis Set:
  @DF-RHF Final Energy:  -384.09397314083515
    Total Energy =                       -384.0939731408350326
  Basis Set: CC-PVTZ
  Basis Set:
  Basis Set: CC-PVTZ
  Basis Set:
  @DF-RHF Final Energy:  -384.09396824403103
    Total Energy =                       -384.0939682440310889
  Basis Set: CC-PVTZ
  Basis Set:
  Basis Set: CC-PVTZ
  Basis Set:
  @DF-RHF Final Energy:  -384.09385782549839
    Total Energy =                       -384.0938578254985032
  Basis Set: CC-PVTZ
  Basis Set:
  Basis Set: CC-PVTZ
  Basis Set:
  @DF-RHF Final Energy:  -384.09398844588213
    Total Energy =                       -384.0939884458821325
  Basis Set: CC-PVTZ
  Basis Set:
  Charge       = 0
  Multiplicity = 1
  Basis Set: CC-PVTZ
  Basis Set:

    Orbital Energies (a.u.)
    -----------------------

    Doubly Occupied:

       1A    -20.603821     2A    -20.540686     3A    -11.373498
       4A    -11.239127     5A    -11.220539     6A    -11.218599
       7A    -11.217865     8A    -11.210497     9A     -1.477538
      10A     -1.369032    11A     -1.097373    12A     -1.041694
      13A     -0.962628    14A     -0.870041    15A     -0.817945
      16A     -0.777342    17A     -0.703939    18A     -0.692674
      19A     -0.667495    20A     -0.637613    21A     -0.604100
      22A     -0.595991    23A     -0.576600    24A     -0.553852
      25A     -0.545907    26A     -0.512348    27A     -0.497102
      28A     -0.484720    29A     -0.469228    30A     -0.468367
      31A     -0.458519    32A     -0.446861

  @DF-RHF Final Energy:  -384.09398941770968

   => Energetics <=

    Nuclear Repulsion Energy =            376.6154606168890382
    One-Electron Energy =               -1269.5118213849518725
    Two-Electron Energy =                 508.8023713503527006
    DFT Exchange-Correlation Energy =       0.0000000000000000
    Empirical Dispersion Energy =           0.0000000000000000
    PCM Polarization Energy =               0.0000000000000000
    EFP Energy =                            0.0000000000000000
    Total Energy =                       -384.0939894177100769
    Molecular point group: c1
  Basis Set: CC-PVTZ
  Basis Set:

  -Total Gradient:
     Atom            X                  Y                   Z
    ------   -----------------  -----------------  -----------------
       1       -0.000007268173     0.000007592298    -0.000001681954
       2        0.000041420870    -0.000056011148     0.000001904839
       3       -0.000033921468     0.000105373019    -0.000003472209
       4       -0.003259012458    -0.002038009385     0.001476622093
       5       -0.000021725695    -0.000071248193     0.000007363282
       6        0.003303651977     0.002323907102     0.000421080931
       7        0.002193530172     0.001330004705    -0.001266930269
       8        0.000012712232    -0.000003446714     0.000005445819
       9        0.000023003915    -0.000011502211     0.000011534898
      10       -0.002216478669    -0.001587950843    -0.000618504872
      11        0.000006001928    -0.000009075481    -0.000014629334
      12       -0.000020297587     0.000026617867    -0.000016542902
      13        0.000003694955    -0.000024598523    -0.000002148927
      14       -0.000006497490     0.000017095084     0.000004494237
      15       -0.000009812469    -0.000015484700    -0.000005717149
      16       -0.000011608959    -0.000004546605    -0.000001880568
      17       -0.000001498999     0.000017123567     0.000003968387
      18       -0.000006365344    -0.000001189493     0.000007799706
      19        0.000006670184    -0.000008736057    -0.000002526691
      20        0.000003801095     0.000004085714    -0.000006179315

  **** Optimization is complete! (in 7 steps) ****
    Final optimized geometry and variables:
    Molecular point group: c1

    Geometry (in Angstrom), charge = 0, multiplicity = 1:

    H            3.693788095666    -0.960050295648     0.404155664135
    O            2.780864874310    -1.192725869460     0.326022797297
    C            2.072464499139    -0.074915641325     0.188557705647
    C            0.600092017700    -0.366568554497     0.055934171044
    O            2.581094089219     0.992246728784     0.175519747531
    C           -0.256540928180     0.885049157481    -0.121608166268
    H            0.509888966080    -1.041879024222    -0.786802746764
    H            0.310386087941    -0.930885670388     0.936040319228
    C           -1.726364903312     0.673027286715     0.245242711931
    H           -0.200097923401     1.211734279102    -1.154694795320
    H            0.153122515302     1.682194919786     0.482873893314
    C           -2.469088137533    -0.328706118273    -0.636903295801
    H           -2.233043903880     1.631768259005     0.185680588985
    H           -1.796899897506     0.358620857841     1.284257707238
    C           -3.946566599212    -0.451146127052    -0.278617174285
    H           -2.374689107646    -0.026572349818    -1.676759283164
    H           -2.004950493089    -1.307233034400    -0.560356688671
    H           -4.448138044361    -1.167473484951    -0.918941171276
    H           -4.454916821185     0.501191882498    -0.385236605800
    H           -4.074080020744    -0.779172419403     0.747666120025

  Mulliken Charges: (a.u.)
   Center  Symbol    Alpha    Beta     Spin     Total
       1     H     0.38238  0.38238  0.00000  0.23523
       2     O     4.16025  4.16025  0.00000 -0.32050
       3     C     2.80548  2.80548  0.00000  0.38905
       4     C     3.11449  3.11449  0.00000 -0.22897
       5     O     4.19029  4.19029  0.00000 -0.38058
       6     C     3.09568  3.09568  0.00000 -0.19136
       7     H     0.43474  0.43474  0.00000  0.13053
       8     H     0.43643  0.43643  0.00000  0.12714
       9     C     3.09958  3.09958  0.00000 -0.19916
      10     H     0.44914  0.44914  0.00000  0.10173
      11     H     0.43382  0.43382  0.00000  0.13236
      12     C     3.08572  3.08572  0.00000 -0.17143
      13     H     0.44596  0.44596  0.00000  0.10808
      14     H     0.45373  0.45373  0.00000  0.09253
      15     C     3.14965  3.14965  0.00000 -0.29930
      16     H     0.45329  0.45329  0.00000  0.09342
      17     H     0.45318  0.45318  0.00000  0.09364
      18     H     0.44785  0.44785  0.00000  0.10430
      19     H     0.45355  0.45355  0.00000  0.09290
      20     H     0.45479  0.45479  0.00000  0.09041

   Total alpha = 32.00000, Total beta = 32.00000, Total charge =  0.00000

*** Psi4 exiting successfully. Buy a developer a beer!
