                              Psi4 1.0.54 Driver

  ==> Input File <==

--------------------------------------------------------------------------
set {
	reference rhf
	basis cc-pvtz
}

set_num_threads( 4 )
memory 2 gb

molecule MOL {
0 1

H	 -2.366577	 1.074625	 1.113697
C	 -2.490035	 0.179073	 0.519589
C	 -1.227335	 -0.668251	 0.540731
H	 -2.733580	 0.487727	 -0.488198
H	 -3.326526	 -0.383134	 0.917219
C	 0.000000	 0.039916	 0.000014
H	 -1.363334	 -1.578662	 -0.036810
H	 -0.999513	 -0.996913	 1.551161
C	 1.286532	 -0.763243	 0.000268
O	 -0.043776	 1.157264	 -0.399981
C	 2.547023	 0.087626	 -0.000114
H	 1.264245	 -1.421103	 -0.864380
H	 1.264290	 -1.420353	 0.865489
H	 2.584452	 0.725630	 -0.872909
H	 3.427035	 -0.544422	 0.000125
H	 2.584484	 0.726356	 0.872143

	symmetry c1
}
set optking {
	frozen_dihedral = ("
		3 6 9 12
	")
}

ee,wfn = optimize('scf', return_wfn=True)
oeprop( wfn, 'DIPOLE', 'QUADRUPOLE', 'MULLIKEN_CHARGES')
f=open( 'psi4out.xyz', 'w' )
f.write( "16  " )
f.write( str(ee) + "\n" )
f.write( MOL.save_string_xyz() )
f.close()
--------------------------------------------------------------------------

    Molecular point group: c1
  Charge       = 0
  Multiplicity = 1
  Basis Set: CC-PVTZ
  Basis Set:
  @DF-RHF Final Energy:  -270.13116258358508
    Total Energy =                       -270.1311625835847963
    Molecular point group: c1
  Basis Set: CC-PVTZ
  Basis Set:
  Basis Set: CC-PVTZ
  Basis Set:
  @DF-RHF Final Energy:  -270.13131811029575
    Total Energy =                       -270.1313181102956378
  Basis Set: CC-PVTZ
  Basis Set:
  Basis Set: CC-PVTZ
  Basis Set:
  @DF-RHF Final Energy:  -270.13063930658996
    Total Energy =                       -270.1306393065900693
  Basis Set: CC-PVTZ
  Basis Set:
  Basis Set: CC-PVTZ
  Basis Set:
  @DF-RHF Final Energy:  -270.13151189706201
    Total Energy =                       -270.1315118970622393
  Basis Set: CC-PVTZ
  Basis Set:
  Basis Set: CC-PVTZ
  Basis Set:
  @DF-RHF Final Energy:  -270.13152454080921
    Total Energy =                       -270.1315245408093233
  Basis Set: CC-PVTZ
  Basis Set:
  Charge       = 0
  Multiplicity = 1
  Basis Set: CC-PVTZ
  Basis Set:

    Orbital Energies (a.u.)
    -----------------------

    Doubly Occupied:

       1A    -20.538480     2A    -11.318009     3A    -11.232567
       4A    -11.232080     5A    -11.212852     6A    -11.211995
       7A     -1.399019     8A     -1.069656     9A     -1.037367
      10A     -0.916915    11A     -0.847131    12A     -0.725947
      13A     -0.669191    14A     -0.646870    15A     -0.622127
      16A     -0.607483    17A     -0.561390    18A     -0.531191
      19A     -0.526419    20A     -0.511415    21A     -0.503717
      22A     -0.494641    23A     -0.485438    24A     -0.400301

  @DF-RHF Final Energy:  -270.13152542854220

   => Energetics <=

    Nuclear Repulsion Energy =            240.3223406969491123
    One-Electron Energy =                -842.3033331846393139
    Two-Electron Energy =                 331.8494670591477416
    DFT Exchange-Correlation Energy =       0.0000000000000000
    Empirical Dispersion Energy =           0.0000000000000000
    PCM Polarization Energy =               0.0000000000000000
    EFP Energy =                            0.0000000000000000
    Total Energy =                       -270.1315254285424317
    Molecular point group: c1
  Basis Set: CC-PVTZ
  Basis Set:

  -Total Gradient:
     Atom            X                  Y                   Z
    ------   -----------------  -----------------  -----------------
       1        0.000004700526    -0.000008558545    -0.000000889874
       2       -0.000018327363    -0.000008475359    -0.000029342280
       3        0.000240375254     0.000249889641     0.000791150765
       4       -0.000003874695     0.000007770461     0.000008179006
       5       -0.000004350442    -0.000000818672     0.000003961584
       6       -0.000231588107    -0.000223383368    -0.001177963844
       7       -0.000003428446    -0.000010647886    -0.000004220720
       8       -0.000005091849    -0.000032072975     0.000001906554
       9       -0.000487742766    -0.000831379031     0.000976183204
      10        0.000040548295     0.000064588853    -0.000030523156
      11        0.000030518639     0.000034153278    -0.000001281866
      12        0.000450623673     0.000760096601    -0.000534946963
      13       -0.000003486962     0.000018729539    -0.000014949723
      14       -0.000010266280    -0.000007359886     0.000004681535
      15        0.000002056653    -0.000009747189     0.000006794843
      16       -0.000000666133    -0.000002785464     0.000001260934

  **** Optimization is complete! (in 6 steps) ****
    Final optimized geometry and variables:
    Molecular point group: c1

    Geometry (in Angstrom), charge = 0, multiplicity = 1:

    H           -2.435843413581     1.071275823701     0.893249494010
    C           -2.518431266680     0.134636714887     0.359343872355
    C           -1.234089393831    -0.671378719802     0.472807783562
    H           -2.741318883311     0.366832749296    -0.674042907153
    H           -3.351033711005    -0.423490152282     0.770601106791
    C           -0.007395462210     0.038533894823    -0.062874258379
    H           -1.323391569441    -1.625465770322    -0.039691276775
    H           -1.025107881044    -0.918851027043     1.510947364393
    C            1.256766595734    -0.794718347165    -0.160423702134
    O           -0.032084562260     1.179547878026    -0.391609496290
    C            2.534604455831     0.031556790089    -0.204779089494
    H            1.162995350970    -1.382753626061    -1.071112347907
    H            1.278090305141    -1.507777432382     0.656653539961
    H            2.518528067059     0.721711753420    -1.036100946854
    H            3.397823009439    -0.614802819147    -0.308553021064
    H            2.653935563022     0.611952233522     0.701928776730

  Mulliken Charges: (a.u.)
   Center  Symbol    Alpha    Beta     Spin     Total
       1     H     0.44578  0.44578  0.00000  0.10845
       2     C     3.14105  3.14105  0.00000 -0.28209
       3     C     3.10002  3.10002  0.00000 -0.20005
       4     H     0.44976  0.44976  0.00000  0.10048
       5     H     0.45067  0.45067  0.00000  0.09865
       6     C     2.87213  2.87213  0.00000  0.25574
       7     H     0.44549  0.44549  0.00000  0.10902
       8     H     0.44556  0.44556  0.00000  0.10889
       9     C     3.09810  3.09810  0.00000 -0.19621
      10     O     4.17319  4.17319  0.00000 -0.34638
      11     C     3.14185  3.14185  0.00000 -0.28369
      12     H     0.44570  0.44570  0.00000  0.10861
      13     H     0.44521  0.44521  0.00000  0.10958
      14     H     0.44277  0.44277  0.00000  0.11445
      15     H     0.45040  0.45040  0.00000  0.09920
      16     H     0.45233  0.45233  0.00000  0.09535

   Total alpha = 24.00000, Total beta = 24.00000, Total charge =  0.00000

*** Psi4 exiting successfully. Buy a developer a beer!
