  ==> Input File <==

--------------------------------------------------------------------------
set {
	reference rhf
	basis 6-31G*
}

set_num_threads( 4 )
memory 2 gb

molecule MOL {
0 1

O	 -0.682937	 1.318834	 -0.186099
C	 -0.860635	 0.152188	 -0.042321
C	 -2.173363	 -0.477127	 0.338347
O	 0.083258	 -0.765189	 -0.202595
H	 -2.477673	 -1.180929	 -0.427595
H	 -2.923125	 0.290956	 0.455536
H	 -2.058825	 -1.029004	 1.264191
C	 0.003457	 -1.962133	 0.567959
C	 -0.914435	 -2.981484	 -0.080921
H	 -0.323934	 -1.719526	 1.567507
H	 1.019835	 -2.326601	 0.608439
H	 -0.895336	 -3.906691	 0.486844
H	 -1.934744	 -2.620069	 -0.107725
H	 -0.590559	 -3.196380	 -1.093511

	symmetry c1
}
set optking {
	frozen_dihedral = ("
		8 4 2 1
	")
}

ee = optimize('scf')
oeprop('DIPOLE', 'QUADRUPOLE', 'MULLIKEN_CHARGES')
f=open( 'psi4out.xyz', 'w' )
f.write( "14  " )
f.write( str(ee) + "\n" )
f.write( MOL.save_string_xyz() )
f.close()
--------------------------------------------------------------------------

    Molecular point group: c1
  Charge       = 0
  Multiplicity = 1
  Basis Set: 6-31G*
  Basis Set:
  @DF-RHF Final Energy:  -305.83521362093609
    Total Energy =                       -305.8352136209359742
    Molecular point group: c1
  Basis Set: 6-31G*
  Basis Set:
  Basis Set: 6-31G*
  Basis Set:
  @DF-RHF Final Energy:  -305.85195489887593
    Total Energy =                       -305.8519548988757606
  Basis Set: 6-31G*
  Basis Set:
  Basis Set: 6-31G*
  Basis Set:
  @DF-RHF Final Energy:  -305.85473936782046
    Total Energy =                       -305.8547393678203434
  Basis Set: 6-31G*
  Basis Set:
  Basis Set: 6-31G*
  Basis Set:
  @DF-RHF Final Energy:  -305.85546476698948
    Total Energy =                       -305.8554647669895985
  Basis Set: 6-31G*
  Basis Set:
  @DF-RHF Final Energy:  -305.85666054742086
    Total Energy =                       -305.8566605474208018
  @DF-RHF Final Energy:  -305.85686251876609
    Total Energy =                       -305.8568625187660928
  @DF-RHF Final Energy:  -305.85698557914964
    Total Energy =                       -305.8569855791495797
  @DF-RHF Final Energy:  -305.85700848434510
    Total Energy =                       -305.8570084843449877
  @DF-RHF Final Energy:  -305.85703377872335
    Total Energy =                       -305.8570337787232916
  @DF-RHF Final Energy:  -305.85715588269085
    Total Energy =                       -305.8571558826910177
  @DF-RHF Final Energy:  -305.85741509142923
    Total Energy =                       -305.8574150914290612
  @DF-RHF Final Energy:  -305.85739988080195
    Total Energy =                       -305.8573998808017222
  @DF-RHF Final Energy:  -305.85769249590049
    Total Energy =                       -305.8576924959003236
  @DF-RHF Final Energy:  -305.85761623192991
    Total Energy =                       -305.8576162319297964
  @DF-RHF Final Energy:  -305.85773995478149
    Total Energy =                       -305.8577399547815503
  @DF-RHF Final Energy:  -305.85775630994272
    Total Energy =                       -305.8577563099428289
  @DF-RHF Final Energy:  -305.85787594597878
    Total Energy =                       -305.8578759459791172
  @DF-RHF Final Energy:  -305.85184108131949
    Total Energy =                       -305.8518410813196624
  @DF-RHF Final Energy:  -305.85839019830769
    Total Energy =                       -305.8583901983075748
  @DF-RHF Final Energy:  -305.85907690725458
    Total Energy =                       -305.8590769072543480
  @DF-RHF Final Energy:  -305.85975924225068
    Total Energy =                       -305.8597592422507887
  @DF-RHF Final Energy:  -305.86002735319329
    Total Energy =                       -305.8600273531930611
  @DF-RHF Final Energy:  -305.86009129522859
    Total Energy =                       -305.8600912952283579
  Basis Set: 6-31G*
  Basis Set:
  @DF-RHF Final Energy:  -305.86016576710648
    Total Energy =                       -305.8601657671065368
  Basis Set: 6-31G*
  Basis Set:
  Basis Set: 6-31G*
  Basis Set:
  @DF-RHF Final Energy:  -305.86017486744367
    Total Energy =                       -305.8601748674436749
  Basis Set: 6-31G*
  Basis Set:
  Basis Set: 6-31G*
  Basis Set:
  @DF-RHF Final Energy:  -305.86018559276829
    Total Energy =                       -305.8601855927682891
  Basis Set: 6-31G*
  Basis Set:
  Charge       = 0
  Multiplicity = 1
  Basis Set: 6-31G*
  Basis Set:

    Orbital Energies (a.u.)
    -----------------------

    Doubly Occupied:

       1A    -20.597071     2A    -20.542898     3A    -11.376503
       4A    -11.301034     5A    -11.242142     6A    -11.228205
       7A     -1.461661     8A     -1.366111     9A     -1.051491
      10A     -1.015444    11A     -0.882870    12A     -0.786086
      13A     -0.698561    14A     -0.693352    15A     -0.658500
      16A     -0.618960    17A     -0.588631    18A     -0.566311
      19A     -0.557866    20A     -0.549752    21A     -0.521946
      22A     -0.500661    23A     -0.447784    24A     -0.434361

  @DF-RHF Final Energy:  -305.86018725083250

   => Energetics <=

    Nuclear Repulsion Energy =            245.1417301675510600
    One-Electron Energy =                -902.6274346471440140
    Two-Electron Energy =                 351.6255172287607706
    DFT Exchange-Correlation Energy =       0.0000000000000000
    Empirical Dispersion Energy =           0.0000000000000000
    PCM Polarization Energy =               0.0000000000000000
    EFP Energy =                            0.0000000000000000
    Total Energy =                       -305.8601872508322117
    Molecular point group: c1
  Basis Set: 6-31G*
  Basis Set:

  -Total Gradient:
     Atom            X                  Y                   Z
    ------   -----------------  -----------------  -----------------
       1        0.002434306124     0.000179945030     0.001826353033
       2       -0.002125889903     0.000110986655    -0.002415958962
       3        0.000007367458     0.000010434270     0.000001559254
       4       -0.002829377419    -0.000846762079     0.000232525033
       5       -0.000003401305    -0.000002655585     0.000003061141
       6        0.000004539737    -0.000001629366    -0.000005246082
       7       -0.000000399202     0.000005057896     0.000001350074
       8        0.002503916672     0.000566884928     0.000370379955
       9       -0.000007493774    -0.000014177057    -0.000013839773
      10        0.000013015670    -0.000011506278    -0.000011835269
      11        0.000000492574     0.000008310023     0.000009750347
      12        0.000001445682     0.000002496205    -0.000001578500
      13       -0.000001314825    -0.000004669194    -0.000000776142
      14        0.000002792511    -0.000002715453     0.000004255892

  **** Optimization is complete! (in 27 steps) ****
    Final optimized geometry and variables:
    Molecular point group: c1

    Geometry (in Angstrom), charge = 0, multiplicity = 1:

    O            0.229442801258     1.902112214647    -0.781712924897
    C           -0.194634374400     1.002761944834    -0.140786096094
    C           -1.128095700586     1.199575395256     1.031644972175
    O            0.131543064444    -0.254187497375    -0.461533774005
    H           -2.021669302673     0.596323189773     0.916492476697
    H           -1.396670575582     2.243800109844     1.080021963230
    H           -0.651146910069     0.914493973471     1.963099089674
    C            0.217533705007    -1.277605837574     0.513900381209
    C            0.736402719806    -2.519340940566    -0.180800897783
    H           -0.756156530794    -1.465154599087     0.951828711308
    H            0.893849707743    -0.971290532760     1.304528634921
    H            0.822430029049    -3.335202879059     0.529585179955
    H            0.060701768083    -2.819275874725    -0.973024417907
    H            1.710716976821    -2.330713123799    -0.614766827019

  Mulliken Charges: (a.u.)
   Center  Symbol    Alpha    Beta     Spin     Total
       1     O     4.26056  4.26056  0.00000 -0.52113
       2     C     2.61680  2.61680  0.00000  0.76640
       3     C     3.30669  3.30669  0.00000 -0.61337
       4     O     4.30375  4.30375  0.00000 -0.60751
       5     H     0.40207  0.40207  0.00000  0.19586
       6     H     0.38862  0.38862  0.00000  0.22276
       7     H     0.40361  0.40361  0.00000  0.19279
       8     C     3.00406  3.00406  0.00000 -0.00812
       9     C     3.24528  3.24528  0.00000 -0.49055
      10     H     0.41961  0.41961  0.00000  0.16079
      11     H     0.41746  0.41746  0.00000  0.16508
      12     H     0.41768  0.41768  0.00000  0.16464
      13     H     0.40818  0.40818  0.00000  0.18364
      14     H     0.40564  0.40564  0.00000  0.18872

   Total alpha = 24.00000, Total beta = 24.00000, Total charge =  0.00000
