                              Psi4 1.0.54 Driver

  ==> Input File <==

--------------------------------------------------------------------------
set {
	reference rhf
	basis cc-pvtz
}

set_num_threads( 4 )
memory 2 gb

molecule MOL {
0 1

O	 3.416926	 0.442085	 -1.001591
C	 2.841259	 0.166180	 -0.000295
C	 1.542794	 -0.614730	 -0.000853
C	 3.372176	 0.580360	 1.353517
C	 0.288398	 0.247429	 0.000314
H	 1.557171	 -1.273139	 -0.866508
H	 1.557484	 -1.274998	 0.863344
C	 -0.993089	 -0.581367	 -0.000217
H	 0.305153	 0.900562	 -0.864701
H	 0.305567	 0.898805	 0.866656
C	 -2.258482	 0.271340	 0.000669
H	 -1.002280	 -1.233920	 -0.870484
H	 -1.002061	 -1.235367	 0.868958
C	 -3.544441	 -0.550271	 -0.000253
H	 -2.250545	 0.925250	 -0.867923
H	 -2.250598	 0.923423	 0.870642
C	 -4.804551	 0.308747	 0.000556
H	 -3.553737	 -1.201524	 -0.870151
H	 -3.553831	 -1.203282	 0.868313
H	 -4.842050	 0.949078	 -0.874436
H	 -5.698404	 -0.304480	 -0.000254
H	 -4.842277	 0.947103	 0.876982
H	 3.542313	 -0.293977	 1.972092
H	 4.295455	 1.125834	 1.233496
H	 2.645485	 1.201014	 1.866109

	symmetry c1
}
set optking {
	frozen_dihedral = ("
		1 2 3 6
	")
}

ee,wfn = optimize('scf', return_wfn=True)
oeprop( wfn, 'DIPOLE', 'QUADRUPOLE', 'MULLIKEN_CHARGES')
f=open( 'psi4out.xyz', 'w' )
f.write( "25  " )
f.write( str(ee) + "\n" )
f.write( MOL.save_string_xyz() )
f.close()
--------------------------------------------------------------------------

    Molecular point group: c1
  Charge       = 0
  Multiplicity = 1
  Basis Set: CC-PVTZ
  Basis Set:
  @DF-RHF Final Energy:  -387.27198912042013
    Total Energy =                       -387.2719891204205851
    Molecular point group: c1
  Basis Set: CC-PVTZ
  Basis Set:
  Basis Set: CC-PVTZ
  Basis Set:
  @DF-RHF Final Energy:  -387.27250312699812
    Total Energy =                       -387.2725031269978899
  Basis Set: CC-PVTZ
  Basis Set:
  Basis Set: CC-PVTZ
  Basis Set:
  @DF-RHF Final Energy:  -387.27033906631698
    Total Energy =                       -387.2703390663173195
  Basis Set: CC-PVTZ
  Basis Set:
  Basis Set: CC-PVTZ
  Basis Set:
  @DF-RHF Final Energy:  -387.27284475813343
    Total Energy =                       -387.2728447581336013
  Basis Set: CC-PVTZ
  Basis Set:
  @DF-RHF Final Energy:  -387.27294083264593
    Total Energy =                       -387.2729408326456451
  Basis Set: CC-PVTZ
  Basis Set:
  @DF-RHF Final Energy:  -387.27295466207954
    Total Energy =                       -387.2729546620792007
  Basis Set: CC-PVTZ
  Basis Set:
  Basis Set: CC-PVTZ
  Basis Set:
  @DF-RHF Final Energy:  -387.27296087621505
    Total Energy =                       -387.2729608762152793
  Basis Set: CC-PVTZ
  Basis Set:
  Basis Set: CC-PVTZ
  Basis Set:
  @DF-RHF Final Energy:  -387.27296218753639
    Total Energy =                       -387.2729621875364501
  Basis Set: CC-PVTZ
  Basis Set:
  Charge       = 0
  Multiplicity = 1
  Basis Set: CC-PVTZ
  Basis Set:

    Orbital Energies (a.u.)
    -----------------------

    Doubly Occupied:

       1A    -20.536681     2A    -11.319032     3A    -11.228842
       4A    -11.227505     5A    -11.226536     6A    -11.220506
       7A    -11.217163     8A    -11.216462     9A    -11.209428
      10A     -1.396663    11A     -1.100965    12A     -1.060969
      13A     -1.013643    14A     -0.971846    15A     -0.895368
      16A     -0.818914    17A     -0.796467    18A     -0.733802
      19A     -0.669479    20A     -0.649572    21A     -0.640270
      22A     -0.611361    23A     -0.607532    24A     -0.588672
      25A     -0.568880    26A     -0.558111    27A     -0.542721
      28A     -0.540903    29A     -0.509770    30A     -0.501929
      31A     -0.490964    32A     -0.478577    33A     -0.468527
      34A     -0.467899    35A     -0.455705    36A     -0.397948

  @DF-RHF Final Energy:  -387.27296255755994

   => Energetics <=

    Nuclear Repulsion Energy =            439.8782735252392513
    One-Electron Energy =               -1396.4232454477855754
    Two-Electron Energy =                 569.2720093649870705
    DFT Exchange-Correlation Energy =       0.0000000000000000
    Empirical Dispersion Energy =           0.0000000000000000
    PCM Polarization Energy =               0.0000000000000000
    EFP Energy =                            0.0000000000000000
    Total Energy =                       -387.2729625575592536
    Molecular point group: c1
  Basis Set: CC-PVTZ
  Basis Set:

  -Total Gradient:
     Atom            X                  Y                   Z
    ------   -----------------  -----------------  -----------------
       1        0.000164504144    -0.000247487728     0.000016051864
       2       -0.000255132706     0.000406588104    -0.000044456515
       3        0.000241317397    -0.000364040303     0.000187924500
       4        0.000003498369     0.000001902947     0.000008561583
       5       -0.000019511898    -0.000000724332     0.000017928744
       6       -0.000136287122     0.000198363963    -0.000154384825
       7       -0.000003376852     0.000005348633    -0.000004713110
       8        0.000017527840     0.000004425014     0.000004002443
       9        0.000002752847    -0.000007576260     0.000000035429
      10       -0.000007671032     0.000007886295     0.000002056913
      11       -0.000003832317     0.000004581588    -0.000009614818
      12        0.000001601928     0.000001561939    -0.000000703164
      13        0.000003472670    -0.000004118522    -0.000000704257
      14        0.000001880937     0.000002012031     0.000001622386
      15       -0.000002913047     0.000000336107    -0.000001914300
      16       -0.000002145228    -0.000000690835    -0.000003222434
      17       -0.000000154319     0.000000947606     0.000003953414
      18        0.000001564384     0.000003754421    -0.000000353291
      19        0.000000515801    -0.000002212189    -0.000000287954
      20        0.000000401185    -0.000001674452     0.000000398174
      21        0.000000663220     0.000000873483     0.000001210363
      22       -0.000000980349     0.000000458681    -0.000000319828
      23       -0.000014100470     0.000037028994    -0.000013103371
      24       -0.000031889370    -0.000028078450     0.000016768688
      25        0.000038293987    -0.000019466735    -0.000026736635

  **** Optimization is complete! (in 9 steps) ****
    Final optimized geometry and variables:
    Molecular point group: c1

    Geometry (in Angstrom), charge = 0, multiplicity = 1:

    O            3.357263861929     0.389959227454    -1.067804043996
    C            2.845842269424     0.103287812097    -0.034567277099
    C            1.574510788897    -0.720115811385     0.009116252070
    C            3.429258595208     0.548796057616     1.285828784624
    C            0.329171440653     0.174849826702    -0.025883031693
    H            1.577313645857    -1.371602011370    -0.854945711894
    H            1.559279838771    -1.334589858299     0.903498927880
    C           -0.969839116938    -0.625572529615    -0.005281812018
    H            0.366751455273     0.787018555041    -0.920684316279
    H            0.341877905832     0.858064614565     0.818947986612
    C           -2.216974005496     0.252368254519    -0.052996399361
    H           -0.979442658474    -1.310711841800    -0.848856813340
    H           -0.998043103875    -1.242640592617     0.889515394455
    C           -3.518661101012    -0.544031521640    -0.036209121364
    H           -2.186735940893     0.870180088354    -0.947099796697
    H           -2.206654570039     0.938454583464     0.790764159422
    C           -4.761413363831     0.338520996578    -0.083545540842
    H           -3.530935528937    -1.228415883799    -0.879983541099
    H           -3.549867158990    -1.161998362534     0.857070659251
    H           -4.777139390564     0.944149714167    -0.983508474934
    H           -5.666771548452    -0.257256625605    -0.070488481196
    H           -4.796289561823     1.011542620930     0.766740650743
    H            3.829516814097    -0.316189434497     1.805086527399
    H            4.220160924376     1.263751842254     1.119226738969
    H            2.665661976038     0.980102390409     1.922430845013

  Mulliken Charges: (a.u.)
   Center  Symbol    Alpha    Beta     Spin     Total
       1     O     4.17776  4.17776  0.00000 -0.35553
       2     C     2.85845  2.85845  0.00000  0.28311
       3     C     3.09676  3.09676  0.00000 -0.19352
       4     C     3.15544  3.15544  0.00000 -0.31088
       5     C     3.10373  3.10373  0.00000 -0.20746
       6     H     0.43884  0.43884  0.00000  0.12232
       7     H     0.44945  0.44945  0.00000  0.10111
       8     C     3.08996  3.08996  0.00000 -0.17991
       9     H     0.44136  0.44136  0.00000  0.11728
      10     H     0.45177  0.45177  0.00000  0.09646
      11     C     3.08656  3.08656  0.00000 -0.17313
      12     H     0.45122  0.45122  0.00000  0.09756
      13     H     0.45414  0.45414  0.00000  0.09171
      14     C     3.08482  3.08482  0.00000 -0.16963
      15     H     0.45287  0.45287  0.00000  0.09425
      16     H     0.45516  0.45516  0.00000  0.08969
      17     C     3.15034  3.15034  0.00000 -0.30067
      18     H     0.45377  0.45377  0.00000  0.09246
      19     H     0.45475  0.45475  0.00000  0.09051
      20     H     0.45441  0.45441  0.00000  0.09118
      21     H     0.44796  0.44796  0.00000  0.10408
      22     H     0.45521  0.45521  0.00000  0.08958
      23     H     0.44839  0.44839  0.00000  0.10321
      24     H     0.43587  0.43587  0.00000  0.12826
      25     H     0.45101  0.45101  0.00000  0.09798

   Total alpha = 36.00000, Total beta = 36.00000, Total charge = -0.00000

*** Psi4 exiting successfully. Buy a developer a beer!
