                              Psi4 1.0.54 Driver

  ==> Input File <==

--------------------------------------------------------------------------
set {
	reference rhf
	basis cc-pvtz
}

set_num_threads( 4 )
memory 2 gb

molecule MOL {
0 1

H	 0.281150	 -2.363513	 -0.694345
C	 -0.548990	 -1.674944	 -0.862238
N	 -0.537714	 -0.645117	 0.000000
O	 -1.349618	 -1.856602	 -1.724046
C	 -1.522613	 0.412524	 0.000000
H	 0.191526	 -0.619797	 0.668994
H	 -2.150256	 0.356137	 -0.880771
H	 -1.005621	 1.357208	 0.000000
H	 -2.150256	 0.356137	 0.880771

	symmetry c1
}
set optking {
	frozen_dihedral = ("
		6 3 5 7
	")
}

ee,wfn = optimize('scf', return_wfn=True)
oeprop( wfn, 'DIPOLE', 'QUADRUPOLE', 'MULLIKEN_CHARGES')
f=open( 'psi4out.xyz', 'w' )
f.write( "9  " )
f.write( str(ee) + "\n" )
f.write( MOL.save_string_xyz() )
f.close()
--------------------------------------------------------------------------

    Molecular point group: c1
  Charge       = 0
  Multiplicity = 1
  Basis Set: CC-PVTZ
  Basis Set:
  @DF-RHF Final Energy:  -208.04316643087202
    Total Energy =                       -208.0431664308719633
    Molecular point group: c1
  Basis Set: CC-PVTZ
  Basis Set:
  Basis Set: CC-PVTZ
  Basis Set:
  @DF-RHF Final Energy:  -208.04350926625222
    Total Energy =                       -208.0435092662522436
  Basis Set: CC-PVTZ
  Basis Set:
  Basis Set: CC-PVTZ
  Basis Set:
  @DF-RHF Final Energy:  -208.04354321614960
    Total Energy =                       -208.0435432161495442
  Basis Set: CC-PVTZ
  Basis Set:
  Basis Set: CC-PVTZ
  Basis Set:
  @DF-RHF Final Energy:  -208.04356279196602
    Total Energy =                       -208.0435627919661385
  Basis Set: CC-PVTZ
  Basis Set:
  Basis Set: CC-PVTZ
  Basis Set:
  @DF-RHF Final Energy:  -208.04358086519323
    Total Energy =                       -208.0435808651932064
  Basis Set: CC-PVTZ
  Basis Set:
  Basis Set: CC-PVTZ
  Basis Set:
  @DF-RHF Final Energy:  -208.04358425631176
    Total Energy =                       -208.0435842563116751
  Basis Set: CC-PVTZ
  Basis Set:
  Basis Set: CC-PVTZ
  Basis Set:
  @DF-RHF Final Energy:  -208.04359061216945
    Total Energy =                       -208.0435906121694813
  Basis Set: CC-PVTZ
  Basis Set:
  Charge       = 0
  Multiplicity = 1
  Basis Set: CC-PVTZ
  Basis Set:

    Orbital Energies (a.u.)
    -----------------------

    Doubly Occupied:

       1A    -20.516149     2A    -15.585044     3A    -11.337511
       4A    -11.259259     5A     -1.393679     6A     -1.239883
       7A     -0.970388     8A     -0.808272     9A     -0.748810
      10A     -0.646374    11A     -0.629341    12A     -0.596850
      13A     -0.555396    14A     -0.542058    15A     -0.428272
      16A     -0.395976

  @DF-RHF Final Energy:  -208.04359085150131

   => Energetics <=

    Nuclear Repulsion Energy =            122.7173819257270964
    One-Electron Energy =                -526.2154230813154072
    Two-Electron Energy =                 195.4544503040870609
    DFT Exchange-Correlation Energy =       0.0000000000000000
    Empirical Dispersion Energy =           0.0000000000000000
    PCM Polarization Energy =               0.0000000000000000
    EFP Energy =                            0.0000000000000000
    Total Energy =                       -208.0435908515012784
    Molecular point group: c1
  Basis Set: CC-PVTZ
  Basis Set:

  -Total Gradient:
     Atom            X                  Y                   Z
    ------   -----------------  -----------------  -----------------
       1       -0.000004884950     0.000004027567    -0.000001303047
       2        0.000015948587    -0.000018835480     0.000003803496
       3        0.000081126026     0.000108669243    -0.000114988642
       4        0.000002894872     0.000019132767     0.000015042163
       5        0.000076308000     0.000065823984    -0.000050670322
       6       -0.000092920077    -0.000091376022     0.000081686947
       7       -0.000078667622    -0.000084732006     0.000062108531
       8       -0.000001990081    -0.000005979529     0.000004706587
       9        0.000002185245     0.000003269474    -0.000000385710

  **** Optimization is complete! (in 8 steps) ****
    Final optimized geometry and variables:
    Molecular point group: c1

    Geometry (in Angstrom), charge = 0, multiplicity = 1:

    H            1.269839825909    -1.443945541490    -0.057202210763
    C            0.440426595436    -0.752248194343    -0.216614003975
    N            0.490236257323     0.303774452039     0.612401126805
    O           -0.388153830342    -0.945960849807    -1.048668827303
    C           -0.509786112637     1.346930255023     0.636185007611
    H            1.206887208138     0.312465430699     1.295415051065
    H           -1.093332459291     1.282382751338    -0.266965474675
    H           -0.034639019667     2.318044373511     0.681034368678
    H           -1.174134975859     1.242612082270     1.486177733714

  Mulliken Charges: (a.u.)
   Center  Symbol    Alpha    Beta     Spin     Total
       1     H     0.46293  0.46293  0.00000  0.07415
       2     C     2.88099  2.88099  0.00000  0.23801
       3     N     3.60784  3.60784  0.00000 -0.21567
       4     O     4.21487  4.21487  0.00000 -0.42975
       5     C     3.08070  3.08070  0.00000 -0.16140
       6     H     0.40973  0.40973  0.00000  0.18053
       7     H     0.43357  0.43357  0.00000  0.13285
       8     H     0.45402  0.45402  0.00000  0.09196
       9     H     0.45535  0.45535  0.00000  0.08930

   Total alpha = 16.00000, Total beta = 16.00000, Total charge = -0.00000

*** Psi4 exiting successfully. Buy a developer a beer!
