  ==> Input File <==

--------------------------------------------------------------------------
set {
	reference rhf
	basis cc-pvtz
}

set_num_threads( 4 )
memory 2 gb

molecule MOL {
0 1

H	 -2.498963	 -0.741158	 -0.729149
O	 -2.346257	 -0.289210	 0.080372
C	 -1.183935	 0.486039	 -0.009831
C	 0.062853	 -0.375310	 0.027457
H	 -1.178881	 1.094526	 -0.908634
H	 -1.184406	 1.155156	 0.838676
O	 -0.321612	 -1.690580	 0.259192
H	 0.731903	 -0.027668	 0.816388
H	 0.596160	 -0.283892	 -0.916366
C	 0.725559	 -2.603710	 0.288306
H	 1.434225	 -2.370613	 1.079971
H	 0.306717	 -3.581999	 0.473261
H	 1.261081	 -2.624353	 -0.657903

	symmetry c1
}
set optking {
	frozen_dihedral = ("
		8 4 3 5
	")
}

ee = optimize('scf')
oeprop('DIPOLE', 'QUADRUPOLE', 'MULLIKEN_CHARGES')
f=open( 'psi4out.xyz', 'w' )
f.write( "13  " )
f.write( str(ee) + "\n" )
f.write( MOL.save_string_xyz() )
f.close()
--------------------------------------------------------------------------

    Molecular point group: c1
  Charge       = 0
  Multiplicity = 1
  Basis Set: CC-PVTZ
  Basis Set:
  @DF-RHF Final Energy:  -268.04864767307282
    Total Energy =                       -268.0486476730728782
    Molecular point group: c1
  Basis Set: CC-PVTZ
  Basis Set:
  Basis Set: CC-PVTZ
  Basis Set:
  @DF-RHF Final Energy:  -268.05017238651351
    Total Energy =                       -268.0501723865136228
  Basis Set: CC-PVTZ
  Basis Set:
  Basis Set: CC-PVTZ
  Basis Set:
  @DF-RHF Final Energy:  -268.05234006918943
    Total Energy =                       -268.0523400691894267
  Basis Set: CC-PVTZ
  Basis Set:
  Basis Set: CC-PVTZ
  Basis Set:
  @DF-RHF Final Energy:  -268.05345369175870
    Total Energy =                       -268.0534536917587616
  Basis Set: CC-PVTZ
  Basis Set:
  @DF-RHF Final Energy:  -268.05434298107321
    Total Energy =                       -268.0543429810732050
  @DF-RHF Final Energy:  -268.05527352700187
    Total Energy =                       -268.0552735270018161
  Basis Set: CC-PVTZ
  Basis Set:
  @DF-RHF Final Energy:  -268.05574278344955
    Total Energy =                       -268.0557427834494320
  Basis Set: CC-PVTZ
  Basis Set:
  Basis Set: CC-PVTZ
  Basis Set:
  @DF-RHF Final Energy:  -268.05582090485791
    Total Energy =                       -268.0558209048579101
  Basis Set: CC-PVTZ
  Basis Set:
  Basis Set: CC-PVTZ
  Basis Set:
  @DF-RHF Final Energy:  -268.05582459438938
    Total Energy =                       -268.0558245943893780
  Basis Set: CC-PVTZ
  Basis Set:
  Charge       = 0
  Multiplicity = 1
  Basis Set: CC-PVTZ
  Basis Set:

    Orbital Energies (a.u.)
    -----------------------

    Doubly Occupied:

       1A    -20.566258     2A    -20.533016     3A    -11.278154
       4A    -11.275304     5A    -11.267103     6A     -1.403523
       7A     -1.350960     8A     -1.016517     9A     -0.927292
      10A     -0.836799    11A     -0.702275    12A     -0.690525
      13A     -0.669004    14A     -0.630154    15A     -0.601144
      16A     -0.568593    17A     -0.550265    18A     -0.497324
      19A     -0.476654    20A     -0.449381    21A     -0.416399

  @DF-RHF Final Energy:  -268.05582496505315

   => Energetics <=

    Nuclear Repulsion Energy =            195.3058986393051839
    One-Electron Energy =                -753.3101634987226589
    Two-Electron Energy =                 289.9484398943643555
    DFT Exchange-Correlation Energy =       0.0000000000000000
    Empirical Dispersion Energy =           0.0000000000000000
    PCM Polarization Energy =               0.0000000000000000
    EFP Energy =                            0.0000000000000000
    Total Energy =                       -268.0558249650531479
    Molecular point group: c1
  Basis Set: CC-PVTZ
  Basis Set:

  -Total Gradient:
     Atom            X                  Y                   Z
    ------   -----------------  -----------------  -----------------
       1       -0.000002120425     0.000035100824    -0.000012809559
       2       -0.000015624777    -0.000039906619     0.000023171272
       3        0.002331098283     0.003610214344     0.004571813381
       4        0.002802655597     0.003486306305    -0.004432189060
       5       -0.002417818936    -0.003588545960    -0.003142267947
       6       -0.000001853608    -0.000014008221    -0.000013742259
       7       -0.000011988225     0.000057343221     0.000003904872
       8       -0.002721391042    -0.003534876410     0.002987581681
       9        0.000007926127     0.000003467085     0.000003651650
      10        0.000024777234    -0.000013275905     0.000009397682
      11        0.000004766549    -0.000006245694     0.000000165836
      12        0.000002117881    -0.000000404413     0.000002831061
      13       -0.000002544661     0.000004831441    -0.000001508612

  **** Optimization is complete! (in 10 steps) ****
    Final optimized geometry and variables:
    Molecular point group: c1

    Geometry (in Angstrom), charge = 0, multiplicity = 1:

    H           -1.612023859967    -0.175223866033     0.004202378404
    O           -1.727669798399     0.710080801641    -0.292437122779
    C           -0.543741958332     1.418083381456    -0.083428909035
    C            0.704482379003     0.510715381116    -0.013875966171
    H           -0.445849239649     2.090172352786    -0.925878626549
    H           -0.618656153674     2.007506906641     0.824105849719
    O            0.299314233537    -0.817267040945     0.138889534966
    H            1.304652147636     0.782339889819     0.850691471191
    H            1.312001488067     0.610216651941    -0.908460315440
    C            1.341583897139    -1.731864441075     0.245719857752
    H            1.963471811873    -1.523779080696     1.112719116990
    H            0.908436632998    -2.715215044668     0.353989211980
    H            1.969088239651    -1.719757636889    -0.641609212222

  Mulliken Charges: (a.u.)
   Center  Symbol    Alpha    Beta     Spin     Total
       1     H     0.38183  0.38183  0.00000  0.23634
       2     O     4.20812  4.20812  0.00000 -0.41624
       3     C     2.95713  2.95713  0.00000  0.08575
       4     C     2.97296  2.97296  0.00000  0.05407
       5     H     0.46794  0.46794  0.00000  0.06412
       6     H     0.47500  0.47500  0.00000  0.04999
       7     O     4.18124  4.18124  0.00000 -0.36249
       8     H     0.47164  0.47164  0.00000  0.05672
       9     H     0.47045  0.47045  0.00000  0.05911
      10     C     3.03074  3.03074  0.00000 -0.06148
      11     H     0.46890  0.46890  0.00000  0.06220
      12     H     0.44579  0.44579  0.00000  0.10842
      13     H     0.46826  0.46826  0.00000  0.06349

   Total alpha = 21.00000, Total beta = 21.00000, Total charge = -0.00000
