                              Psi4 1.0.54 Driver

  ==> Input File <==

--------------------------------------------------------------------------
set {
	reference rhf
	basis cc-pvtz
}

set_num_threads( 4 )
memory 2 gb

molecule MOL {
0 1

O	 -2.374409	 1.338660	 -0.336961
C	 -2.104891	 0.204655	 -0.107126
C	 -0.881910	 -0.448129	 -0.720509
C	 -2.949910	 -0.638219	 0.818225
C	 0.280433	 -0.488759	 0.279566
H	 -0.596794	 0.137611	 -1.585222
H	 -1.118483	 -1.453568	 -1.052157
C	 1.533969	 -1.128044	 -0.314124
H	 0.487152	 0.524155	 0.601281
H	 -0.017601	 -1.044172	 1.165564
C	 2.708397	 -1.247931	 0.658631
H	 1.846610	 -0.557794	 -1.185358
H	 1.281606	 -2.121253	 -0.675308
C	 3.303510	 0.084721	 1.106690
H	 3.487335	 -1.834330	 0.181451
H	 2.395024	 -1.815362	 1.531072
H	 3.620329	 0.675800	 0.253554
H	 4.170756	 -0.075607	 1.736730
H	 2.595226	 0.676513	 1.673608
H	 -3.440322	 -1.417144	 0.243099
H	 -3.694377	 -0.025850	 1.303346
H	 -2.331085	 -1.129829	 1.560495

	symmetry c1
}
set optking {
	frozen_dihedral = ("
		6 3 2 1
	")
}

ee,wfn = optimize('scf', return_wfn=True)
oeprop( wfn, 'DIPOLE', 'QUADRUPOLE', 'MULLIKEN_CHARGES')
f=open( 'psi4out.xyz', 'w' )
f.write( "22  " )
f.write( str(ee) + "\n" )
f.write( MOL.save_string_xyz() )
f.close()
--------------------------------------------------------------------------

    Molecular point group: c1
  Charge       = 0
  Multiplicity = 1
  Basis Set: CC-PVTZ
  Basis Set:
  @DF-RHF Final Energy:  -348.22311976715247
    Total Energy =                       -348.2231197671524114
    Molecular point group: c1
  Basis Set: CC-PVTZ
  Basis Set:
  Basis Set: CC-PVTZ
  Basis Set:
  @DF-RHF Final Energy:  -348.22182889889626
    Total Energy =                       -348.2218288988964900
  Basis Set: CC-PVTZ
  Basis Set:
  Basis Set: CC-PVTZ
  Basis Set:
  @DF-RHF Final Energy:  -348.22313524505790
    Total Energy =                       -348.2231352450579607
  Basis Set: CC-PVTZ
  Basis Set:
  Basis Set: CC-PVTZ
  Basis Set:
  @DF-RHF Final Energy:  -348.22323577283009
    Total Energy =                       -348.2232357728304351
  Basis Set: CC-PVTZ
  Basis Set:
  Basis Set: CC-PVTZ
  Basis Set:
  @DF-RHF Final Energy:  -348.22318261043449
    Total Energy =                       -348.2231826104343213
  Basis Set: CC-PVTZ
  Basis Set:
  Basis Set: CC-PVTZ
  Basis Set:
  @DF-RHF Final Energy:  -348.22325097400665
    Total Energy =                       -348.2232509740067599
  Basis Set: CC-PVTZ
  Basis Set:
  Charge       = 0
  Multiplicity = 1
  Basis Set: CC-PVTZ
  Basis Set:

    Orbital Energies (a.u.)
    -----------------------

    Doubly Occupied:

       1A    -20.537087     2A    -11.319040     3A    -11.229369
       4A    -11.227756     5A    -11.226264     6A    -11.221690
       7A    -11.220089     8A    -11.210704     9A     -1.396777
      10A     -1.098739    11A     -1.046381    12A     -0.999122
      13A     -0.939912    14A     -0.860607    15A     -0.788393
      16A     -0.734289    17A     -0.664689    18A     -0.646789
      19A     -0.630702    20A     -0.621312    21A     -0.599597
      22A     -0.586215    23A     -0.562665    24A     -0.538006
      25A     -0.536567    26A     -0.524607    27A     -0.498056
      28A     -0.492478    29A     -0.472716    30A     -0.466625
      31A     -0.463999    32A     -0.398645

  @DF-RHF Final Energy:  -348.22325182972770

   => Energetics <=

    Nuclear Repulsion Energy =            373.4755938439708416
    One-Electron Energy =               -1211.8779069129091113
    Two-Electron Energy =                 490.1790612392108528
    DFT Exchange-Correlation Energy =       0.0000000000000000
    Empirical Dispersion Energy =           0.0000000000000000
    PCM Polarization Energy =               0.0000000000000000
    EFP Energy =                            0.0000000000000000
    Total Energy =                       -348.2232518297274169
    Molecular point group: c1
  Basis Set: CC-PVTZ
  Basis Set:

  -Total Gradient:
     Atom            X                  Y                   Z
    ------   -----------------  -----------------  -----------------
       1       -0.000513459724    -0.000307235321    -0.000701338522
       2        0.000840323700     0.000549209881     0.001108879741
       3       -0.000863384918    -0.000808747369    -0.000923218399
       4       -0.000045298729     0.000005340349    -0.000047823471
       5        0.000005428310    -0.000004617294     0.000009074395
       6        0.000522167320     0.000560364387     0.000536009756
       7        0.000011783388     0.000007403706     0.000006155334
       8        0.000018918450    -0.000022604523     0.000023078913
       9        0.000028176818     0.000001214372     0.000019104324
      10        0.000015309026     0.000015688454    -0.000037992841
      11        0.000006093354    -0.000008770594    -0.000060987945
      12       -0.000009625016    -0.000022844144     0.000015332992
      13       -0.000015921568     0.000014446740     0.000018215417
      14       -0.000014630179     0.000007125069     0.000016891918
      15        0.000003688382     0.000023859578     0.000007795334
      16        0.000021463680     0.000008316370    -0.000016612462
      17       -0.000007189168    -0.000027855567     0.000011388447
      18       -0.000013793318    -0.000003458887     0.000006602161
      19       -0.000031185326     0.000003583275    -0.000020145835
      20        0.000010511630    -0.000002002179     0.000014887101
      21        0.000018019199    -0.000004404347    -0.000005268743
      22        0.000012604696     0.000015988043     0.000019972385

  **** Optimization is complete! (in 7 steps) ****
    Final optimized geometry and variables:
    Molecular point group: c1

    Geometry (in Angstrom), charge = 0, multiplicity = 1:

    O           -2.370324120739     1.537795902495    -0.551780467614
    C           -2.066741287173     0.423282603831    -0.273693373674
    C           -0.829608250016    -0.223588896066    -0.862812596504
    C           -2.906873792526    -0.407255223571     0.669298359010
    C            0.353395365574    -0.205299040389     0.114269437011
    H           -0.569182525816     0.332802443134    -1.753154312167
    H           -1.053043865222    -1.247385672680    -1.146893102376
    C            1.615486565390    -0.808357517815    -0.499712011861
    H            0.535526723505     0.820020061850     0.414325810702
    H            0.100392362717    -0.755265360623     1.016036656628
    C            2.814554473870    -0.876073214418     0.447382282682
    H            1.888933445055    -0.239302631944    -1.384527837356
    H            1.388622003894    -1.813950075412    -0.842981397013
    C            3.369190660731     0.481509202649     0.871818155745
    H            3.604103085363    -1.437011111782    -0.042637997508
    H            2.542198249224    -1.447349655040     1.330977911704
    H            3.646453752779     1.076012294679     0.007427529548
    H            4.254348377445     0.358858207703     1.485090688286
    H            2.651380903382     1.052090854783     1.448528258126
    H           -3.385329268107    -1.203919272021     0.108600281567
    H           -3.663191860607     0.210676017721     1.128212439684
    H           -2.296395277274    -0.873372538404     1.433017580669

  Mulliken Charges: (a.u.)
   Center  Symbol    Alpha    Beta     Spin     Total
       1     O     4.17561  4.17561  0.00000 -0.35122
       2     C     2.85905  2.85905  0.00000  0.28189
       3     C     3.09388  3.09388  0.00000 -0.18777
       4     C     3.15605  3.15605  0.00000 -0.31210
       5     C     3.10919  3.10919  0.00000 -0.21839
       6     H     0.43865  0.43865  0.00000  0.12269
       7     H     0.44892  0.44892  0.00000  0.10215
       8     C     3.09611  3.09611  0.00000 -0.19222
       9     H     0.44082  0.44082  0.00000  0.11835
      10     H     0.45086  0.45086  0.00000  0.09827
      11     C     3.09068  3.09068  0.00000 -0.18136
      12     H     0.44991  0.44991  0.00000  0.10017
      13     H     0.44864  0.44864  0.00000  0.10273
      14     C     3.15181  3.15181  0.00000 -0.30362
      15     H     0.44730  0.44730  0.00000  0.10539
      16     H     0.45470  0.45470  0.00000  0.09060
      17     H     0.45345  0.45345  0.00000  0.09310
      18     H     0.44591  0.44591  0.00000  0.10817
      19     H     0.45305  0.45305  0.00000  0.09389
      20     H     0.44918  0.44918  0.00000  0.10165
      21     H     0.43535  0.43535  0.00000  0.12930
      22     H     0.45085  0.45085  0.00000  0.09831

   Total alpha = 32.00000, Total beta = 32.00000, Total charge =  0.00000

*** Psi4 exiting successfully. Buy a developer a beer!
