  ==> Input File <==

--------------------------------------------------------------------------
set {
	reference rhf
	basis 6-31G*
}

set_num_threads( 4 )
memory 2 gb

molecule MOL {
0 1

H	 -2.172150	 0.880146	 0.502514
C	 -2.018062	 -0.000025	 -0.114509
O	 -0.774054	 0.001095	 -0.743181
H	 -2.760490	 0.003458	 -0.901350
H	 -2.173624	 -0.884374	 0.496163
C	 0.287274	 0.763492	 -0.196495
C	 1.450049	 0.499896	 -1.150687
C	 -0.052870	 2.257284	 -0.187605
C	 0.647149	 0.279784	 1.211920
H	 1.188673	 0.816664	 -2.154067
H	 1.675552	 -0.560121	 -1.180453
H	 2.340863	 1.035453	 -0.838774
H	 -0.375501	 2.574719	 -1.173594
H	 0.819524	 2.839902	 0.090036
H	 -0.839163	 2.493732	 0.521190
H	 0.816685	 -0.791804	 1.209057
H	 1.553002	 0.767609	 1.556870
H	 -0.133570	 0.499816	 1.932124

	symmetry c1
}
set optking {
	frozen_dihedral = ("
		6 3 2 5
	")
}

ee = optimize('scf')
oeprop('DIPOLE', 'QUADRUPOLE', 'MULLIKEN_CHARGES')
f=open( 'psi4out.xyz', 'w' )
f.write( "18  " )
f.write( str(ee) + "\n" )
f.write( MOL.save_string_xyz() )
f.close()
--------------------------------------------------------------------------

    Molecular point group: c1
  Charge       = 0
  Multiplicity = 1
  Basis Set: 6-31G*
  Basis Set:
  @DF-RHF Final Energy:  -271.17345651606797
    Total Energy =                       -271.1734565160677448
    Molecular point group: c1
  Basis Set: 6-31G*
  Basis Set:
  Basis Set: 6-31G*
  Basis Set:
  @DF-RHF Final Energy:  -271.17269761489172
    Total Energy =                       -271.1726976148916037
  Basis Set: 6-31G*
  Basis Set:
  Basis Set: 6-31G*
  Basis Set:
  @DF-RHF Final Energy:  -271.17383961123835
    Total Energy =                       -271.1738396112384635
  Basis Set: 6-31G*
  Basis Set:
  Basis Set: 6-31G*
  Basis Set:
  @DF-RHF Final Energy:  -271.17391835581401
    Total Energy =                       -271.1739183558140098
  Basis Set: 6-31G*
  Basis Set:
  Basis Set: 6-31G*
  Basis Set:
  @DF-RHF Final Energy:  -271.17393727600347
    Total Energy =                       -271.1739372760033007
  Basis Set: 6-31G*
  Basis Set:
  Basis Set: 6-31G*
  Basis Set:
  @DF-RHF Final Energy:  -271.17394077202488
    Total Energy =                       -271.1739407720249346
  Basis Set: 6-31G*
  Basis Set:
  Basis Set: 6-31G*
  Basis Set:
  @DF-RHF Final Energy:  -271.17394182231385
    Total Energy =                       -271.1739418223137932
  Basis Set: 6-31G*
  Basis Set:
  Charge       = 0
  Multiplicity = 1
  Basis Set: 6-31G*
  Basis Set:

    Orbital Energies (a.u.)
    -----------------------

    Doubly Occupied:

       1A    -20.545044     2A    -11.281754     3A    -11.260926
       4A    -11.209239     5A    -11.208111     6A    -11.203245
       7A     -1.368423     8A     -1.072616     9A     -0.945804
      10A     -0.939790    11A     -0.912762    12A     -0.752535
      13A     -0.655079    14A     -0.643671    15A     -0.638356
      16A     -0.590329    17A     -0.571532    18A     -0.552336
      19A     -0.537682    20A     -0.523890    21A     -0.514923
      22A     -0.489983    23A     -0.486778    24A     -0.438158
      25A     -0.401604

  @DF-RHF Final Energy:  -271.17394191443265

   => Energetics <=

    Nuclear Repulsion Energy =            272.2129899312143948
    One-Electron Energy =                -907.2847240133661444
    Two-Electron Energy =                 363.8977921677192739
    DFT Exchange-Correlation Energy =       0.0000000000000000
    Empirical Dispersion Energy =           0.0000000000000000
    PCM Polarization Energy =               0.0000000000000000
    EFP Energy =                            0.0000000000000000
    Total Energy =                       -271.1739419144325325
    Molecular point group: c1
  Basis Set: 6-31G*
  Basis Set:

  -Total Gradient:
     Atom            X                  Y                   Z
    ------   -----------------  -----------------  -----------------
       1        0.000005781450     0.000006006363     0.000002331293
       2        0.000830691185     0.001710495561     0.001649828268
       3        0.000507891918    -0.002246786413     0.000719841209
       4        0.000020052637     0.000005811063    -0.000007803676
       5       -0.000860659926    -0.000830874684    -0.001592259831
       6       -0.000531393027     0.001349906862    -0.000783912637
       7       -0.000011761956     0.000005705250     0.000001734552
       8        0.000023545285     0.000002873359    -0.000005847141
       9        0.000001596217     0.000002479488     0.000020958736
      10        0.000001778629    -0.000008402471    -0.000006194860
      11       -0.000001481479     0.000000174962     0.000011666707
      12       -0.000004400182     0.000006701348    -0.000004574933
      13       -0.000002313237     0.000005511775    -0.000001360040
      14        0.000003681532     0.000004160837    -0.000002151565
      15        0.000009503875    -0.000008542418    -0.000002194945
      16        0.000017890713     0.000000226743    -0.000011349373
      17       -0.000010256773     0.000005918957     0.000006665318
      18       -0.000000146858    -0.000011366580     0.000004622918

  **** Optimization is complete! (in 8 steps) ****
    Final optimized geometry and variables:
    Molecular point group: c1

    Geometry (in Angstrom), charge = 0, multiplicity = 1:

    H           -2.062036044676     0.158256092662     0.804677717656
    C           -1.910852818210    -0.659194776155     0.110317833984
    O           -0.689897715113    -0.592296195649    -0.564708886090
    H           -2.700091154147    -0.620623365124    -0.631044482946
    H           -2.003049088028    -1.597889073671     0.649201775269
    C            0.385504423367     0.142343680158    -0.008663291419
    C            1.551702659567    -0.145252197595    -0.951313240747
    C            0.075397995943     1.642695551911    -0.009200530222
    C            0.718631343630    -0.352115866742     1.402323098485
    H            1.303936841498     0.170084481922    -1.958530916603
    H            1.761308232461    -1.208652091657    -0.973377416164
    H            2.447848090911     0.378757284769    -0.634736948063
    H           -0.200239313800     1.964806776124    -1.007505228452
    H            0.945470874955     2.209858332050     0.305853204668
    H           -0.736517609668     1.894627405353     0.664366869418
    H            0.902775159033    -1.421247802222     1.391215641837
    H            1.607879447850     0.142984810653     1.778849845732
    H           -0.086275082371    -0.153953133395     2.102438562189

  Mulliken Charges: (a.u.)
   Center  Symbol    Alpha    Beta     Spin     Total
       1     H     0.42993  0.42993  0.00000  0.14015
       2     C     3.07752  3.07752  0.00000 -0.15505
       3     O     4.32096  4.32096  0.00000 -0.64191
       4     H     0.41645  0.41645  0.00000  0.16709
       5     H     0.42495  0.42495  0.00000  0.15010
       6     C     2.84420  2.84420  0.00000  0.31160
       7     C     3.23306  3.23306  0.00000 -0.46612
       8     C     3.24382  3.24382  0.00000 -0.48765
       9     C     3.24681  3.24681  0.00000 -0.49362
      10     H     0.41380  0.41380  0.00000  0.17240
      11     H     0.41446  0.41446  0.00000  0.17107
      12     H     0.42508  0.42508  0.00000  0.14985
      13     H     0.41334  0.41334  0.00000  0.17332
      14     H     0.42088  0.42088  0.00000  0.15825
      15     H     0.42098  0.42098  0.00000  0.15803
      16     H     0.41369  0.41369  0.00000  0.17262
      17     H     0.41944  0.41944  0.00000  0.16112
      18     H     0.42062  0.42062  0.00000  0.15876

   Total alpha = 25.00000, Total beta = 25.00000, Total charge =  0.00000
