                              Psi4 1.0.54 Driver

  ==> Input File <==

--------------------------------------------------------------------------
set {
	reference rhf
	basis cc-pvtz
}

set_num_threads( 4 )
memory 2 gb

molecule MOL {
0 1

H	 0.057225	 -3.555107	 0.999191
O	 0.336772	 -2.744810	 0.600432
C	 -0.683447	 -1.891940	 0.620112
C	 -0.318151	 -0.570512	 0.000144
O	 -1.734536	 -2.178508	 1.079523
C	 -1.454884	 0.441630	 -0.000560
H	 0.545575	 -0.192580	 0.537764
H	 0.028086	 -0.774816	 -1.007963
C	 -2.822577	 -0.232186	 0.000063
H	 -1.359760	 1.084704	 -0.867077
H	 -1.359641	 1.085996	 0.864983
H	 -2.954352	 -0.858985	 -0.875745
H	 -3.615886	 0.505352	 0.000019
H	 -2.953878	 -0.858359	 0.876394

	symmetry c1
}
set optking {
	frozen_dihedral = ("
		7 4 6 10
	")
}

ee,wfn = optimize('scf', return_wfn=True)
oeprop( wfn, 'DIPOLE', 'QUADRUPOLE', 'MULLIKEN_CHARGES')
f=open( 'psi4out.xyz', 'w' )
f.write( "14  " )
f.write( str(ee) + "\n" )
f.write( MOL.save_string_xyz() )
f.close()
--------------------------------------------------------------------------

    Molecular point group: c1
  Charge       = 0
  Multiplicity = 1
  Basis Set: CC-PVTZ
  Basis Set:
  @DF-RHF Final Energy:  -305.97379800031928
    Total Energy =                       -305.9737980003192774
    Molecular point group: c1
  Basis Set: CC-PVTZ
  Basis Set:
  Basis Set: CC-PVTZ
  Basis Set:
  @DF-RHF Final Energy:  -305.98769649087842
    Total Energy =                       -305.9876964908787045
  Basis Set: CC-PVTZ
  Basis Set:
  Basis Set: CC-PVTZ
  Basis Set:
  @DF-RHF Final Energy:  -305.99102311757684
    Total Energy =                       -305.9910231175766739
  Basis Set: CC-PVTZ
  Basis Set:
  Basis Set: CC-PVTZ
  Basis Set:
  @DF-RHF Final Energy:  -305.99125167630962
    Total Energy =                       -305.9912516763099575
  Basis Set: CC-PVTZ
  Basis Set:
  @DF-RHF Final Energy:  -305.99180513374785
    Total Energy =                       -305.9918051337479028
  @DF-RHF Final Energy:  -305.99206573716316
    Total Energy =                       -305.9920657371633297
  @DF-RHF Final Energy:  -305.99221280757706
    Total Energy =                       -305.9922128075772889
  @DF-RHF Final Energy:  -305.99253462043123
    Total Energy =                       -305.9925346204314565
  @DF-RHF Final Energy:  -305.99284479575192
    Total Energy =                       -305.9928447957520348
  @DF-RHF Final Energy:  -305.99315354373050
    Total Energy =                       -305.9931535437303864
  @DF-RHF Final Energy:  -305.99360715451144
    Total Energy =                       -305.9936071545115510
  @DF-RHF Final Energy:  -305.99297227295091
    Total Energy =                       -305.9929722729509649
  @DF-RHF Final Energy:  -305.99379724408118
    Total Energy =                       -305.9937972440810654
  @DF-RHF Final Energy:  -305.99422140246440
    Total Energy =                       -305.9942214024646319
  @DF-RHF Final Energy:  -305.99429682103016
    Total Energy =                       -305.9942968210299910
  @DF-RHF Final Energy:  -305.99431848398274
    Total Energy =                       -305.9943184839826245
  @DF-RHF Final Energy:  -305.99433094885921
    Total Energy =                       -305.9943309488589875
  @DF-RHF Final Energy:  -305.99434176468390
    Total Energy =                       -305.9943417646840089
  @DF-RHF Final Energy:  -305.99435070807726
    Total Energy =                       -305.9943507080772065
  @DF-RHF Final Energy:  -305.99436053830595
    Total Energy =                       -305.9943605383060685
  @DF-RHF Final Energy:  -305.99436144519541
    Total Energy =                       -305.9943614451954090
  @DF-RHF Final Energy:  -305.99436354982254
    Total Energy =                       -305.9943635498223102
  @DF-RHF Final Energy:  -305.99437161784692
    Total Energy =                       -305.9943716178470368
  @DF-RHF Final Energy:  -305.99438639734507
    Total Energy =                       -305.9943863973450107
  @DF-RHF Final Energy:  -305.99439306590125
    Total Energy =                       -305.9943930659012494
  @DF-RHF Final Energy:  -305.99432111041375
    Total Energy =                       -305.9943211104134662
  @DF-RHF Final Energy:  -305.99441557774162
    Total Energy =                       -305.9944155777416199
  @DF-RHF Final Energy:  -305.99443062101341
    Total Energy =                       -305.9944306210135210
  @DF-RHF Final Energy:  -305.99446845397409
    Total Energy =                       -305.9944684539743207
  @DF-RHF Final Energy:  -305.99377790368135
    Total Energy =                       -305.9937779036812913
  @DF-RHF Final Energy:  -305.99445329503487
    Total Energy =                       -305.9944532950346456
  @DF-RHF Final Energy:  -305.98899197050855
    Total Energy =                       -305.9889919705084367
  @DF-RHF Final Energy:  -305.99455970982785
    Total Energy =                       -305.9945597098278540
  @DF-RHF Final Energy:  -305.99438203648759
    Total Energy =                       -305.9943820364877070
  @DF-RHF Final Energy:  -305.99384328630447
    Total Energy =                       -305.9938432863046955
  @DF-RHF Final Energy:  -305.99456928787959
    Total Energy =                       -305.9945692878794148
  Basis Set: CC-PVTZ
  Basis Set:
  @DF-RHF Final Energy:  -305.99458291606737
    Total Energy =                       -305.9945829160673156
  Basis Set: CC-PVTZ
  Basis Set:
  Basis Set: CC-PVTZ
  Basis Set:
  @DF-RHF Final Energy:  -305.99458592023115
    Total Energy =                       -305.9945859202313727
  Basis Set: CC-PVTZ
  Basis Set:
  Basis Set: CC-PVTZ
  Basis Set:
  @DF-RHF Final Energy:  -305.99458750871520
    Total Energy =                       -305.9945875087150284
  Basis Set: CC-PVTZ
  Basis Set:
  Charge       = 0
  Multiplicity = 1
  Basis Set: CC-PVTZ
  Basis Set:

    Orbital Energies (a.u.)
    -----------------------

    Doubly Occupied:

       1A    -20.606302     2A    -20.537224     3A    -11.372872
       4A    -11.238453     5A    -11.233403     6A    -11.214237
       7A     -1.478020     8A     -1.367814     9A     -1.083132
      10A     -0.976958    11A     -0.865750    12A     -0.795451
      13A     -0.706571    14A     -0.685207    15A     -0.655621
      16A     -0.630271    17A     -0.589863    18A     -0.571514
      19A     -0.563883    20A     -0.503701    21A     -0.497698
      22A     -0.487833    23A     -0.474702    24A     -0.441378

  @DF-RHF Final Energy:  -305.99458772307185

   => Energetics <=

    Nuclear Repulsion Energy =            247.3003240040416131
    One-Electron Energy =                -907.4341106766812572
    Two-Electron Energy =                 354.1391989495676853
    DFT Exchange-Correlation Energy =       0.0000000000000000
    Empirical Dispersion Energy =           0.0000000000000000
    PCM Polarization Energy =               0.0000000000000000
    EFP Energy =                            0.0000000000000000
    Total Energy =                       -305.9945877230719589
    Molecular point group: c1
  Basis Set: CC-PVTZ
  Basis Set:

  -Total Gradient:
     Atom            X                  Y                   Z
    ------   -----------------  -----------------  -----------------
       1       -0.000001251641     0.000019108239     0.000010023331
       2        0.000040633922     0.000012884482     0.000017827609
       3       -0.000122097528     0.000069206821     0.000033296140
       4        0.002987030753     0.002992396910    -0.007239487325
       5       -0.000075123676    -0.000033777666     0.000047832284
       6        0.003354687401     0.003659800158     0.006333438363
       7       -0.002764550075    -0.002856394895     0.004777099270
       8       -0.000130215741    -0.000222573598     0.000013784214
       9        0.000050543879    -0.000219894861     0.000005313641
      10       -0.003175838209    -0.003338006838    -0.004010509477
      11       -0.000186006749    -0.000120951841     0.000052767699
      12       -0.000001490060    -0.000003754499     0.000006040172
      13        0.000007886346     0.000009907544    -0.000016407567
      14        0.000015791377     0.000032050042    -0.000031018356

  **** Optimization is complete! (in 40 steps) ****
    Final optimized geometry and variables:
    Molecular point group: c1

    Geometry (in Angstrom), charge = 0, multiplicity = 1:

    H            0.021103105071    -2.433078172477    -0.224847758515
    O            0.314469609808    -1.640533817252    -0.649777370139
    C            0.447676574938    -0.695901826811     0.274175141647
    C            0.907120349429     0.626982665900    -0.285951078632
    O            0.220359575385    -0.899273345765     1.417993101937
    C           -0.199213180244     1.704022017589    -0.240297949307
    H            1.719382019730     0.922154207343     0.365454548027
    H            1.272884265740     0.482933716749    -1.290976303794
    C           -1.611549487401     1.181024019419    -0.504970840583
    H            0.023087651625     2.424135266373    -1.018953193124
    H           -0.174296602157     2.212909460362     0.713356734555
    H           -1.665582316018     0.654136711958    -1.451570310040
    H           -2.312270194102     2.006203608731    -0.546184919960
    H           -1.943329224027     0.508047705453     0.275581927593

  Mulliken Charges: (a.u.)
   Center  Symbol    Alpha    Beta     Spin     Total
       1     H     0.38014  0.38014  0.00000  0.23972
       2     O     4.16429  4.16429  0.00000 -0.32859
       3     C     2.79214  2.79214  0.00000  0.41572
       4     C     3.10520  3.10520  0.00000 -0.21039
       5     O     4.20262  4.20262  0.00000 -0.40525
       6     C     3.08394  3.08394  0.00000 -0.16787
       7     H     0.43686  0.43686  0.00000  0.12629
       8     H     0.43743  0.43743  0.00000  0.12515
       9     C     3.15767  3.15767  0.00000 -0.31534
      10     H     0.44950  0.44950  0.00000  0.10100
      11     H     0.44560  0.44560  0.00000  0.10881
      12     H     0.45038  0.45038  0.00000  0.09924
      13     H     0.44676  0.44676  0.00000  0.10647
      14     H     0.44748  0.44748  0.00000  0.10505

   Total alpha = 24.00000, Total beta = 24.00000, Total charge =  0.00000

*** Psi4 exiting successfully. Buy a developer a beer!
