                              Psi4 1.0.54 Driver

  ==> Input File <==

--------------------------------------------------------------------------
set {
	reference rhf
	basis cc-pvtz
}

set_num_threads( 4 )
memory 2 gb

molecule MOL {
0 1

O	 0.612891	 -3.941573	 -3.573323
C	 0.698331	 -2.763295	 -3.698995
C	 0.502710	 -1.834674	 -2.516860
C	 1.023469	 -2.130543	 -5.031166
C	 1.798813	 -1.691030	 -1.709194
H	 -0.270546	 -2.260527	 -1.890095
H	 0.169139	 -0.859533	 -2.855529
C	 1.630207	 -0.772146	 -0.501001
H	 2.113808	 -2.677860	 -1.394276
H	 2.587063	 -1.299492	 -2.347677
C	 2.907848	 -0.545876	 0.309149
H	 0.859547	 -1.177113	 0.150201
H	 1.263188	 0.191370	 -0.843837
C	 3.373802	 0.906639	 0.372125
H	 3.699140	 -1.146831	 -0.127906
H	 2.764321	 -0.923458	 1.318191
H	 3.519798	 1.311927	 -0.623875
H	 4.316899	 0.983758	 0.900700
H	 2.661122	 1.540651	 0.885346
H	 0.157665	 -1.580259	 -5.385522
H	 1.285753	 -2.891277	 -5.750235
H	 1.835246	 -1.419057	 -4.929206

	symmetry c1
}
set optking {
	frozen_dihedral = ("
		12 8 11 15
	")
}

ee,wfn = optimize('scf', return_wfn=True)
oeprop( wfn, 'DIPOLE', 'QUADRUPOLE', 'MULLIKEN_CHARGES')
f=open( 'psi4out.xyz', 'w' )
f.write( "22  " )
f.write( str(ee) + "\n" )
f.write( MOL.save_string_xyz() )
f.close()
--------------------------------------------------------------------------

    Molecular point group: c1
  Charge       = 0
  Multiplicity = 1
  Basis Set: CC-PVTZ
  Basis Set:
  @DF-RHF Final Energy:  -348.21912290647356
    Total Energy =                       -348.2191229064738991
    Molecular point group: c1
  Basis Set: CC-PVTZ
  Basis Set:
  Basis Set: CC-PVTZ
  Basis Set:
  @DF-RHF Final Energy:  -348.21953237978676
    Total Energy =                       -348.2195323797866422
  Basis Set: CC-PVTZ
  Basis Set:
  Basis Set: CC-PVTZ
  Basis Set:
  @DF-RHF Final Energy:  -348.21951522312094
    Total Energy =                       -348.2195152231205952
  Basis Set: CC-PVTZ
  Basis Set:
  Basis Set: CC-PVTZ
  Basis Set:
  @DF-RHF Final Energy:  -348.21951272294092
    Total Energy =                       -348.2195127229407490
  Basis Set: CC-PVTZ
  Basis Set:
  Basis Set: CC-PVTZ
  Basis Set:
  @DF-RHF Final Energy:  -348.21958061444849
    Total Energy =                       -348.2195806144486596
  Basis Set: CC-PVTZ
  Basis Set:
  Basis Set: CC-PVTZ
  Basis Set:
  @DF-RHF Final Energy:  -348.21958305246494
    Total Energy =                       -348.2195830524647135
  Basis Set: CC-PVTZ
  Basis Set:
  Basis Set: CC-PVTZ
  Basis Set:
  @DF-RHF Final Energy:  -348.21959871724931
    Total Energy =                       -348.2195987172495961
  Basis Set: CC-PVTZ
  Basis Set:
  Charge       = 0
  Multiplicity = 1
  Basis Set: CC-PVTZ
  Basis Set:

    Orbital Energies (a.u.)
    -----------------------

    Doubly Occupied:

       1A    -20.536745     2A    -11.319301     3A    -11.228912
       4A    -11.227454     5A    -11.226905     6A    -11.220230
       7A    -11.218610     8A    -11.212035     9A     -1.396935
      10A     -1.096372    11A     -1.045923    12A     -1.001527
      13A     -0.939796    14A     -0.848996    15A     -0.798639
      16A     -0.734077    17A     -0.663074    18A     -0.649455
      19A     -0.629703    20A     -0.614909    21A     -0.597723
      22A     -0.588226    23A     -0.559293    24A     -0.547774
      25A     -0.539071    26A     -0.511999    27A     -0.500887
      28A     -0.493032    29A     -0.473978    30A     -0.463923
      31A     -0.460678    32A     -0.398372

  @DF-RHF Final Energy:  -348.21959918138987

   => Energetics <=

    Nuclear Repulsion Energy =            370.3954023391006558
    One-Electron Energy =               -1205.7408969870652982
    Two-Electron Energy =                 487.1258954665746046
    DFT Exchange-Correlation Energy =       0.0000000000000000
    Empirical Dispersion Energy =           0.0000000000000000
    PCM Polarization Energy =               0.0000000000000000
    EFP Energy =                            0.0000000000000000
    Total Energy =                       -348.2195991813900378
    Molecular point group: c1
  Basis Set: CC-PVTZ
  Basis Set:

  -Total Gradient:
     Atom            X                  Y                   Z
    ------   -----------------  -----------------  -----------------
       1        0.000047216289     0.000143625458    -0.000012917697
       2       -0.000077220539    -0.000054165064    -0.000004965835
       3        0.000019613028    -0.000027658983     0.000013115385
       4       -0.000015573180    -0.000072864581    -0.000018900123
       5        0.000043864172    -0.000036291574    -0.000007015018
       6        0.000029681029     0.000011738303    -0.000024176250
       7        0.000009192322    -0.000032028189     0.000022368135
       8       -0.000124386134     0.000252287225     0.000070617985
       9        0.000011185598     0.000037674825    -0.000001226889
      10       -0.000052976474    -0.000030773398     0.000002681866
      11        0.000063460617    -0.000011108171    -0.000048629295
      12        0.000089396710    -0.000129463464    -0.000062903340
      13        0.000037254347    -0.000008140347     0.000043058652
      14       -0.000026966120     0.000041919882    -0.000053550600
      15       -0.000100744918    -0.000134689952     0.000110041204
      16        0.000005289110     0.000001769405    -0.000072372573
      17       -0.000008613251     0.000024104320     0.000037247865
      18        0.000013334439     0.000012995850    -0.000010374219
      19        0.000008896183    -0.000015245573    -0.000018528323
      20        0.000005828323    -0.000011276666     0.000011636576
      21       -0.000005635607     0.000031916215     0.000011152152
      22        0.000027904054     0.000005674481     0.000013640344

  **** Optimization is complete! (in 8 steps) ****
    Final optimized geometry and variables:
    Molecular point group: c1

    Geometry (in Angstrom), charge = 0, multiplicity = 1:

    O           -0.954883747374    -2.395020043200    -1.463417635989
    C           -0.877491157381    -1.220210283073    -1.621178704345
    C           -1.085815324549    -0.260610088584    -0.466549400476
    C           -0.551633558283    -0.622479652783    -2.969220100325
    C            0.209522789742    -0.066539887646     0.330292062228
    H           -1.848331855434    -0.681680773392     0.176144656576
    H           -1.439108477907     0.697409978156    -0.833247684264
    C            0.038130256160     0.884452529018     1.512635094743
    H            0.547075726943    -1.033905257028     0.685592406117
    H            0.990523686192     0.313975645794    -0.323290014082
    C            1.332301984812     1.085985197573     2.327738991881
    H           -0.748880065956     0.502730291543     2.154409106163
    H           -0.314203730927     1.843585117651     1.144779161153
    C            1.803214576171     2.536805412535     2.373611211831
    H            2.123429332540     0.471540716825     1.910349408084
    H            1.186188126388     0.730262477821     3.341385365187
    H            1.994300336777     2.917403122500     1.375371819931
    H            2.718389049800     2.635500884868     2.946192412010
    H            1.055229433229     3.175638967865     2.831045890064
    H           -1.422261744453    -0.093863207589    -3.344078917264
    H           -0.276306646009    -1.400644852142    -3.664267038842
    H            0.250794133228     0.101693206859    -2.884260162895

  Mulliken Charges: (a.u.)
   Center  Symbol    Alpha    Beta     Spin     Total
       1     O     4.17769  4.17769  0.00000 -0.35538
       2     C     2.85810  2.85810  0.00000  0.28379
       3     C     3.09942  3.09942  0.00000 -0.19884
       4     C     3.15526  3.15526  0.00000 -0.31051
       5     C     3.10169  3.10169  0.00000 -0.20338
       6     H     0.43912  0.43912  0.00000  0.12176
       7     H     0.44889  0.44889  0.00000  0.10222
       8     C     3.09563  3.09563  0.00000 -0.19126
       9     H     0.43975  0.43975  0.00000  0.12050
      10     H     0.45152  0.45152  0.00000  0.09696
      11     C     3.09012  3.09012  0.00000 -0.18024
      12     H     0.44655  0.44655  0.00000  0.10690
      13     H     0.45403  0.45403  0.00000  0.09195
      14     C     3.14714  3.14714  0.00000 -0.29428
      15     H     0.45291  0.45291  0.00000  0.09418
      16     H     0.44802  0.44802  0.00000  0.10396
      17     H     0.45635  0.45635  0.00000  0.08730
      18     H     0.44843  0.44843  0.00000  0.10314
      19     H     0.45406  0.45406  0.00000  0.09189
      20     H     0.44832  0.44832  0.00000  0.10335
      21     H     0.43600  0.43600  0.00000  0.12800
      22     H     0.45101  0.45101  0.00000  0.09799

   Total alpha = 32.00000, Total beta = 32.00000, Total charge = -0.00000

*** Psi4 exiting successfully. Buy a developer a beer!
