  ==> Input File <==

--------------------------------------------------------------------------
set {
	reference rhf
	basis 6-31G*
}

set_num_threads( 4 )
memory 2 gb

molecule MOL {
0 1

H	 -3.135461	 -1.215070	 0.001379
O	 -2.310168	 -0.871793	 -0.309793
C	 -2.026376	 0.340750	 0.341611
C	 -0.673256	 0.843270	 -0.132153
H	 -2.792215	 1.080697	 0.115987
H	 -2.013526	 0.200402	 1.421792
C	 0.486613	 -0.083066	 0.235839
H	 -0.715586	 0.970948	 -1.210718
H	 -0.508072	 1.829858	 0.297090
C	 1.840406	 0.433480	 -0.254303
H	 0.300215	 -1.068318	 -0.178947
H	 0.519509	 -0.203625	 1.318070
C	 2.025668	 0.279100	 -1.763448
H	 1.943847	 1.482387	 0.015534
H	 2.639534	 -0.094368	 0.262626
H	 1.261321	 0.824987	 -2.309039
H	 2.992835	 0.655523	 -2.082571
H	 1.961885	 -0.763730	 -2.061691

	symmetry c1
}
set optking {
	frozen_dihedral = ("
		14 10 7 11
	")
}

ee = optimize('scf')
oeprop('DIPOLE', 'QUADRUPOLE', 'MULLIKEN_CHARGES')
f=open( 'psi4out.xyz', 'w' )
f.write( "18  " )
f.write( str(ee) + "\n" )
f.write( MOL.save_string_xyz() )
f.close()
--------------------------------------------------------------------------

    Molecular point group: c1
  Charge       = 0
  Multiplicity = 1
  Basis Set: 6-31G*
  Basis Set:
  @DF-RHF Final Energy:  -271.17784140934685
    Total Energy =                       -271.1778414093470246
    Molecular point group: c1
  Basis Set: 6-31G*
  Basis Set:
  Basis Set: 6-31G*
  Basis Set:
  @DF-RHF Final Energy:  -271.17799325178316
    Total Energy =                       -271.1779932517833913
  Basis Set: 6-31G*
  Basis Set:
  Basis Set: 6-31G*
  Basis Set:
  @DF-RHF Final Energy:  -271.17807067043168
    Total Energy =                       -271.1780706704317936
  Basis Set: 6-31G*
  Basis Set:
  Basis Set: 6-31G*
  Basis Set:
  @DF-RHF Final Energy:  -271.17807276076644
    Total Energy =                       -271.1780727607663835
  Basis Set: 6-31G*
  Basis Set:
  Charge       = 0
  Multiplicity = 1
  Basis Set: 6-31G*
  Basis Set:

    Orbital Energies (a.u.)
    -----------------------

    Doubly Occupied:

       1A    -20.553036     2A    -11.267988     3A    -11.211619
       4A    -11.210925     5A    -11.206591     6A    -11.203241
       7A     -1.359733     8A     -1.074159     9A     -1.005913
      10A     -0.913402    11A     -0.826912    12A     -0.773937
      13A     -0.704192    14A     -0.641287    15A     -0.613212
      16A     -0.601892    17A     -0.564891    18A     -0.555157
      19A     -0.519861    20A     -0.500890    21A     -0.493822
      22A     -0.462951    23A     -0.454916    24A     -0.448625
      25A     -0.427821

  @DF-RHF Final Energy:  -271.17807332790977

   => Energetics <=

    Nuclear Repulsion Energy =            251.9233892823803558
    One-Electron Energy =                -867.0089782531537139
    Two-Electron Energy =                 343.9075156428637001
    DFT Exchange-Correlation Energy =       0.0000000000000000
    Empirical Dispersion Energy =           0.0000000000000000
    PCM Polarization Energy =               0.0000000000000000
    EFP Energy =                            0.0000000000000000
    Total Energy =                       -271.1780733279097149
    Molecular point group: c1
  Basis Set: 6-31G*
  Basis Set:

  -Total Gradient:
     Atom            X                  Y                   Z
    ------   -----------------  -----------------  -----------------
       1        0.000002465044     0.000002624236     0.000001664617
       2        0.000021809339    -0.000006972853     0.000009574013
       3       -0.000036244702     0.000016680575    -0.000033238209
       4        0.000030422685     0.000016008992     0.000071646989
       5       -0.000014945576     0.000004573462     0.000007272832
       6        0.000008157438     0.000000085470    -0.000012566195
       7        0.000660318297    -0.000692283065     0.001055622254
       8        0.000012538438    -0.000012796542     0.000006385644
       9       -0.000019406579     0.000020043480    -0.000001389830
      10        0.000546148063    -0.000278134930     0.001290756534
      11       -0.000636208010     0.000579127453    -0.001139343662
      12        0.000007207391     0.000009187494    -0.000019531391
      13        0.000016500201    -0.000051775054     0.000024349390
      14       -0.000597094270     0.000392163335    -0.001241951154
      15        0.000005106044     0.000005503450    -0.000017904572
      16       -0.000010519167     0.000005783134     0.000029083687
      17        0.000009962611    -0.000004650989    -0.000003942467
      18       -0.000006217239    -0.000005167649    -0.000026488482

  **** Optimization is complete! (in 5 steps) ****
    Final optimized geometry and variables:
    Molecular point group: c1

    Geometry (in Angstrom), charge = 0, multiplicity = 1:

    H           -2.973608173594    -1.355593202556     0.350235421864
    O           -2.155278875305    -1.007098842040     0.026669743548
    C           -1.866023693429     0.204016158537     0.678431772372
    C           -0.523394432520     0.714941241481     0.183372048961
    H           -2.639141686172     0.941225508654     0.469081701912
    H           -1.834118428593     0.059063862965     1.757618598962
    C            0.645336144751    -0.207031938385     0.542430086743
    H           -0.589960439649     0.844152750784    -0.892503959434
    H           -0.356859578309     1.701640633473     0.612095510111
    C            2.008193827312     0.303037741748     0.056793946934
    H            0.454611586848    -1.190752659339     0.125785640600
    H            0.674801325790    -0.323383139167     1.624107819420
    C            2.229158528807     0.149600096752    -1.449799324999
    H            2.120602725897     1.351480448736     0.326596315402
    H            2.793613432788    -0.235998906961     0.580199029199
    H            1.505514728214     0.717663940224    -2.025376213413
    H            3.217570503079     0.498392759497    -1.733797610607
    H            2.145870585822    -0.890758245529    -1.751006621076

  Mulliken Charges: (a.u.)
   Center  Symbol    Alpha    Beta     Spin     Total
       1     H     0.28058  0.28058  0.00000  0.43885
       2     O     4.36968  4.36968  0.00000 -0.73936
       3     C     2.99723  2.99723  0.00000  0.00554
       4     C     3.16145  3.16145  0.00000 -0.32290
       5     H     0.42928  0.42928  0.00000  0.14144
       6     H     0.43272  0.43272  0.00000  0.13456
       7     C     3.15542  3.15542  0.00000 -0.31084
       8     H     0.41360  0.41360  0.00000  0.17279
       9     H     0.42442  0.42442  0.00000  0.15116
      10     C     3.15351  3.15351  0.00000 -0.30701
      11     H     0.40796  0.40796  0.00000  0.18408
      12     H     0.42566  0.42566  0.00000  0.14869
      13     C     3.23994  3.23994  0.00000 -0.47988
      14     H     0.42537  0.42537  0.00000  0.14926
      15     H     0.42117  0.42117  0.00000  0.15766
      16     H     0.42072  0.42072  0.00000  0.15855
      17     H     0.42090  0.42090  0.00000  0.15821
      18     H     0.42040  0.42040  0.00000  0.15919

   Total alpha = 25.00000, Total beta = 25.00000, Total charge =  0.00000
