  ==> Input File <==

--------------------------------------------------------------------------
set {
	reference rhf
	basis 6-31G*
}

set_num_threads( 4 )
memory 2 gb

molecule MOL {
0 1

H	 -4.024653	 -0.515037	 -0.341046
C	 -2.960315	 -0.360632	 -0.352299
C	 -2.442230	 0.851982	 -0.781603
C	 -2.111189	 -1.374506	 0.062402
H	 -3.101873	 1.637455	 -1.102960
C	 -1.073594	 1.049769	 -0.795789
H	 -2.514619	 -2.313827	 0.394858
C	 -0.740830	 -1.178770	 0.049054
H	 -0.655019	 1.981558	 -1.124780
C	 -0.218455	 0.035414	 -0.380648
H	 -0.080036	 -1.960590	 0.369099
C	 1.247829	 0.299005	 -0.415103
O	 1.970282	 -0.730723	 0.000018
O	 1.731132	 1.325896	 -0.776727
C	 3.377318	 -0.566646	 -0.000065
H	 3.695437	 -0.028981	 -0.881264
H	 3.789299	 -1.563704	 0.000236
H	 3.695516	 -0.028316	 0.880770

	symmetry c1
}
set optking {
	frozen_dihedral = ("
		12 13 15 16
	")
}

ee = optimize('scf')
oeprop('DIPOLE', 'QUADRUPOLE', 'MULLIKEN_CHARGES')
f=open( 'psi4out.xyz', 'w' )
f.write( "18  " )
f.write( str(ee) + "\n" )
f.write( MOL.save_string_xyz() )
f.close()
--------------------------------------------------------------------------

    Molecular point group: c1
  Charge       = 0
  Multiplicity = 1
  Basis Set: 6-31G*
  Basis Set:
  @DF-RHF Final Energy:  -457.34993298518384
    Total Energy =                       -457.3499329851840685
    Molecular point group: c1
  Basis Set: 6-31G*
  Basis Set:
  Basis Set: 6-31G*
  Basis Set:
  @DF-RHF Final Energy:  -457.34997618764282
    Total Energy =                       -457.3499761876424827
  Basis Set: 6-31G*
  Basis Set:
  Basis Set: 6-31G*
  Basis Set:
  @DF-RHF Final Energy:  -457.34979744859203
    Total Energy =                       -457.3497974485918576
  Basis Set: 6-31G*
  Basis Set:
  Basis Set: 6-31G*
  Basis Set:
  @DF-RHF Final Energy:  -457.35003277084104
    Total Energy =                       -457.3500327708411533
  Basis Set: 6-31G*
  Basis Set:
  Charge       = 0
  Multiplicity = 1
  Basis Set: 6-31G*
  Basis Set:

    Orbital Energies (a.u.)
    -----------------------

    Doubly Occupied:

       1A    -20.607371     2A    -20.544228     3A    -11.378328
       4A    -11.282570     5A    -11.245454     6A    -11.245166
       7A    -11.244005     8A    -11.241568     9A    -11.237348
      10A    -11.236582    11A     -1.472080    12A     -1.364060
      13A     -1.165139    14A     -1.048014    15A     -1.024677
      16A     -0.978492    17A     -0.860049    18A     -0.834182
      19A     -0.777644    20A     -0.739974    21A     -0.683550
      22A     -0.676463    23A     -0.671815    24A     -0.631162
      25A     -0.623863    26A     -0.597681    27A     -0.585201
      28A     -0.562504    29A     -0.528163    30A     -0.516546
      31A     -0.503442    32A     -0.498740    33A     -0.458232
      34A     -0.444313    35A     -0.344770    36A     -0.340854

  @DF-RHF Final Energy:  -457.35004350186455

   => Energetics <=

    Nuclear Repulsion Energy =            492.8845852828898160
    One-Electron Energy =               -1600.0807959379742442
    Two-Electron Energy =                 649.8461671532197670
    DFT Exchange-Correlation Energy =       0.0000000000000000
    Empirical Dispersion Energy =           0.0000000000000000
    PCM Polarization Energy =               0.0000000000000000
    EFP Energy =                            0.0000000000000000
    Total Energy =                       -457.3500435018647750
    Molecular point group: c1
  Basis Set: 6-31G*
  Basis Set:

  -Total Gradient:
     Atom            X                  Y                   Z
    ------   -----------------  -----------------  -----------------
       1       -0.000000216938    -0.000000004941     0.000000039045
       2        0.000003048311    -0.000002789067     0.000002189632
       3        0.000004777670    -0.000007158815    -0.000002975019
       4       -0.000006418397    -0.000003803038     0.000005236739
       5       -0.000001430555    -0.000000619696    -0.000001277561
       6       -0.000006517872    -0.000000194306    -0.000001248815
       7       -0.000005323990     0.000001365393     0.000000354420
       8       -0.000026674293    -0.000022528510     0.000011837193
       9       -0.000002198157    -0.000005320143     0.000005195199
      10       -0.000001384403    -0.000008435266     0.000006867207
      11       -0.000009911731     0.000011255283    -0.000008007392
      12       -0.000032977456    -0.000372934726    -0.001364942340
      13        0.000022585312     0.001115237295     0.002082729250
      14        0.000071603854    -0.000114277780     0.000065700917
      15        0.000188787549    -0.001971226822    -0.001581072061
      16       -0.000140963813     0.001393559733     0.000765111201
      17       -0.000004092193    -0.000010426145    -0.000000248741
      18       -0.000052692904    -0.000001698448     0.000014511125

  **** Optimization is complete! (in 5 steps) ****
    Final optimized geometry and variables:
    Molecular point group: c1

    Geometry (in Angstrom), charge = 0, multiplicity = 1:

    H           -4.029729665595    -0.466366343421    -0.014472958642
    C           -2.965977033446    -0.308039904854    -0.022896348821
    C           -2.451289086109     0.907456626106    -0.448175055953
    C           -2.114160035846    -1.319705066646     0.391551280976
    H           -3.113013306484     1.691352384960    -0.769230609909
    C           -1.083430845288     1.110371177599    -0.458472443163
    H           -2.514977520644    -2.261191040935     0.720988412684
    C           -0.744494104076    -1.118896613992     0.381758988897
    H           -0.667701602584     2.044548682889    -0.784123605502
    C           -0.225391218028     0.098163828555    -0.043946943029
    H           -0.081877322676    -1.899061109084     0.701823232257
    C            1.240297960013     0.367830776012    -0.075045270603
    O            1.963233817966    -0.659271284202     0.345918935021
    O            1.718511853968     1.396998455373    -0.436882291135
    C            3.373205664624    -0.520627018170     0.325719578463
    H            3.694441766613    -0.005173477643    -0.565257119146
    H            3.773318071383    -1.521907219684     0.359835053708
    H            3.699251514099     0.037892192413     1.192871197948

  Mulliken Charges: (a.u.)
   Center  Symbol    Alpha    Beta     Spin     Total
       1     H     0.39542  0.39542  0.00000  0.20916
       2     C     3.08999  3.08999  0.00000 -0.17999
       3     C     3.10710  3.10710  0.00000 -0.21420
       4     C     3.10715  3.10715  0.00000 -0.21430
       5     H     0.39540  0.39540  0.00000  0.20920
       6     C     3.08645  3.08645  0.00000 -0.17290
       7     H     0.39629  0.39629  0.00000  0.20741
       8     C     3.08709  3.08709  0.00000 -0.17418
       9     H     0.37596  0.37596  0.00000  0.24808
      10     C     3.07731  3.07731  0.00000 -0.15461
      11     H     0.38050  0.38050  0.00000  0.23900
      12     C     2.57952  2.57952  0.00000  0.84096
      13     O     4.31530  4.31530  0.00000 -0.63061
      14     O     4.29177  4.29177  0.00000 -0.58354
      15     C     3.09404  3.09404  0.00000 -0.18807
      16     H     0.40131  0.40131  0.00000  0.19738
      17     H     0.40838  0.40838  0.00000  0.18324
      18     H     0.41103  0.41103  0.00000  0.17794

   Total alpha = 36.00000, Total beta = 36.00000, Total charge = -0.00000
