  ==> Input File <==

--------------------------------------------------------------------------
set {
	reference rhf
	basis cc-pvtz
}

set_num_threads( 4 )
memory 2 gb

molecule MOL {
0 1

H	 2.867672	 -0.456275	 0.875795
C	 2.403497	 -0.020426	 0.000000
N	 0.989899	 -0.304564	 0.000000
H	 2.867672	 -0.456275	 -0.875795
H	 2.620366	 1.051270	 0.000000
C	 0.649415	 -1.418791	 0.860313
C	 0.467080	 -0.511667	 -1.334667
H	 1.143476	 -2.339857	 0.535837
H	 0.983330	 -1.205397	 1.869120
C	 -0.851800	 -1.634639	 0.862604
H	 0.667210	 0.367313	 -1.936389
H	 0.947427	 -1.364504	 -1.824239
C	 -1.029450	 -0.750823	 -1.275978
H	 -1.106870	 -2.519878	 1.428216
H	 -1.341535	 -0.778503	 1.322267
O	 -1.336674	 -1.822106	 -0.433891
H	 -1.412932	 -0.997206	 -2.256215
H	 -1.528378	 0.151048	 -0.926980

	symmetry c1
}
set optking {
	frozen_dihedral = ("
		6 3 2 5
	")
}

ee = optimize('scf')
oeprop('DIPOLE', 'QUADRUPOLE', 'MULLIKEN_CHARGES')
f=open( 'psi4out.xyz', 'w' )
f.write( "18  " )
f.write( str(ee) + "\n" )
f.write( MOL.save_string_xyz() )
f.close()
--------------------------------------------------------------------------

    Molecular point group: c1
  Charge       = 0
  Multiplicity = 1
  Basis Set: CC-PVTZ
  Basis Set:
  @DF-RHF Final Energy:  -325.14102038211570
    Total Energy =                       -325.1410203821156983
    Molecular point group: c1
  Basis Set: CC-PVTZ
  Basis Set:
  Basis Set: CC-PVTZ
  Basis Set:
  @DF-RHF Final Energy:  -325.14196108642079
    Total Energy =                       -325.1419610864207357
  Basis Set: CC-PVTZ
  Basis Set:
  Basis Set: CC-PVTZ
  Basis Set:
  @DF-RHF Final Energy:  -325.14207589072794
    Total Energy =                       -325.1420758907277673
  Basis Set: CC-PVTZ
  Basis Set:
  Charge       = 0
  Multiplicity = 1
  Basis Set: CC-PVTZ
  Basis Set:

    Orbital Energies (a.u.)
    -----------------------

    Doubly Occupied:

       1A    -20.547210     2A    -15.541098     3A    -11.263848
       4A    -11.263778     5A    -11.242627     6A    -11.242353
       7A    -11.238946     8A     -1.386031     9A     -1.230479
      10A     -1.039157    11A     -0.981536    12A     -0.884141
      13A     -0.869998    14A     -0.773147    15A     -0.684620
      16A     -0.646335    17A     -0.644847    18A     -0.633014
      19A     -0.629185    20A     -0.572959    21A     -0.556943
      22A     -0.546923    23A     -0.526493    24A     -0.500321
      25A     -0.485760    26A     -0.453754    27A     -0.410449
      28A     -0.348627

  @DF-RHF Final Energy:  -325.14208345456808

   => Energetics <=

    Nuclear Repulsion Energy =            341.4881917561827436
    One-Electron Energy =               -1118.9713960307090019
    Two-Electron Energy =                 452.3411208199582347
    DFT Exchange-Correlation Energy =       0.0000000000000000
    Empirical Dispersion Energy =           0.0000000000000000
    PCM Polarization Energy =               0.0000000000000000
    EFP Energy =                            0.0000000000000000
    Total Energy =                       -325.1420834545680805
    Molecular point group: c1
  Basis Set: CC-PVTZ
  Basis Set:

  -Total Gradient:
     Atom            X                  Y                   Z
    ------   -----------------  -----------------  -----------------
       1        0.000006702677    -0.000003862254     0.000012463243
       2        0.000179309308     0.001054638756    -0.004700562158
       3        0.000819860361    -0.003067637790    -0.002504710401
       4       -0.000112743749    -0.000091683637     0.000009856152
       5       -0.000077653384     0.000063676307     0.004592542928
       6       -0.000636214349     0.002045501252     0.002722914450
       7       -0.000066378253    -0.000102502026    -0.000166512719
       8       -0.000038665087     0.000101372060    -0.000008221503
       9       -0.000005265230     0.000036862088    -0.000030846447
      10        0.000007532832    -0.000078089452     0.000003222976
      11        0.000008520560     0.000005797806     0.000040278806
      12       -0.000005318489     0.000050990023     0.000067726938
      13       -0.000028007019     0.000000920207    -0.000013771999
      14       -0.000069089788    -0.000036183360     0.000025805835
      15        0.000037092205    -0.000014894378    -0.000030844471
      16        0.000028594995     0.000067738697     0.000004026390
      17       -0.000057342951    -0.000021482753    -0.000018718705
      18        0.000009065359    -0.000011161548    -0.000004649315

  **** Optimization is complete! (in 4 steps) ****
    Final optimized geometry and variables:
    Molecular point group: c1

    Geometry (in Angstrom), charge = 0, multiplicity = 1:

    H            2.684393542915     0.583783431447     1.105474890879
    C            2.226548437085     0.924939722901     0.185335828502
    N            0.820915264912     0.582341349436     0.179245191543
    H            2.775887579278     0.471364584806    -0.638848729134
    H            2.361231973688     2.000369336962     0.155310691676
    C            0.463813224220    -0.513912748982     1.053056188778
    C            0.276292503642     0.415647155119    -1.148819126419
    H            0.935522964030    -1.452824762600     0.745860445079
    H            0.797953932853    -0.291632662700     2.059166474686
    C           -1.042293171824    -0.697097244619     1.058050091103
    H            0.482580518731     1.305180711993    -1.733711307653
    H            0.736520975728    -0.432226551731    -1.665848448844
    C           -1.223136219056     0.199271380754    -1.075221887866
    H           -1.316152014899    -1.575999191927     1.625103505200
    H           -1.510750481160     0.170606875802     1.518465609651
    O           -1.535915383759    -0.873105746164    -0.236728617342
    H           -1.621984735409    -0.034450161066    -2.052600319034
    H           -1.704560014051     1.105855536744    -0.713880764704

  Mulliken Charges: (a.u.)
   Center  Symbol    Alpha    Beta     Spin     Total
       1     H     0.45616  0.45616  0.00000  0.08767
       2     C     3.09240  3.09240  0.00000 -0.18481
       3     N     3.61879  3.61879  0.00000 -0.23758
       4     H     0.46500  0.46500  0.00000  0.07001
       5     H     0.44949  0.44949  0.00000  0.10103
       6     C     3.03908  3.03908  0.00000 -0.07816
       7     C     3.04076  3.04076  0.00000 -0.08152
       8     H     0.46992  0.46992  0.00000  0.06016
       9     H     0.45420  0.45420  0.00000  0.09159
      10     C     2.98412  2.98412  0.00000  0.03176
      11     H     0.45416  0.45416  0.00000  0.09168
      12     H     0.46886  0.46886  0.00000  0.06229
      13     C     2.98383  2.98383  0.00000  0.03234
      14     H     0.45001  0.45001  0.00000  0.09998
      15     H     0.46840  0.46840  0.00000  0.06319
      16     O     4.18646  4.18646  0.00000 -0.37292
      17     H     0.45012  0.45012  0.00000  0.09975
      18     H     0.46823  0.46823  0.00000  0.06354

   Total alpha = 28.00000, Total beta = 28.00000, Total charge =  0.00000
