  ==> Input File <==

--------------------------------------------------------------------------
set {
	reference rhf
	basis 6-31G*
}

set_num_threads( 1 )
memory 2 gb

molecule MOL {
0 1

H	 0.976457	 -0.768781	 -1.106030
O	 1.654024	 -0.625927	 -0.460906
C	 1.135793	 0.118896	 0.612333
C	 0.031547	 1.023609	 0.088541
H	 1.915668	 0.729681	 1.063582
H	 0.754543	 -0.542641	 1.387006
C	 -1.134819	 0.293262	 -0.585751
H	 0.474374	 1.714721	 -0.623187
H	 -0.338529	 1.620940	 0.920081
C	 -1.917817	 -0.639439	 0.339494
H	 -0.758119	 -0.268455	 -1.433105
H	 -1.813832	 1.041889	 -0.986690
H	 -2.777680	 -1.057197	 -0.174994
H	 -1.310268	 -1.471279	 0.680599
H	 -2.283753	 -0.111424	 1.216626

	symmetry c1
}
set optking {
	frozen_dihedral = ("
		8 4 7 11,
		2 3 4 8
	")
}

ee = energy('scf')
oeprop('DIPOLE', 'QUADRUPOLE', 'MULLIKEN_CHARGES')
f=open( 'psi4out.xyz', 'w' )
f.write( "15  " )
f.write( str(ee) + "\n" )
f.write( MOL.save_string_xyz() )
f.close()
--------------------------------------------------------------------------

    Molecular point group: c1

    Geometry (in Angstrom), charge = 0, multiplicity = 1:

       Center              X                  Y                   Z               Mass
    ------------   -----------------  -----------------  -----------------  -----------------
           H          0.994940136512    -0.774703326031    -1.092995938818     1.007825032070
           O          1.672507136512    -0.631849326031    -0.447871938818    15.994914619560
           C          1.154276136512     0.112973673969     0.625367061182    12.000000000000
           C          0.050030136512     1.017686673969     0.101575061182    12.000000000000
           H          1.934151136512     0.723758673969     1.076616061182     1.007825032070
           H          0.773026136512    -0.548563326031     1.400040061182     1.007825032070
           C         -1.116335863488     0.287339673969    -0.572716938818    12.000000000000
           H          0.492857136512     1.708798673969    -0.610152938818     1.007825032070
           H         -0.320045863488     1.615017673969     0.933115061182     1.007825032070
           C         -1.899333863488    -0.645361326031     0.352528061182    12.000000000000
           H         -0.739635863488    -0.274377326031    -1.420070938818     1.007825032070
           H         -1.795348863488     1.035966673969    -0.973655938818     1.007825032070
           H         -2.759196863488    -1.063119326031    -0.161959938818     1.007825032070
           H         -1.291784863488    -1.477201326031     0.693633061182     1.007825032070
           H         -2.265269863488    -0.117346326031     1.229660061182     1.007825032070

  Charge       = 0
  Multiplicity = 1
  Basis Set: 6-31G*
  Basis Set:

    Orbital Energies (a.u.)
    -----------------------

    Doubly Occupied:

       1A    -20.547767     2A    -11.267090     3A    -11.230836
       4A    -11.221139     5A    -11.218272     6A     -1.358118
       7A     -1.076533     8A     -0.978097     9A     -0.885448
      10A     -0.790351    11A     -0.685311    12A     -0.650753
      13A     -0.628934    14A     -0.586529    15A     -0.577319
      16A     -0.552496    17A     -0.503725    18A     -0.486311
      19A     -0.484149    20A     -0.459783    21A     -0.428374

  @DF-RHF Final Energy:  -232.13820465515920

   => Energetics <=

    Nuclear Repulsion Energy =            193.2900850491299138
    One-Electron Energy =                -697.6218161058836813
    Two-Electron Energy =                 272.1935264015939993
    DFT Exchange-Correlation Energy =       0.0000000000000000
    Empirical Dispersion Energy =           0.0000000000000000
    PCM Polarization Energy =               0.0000000000000000
    EFP Energy =                            0.0000000000000000
    Total Energy =                       -232.1382046551597682

  Mulliken Charges: (a.u.)
   Center  Symbol    Alpha    Beta     Spin     Total
       1     H     0.27420  0.27420  0.00000  0.45160
       2     O     4.37949  4.37949  0.00000 -0.75898
       3     C     2.98445  2.98445  0.00000  0.03111
       4     C     3.17908  3.17908  0.00000 -0.35817
       5     H     0.41729  0.41729  0.00000  0.16542
       6     H     0.42827  0.42827  0.00000  0.14346
       7     C     3.16501  3.16501  0.00000 -0.33002
       8     H     0.41329  0.41329  0.00000  0.17341
       9     H     0.42133  0.42133  0.00000  0.15735
      10     C     3.24253  3.24253  0.00000 -0.48505
      11     H     0.43070  0.43070  0.00000  0.13861
      12     H     0.41289  0.41289  0.00000  0.17423
      13     H     0.41635  0.41635  0.00000  0.16729
      14     H     0.41615  0.41615  0.00000  0.16770
      15     H     0.41898  0.41898  0.00000  0.16204

   Total alpha = 21.00000, Total beta = 21.00000, Total charge = -0.00000
