  ==> Input File <==

--------------------------------------------------------------------------
set {
	reference rhf
	basis 6-31G*
}

set_num_threads( 4 )
memory 2 gb

molecule MOL {
0 1

H	 -0.512048	 2.690951	 -1.458942
C	 0.240130	 2.312799	 -0.755426
C	 0.065331	 0.871482	 -0.349150
O	 1.111984	 3.024273	 -0.374120
C	 -1.339775	 0.583656	 0.198860
H	 0.831976	 0.625340	 0.376511
H	 0.235820	 0.263641	 -1.236632
C	 -1.808407	 -0.848507	 -0.061364
H	 -2.036183	 1.280685	 -0.256307
H	 -1.360094	 0.788874	 1.267089
H	 -1.828843	 -1.063152	 -1.125336
H	 -2.808409	 -1.004529	 0.329750
H	 -1.153967	 -1.577789	 0.406873

	symmetry c1
}
set optking {
	frozen_dihedral = ("
		6 3 5 9
	")
}

ee = optimize('scf')
oeprop('DIPOLE', 'QUADRUPOLE', 'MULLIKEN_CHARGES')
f=open( 'psi4out.xyz', 'w' )
f.write( "13  " )
f.write( str(ee) + "\n" )
f.write( MOL.save_string_xyz() )
f.close()
--------------------------------------------------------------------------

    Molecular point group: c1
  Charge       = 0
  Multiplicity = 1
  Basis Set: 6-31G*
  Basis Set:
  @DF-RHF Final Energy:  -230.98270199460950
    Total Energy =                       -230.9827019946094140
    Molecular point group: c1
  Basis Set: 6-31G*
  Basis Set:
  Basis Set: 6-31G*
  Basis Set:
  @DF-RHF Final Energy:  -230.98296296294430
    Total Energy =                       -230.9829629629443275
  Basis Set: 6-31G*
  Basis Set:
  Basis Set: 6-31G*
  Basis Set:
  @DF-RHF Final Energy:  -230.98213869032176
    Total Energy =                       -230.9821386903217615
  Basis Set: 6-31G*
  Basis Set:
  Basis Set: 6-31G*
  Basis Set:
  @DF-RHF Final Energy:  -230.98301867229571
    Total Energy =                       -230.9830186722957421
  Basis Set: 6-31G*
  Basis Set:
  Basis Set: 6-31G*
  Basis Set:
  @DF-RHF Final Energy:  -230.98302698132949
    Total Energy =                       -230.9830269813293739
  Basis Set: 6-31G*
  Basis Set:
  Basis Set: 6-31G*
  Basis Set:
  @DF-RHF Final Energy:  -230.98303179507622
    Total Energy =                       -230.9830317950761014
  Basis Set: 6-31G*
  Basis Set:
  Basis Set: 6-31G*
  Basis Set:
  @DF-RHF Final Energy:  -230.98303290510080
    Total Energy =                       -230.9830329051005720
  Basis Set: 6-31G*
  Basis Set:
  Charge       = 0
  Multiplicity = 1
  Basis Set: 6-31G*
  Basis Set:

    Orbital Energies (a.u.)
    -----------------------

    Doubly Occupied:

       1A    -20.563181     2A    -11.327094     3A    -11.239172
       4A    -11.235854     5A    -11.224377     6A     -1.403178
       7A     -1.086024     8A     -0.976742     9A     -0.841338
      10A     -0.794140    11A     -0.676599    12A     -0.643453
      13A     -0.623360    14A     -0.589379    15A     -0.565774
      16A     -0.527007    17A     -0.516219    18A     -0.489949
      19A     -0.483629    20A     -0.410642

  @DF-RHF Final Energy:  -230.98303323487198

   => Energetics <=

    Nuclear Repulsion Energy =            170.3243107301542523
    One-Electron Energy =                -650.1804678254729879
    Two-Electron Energy =                 248.8731238604466114
    DFT Exchange-Correlation Energy =       0.0000000000000000
    Empirical Dispersion Energy =           0.0000000000000000
    PCM Polarization Energy =               0.0000000000000000
    EFP Energy =                            0.0000000000000000
    Total Energy =                       -230.9830332348721242
    Molecular point group: c1
  Basis Set: 6-31G*
  Basis Set:

  -Total Gradient:
     Atom            X                  Y                   Z
    ------   -----------------  -----------------  -----------------
       1       -0.000009784907     0.000004820688     0.000009755652
       2        0.000002431238     0.000004913173    -0.000016149139
       3        0.000296897398    -0.003879286746    -0.001047022017
       4        0.000013498367    -0.000012401199    -0.000006442222
       5       -0.000796661173    -0.002135368306    -0.003155388553
       6       -0.000153613889     0.003579725601     0.001376888131
       7        0.000016127890    -0.000023350194     0.000016945935
       8        0.000022644543     0.000005293468    -0.000007048842
       9        0.000611968371     0.002468714495     0.002822787438
      10       -0.000004878247    -0.000015649539     0.000008463610
      11        0.000002404619    -0.000003827617    -0.000004259608
      12        0.000001349139     0.000006443940    -0.000000790481
      13       -0.000002383351    -0.000000027767     0.000002260096

  **** Optimization is complete! (in 8 steps) ****
    Final optimized geometry and variables:
    Molecular point group: c1

    Geometry (in Angstrom), charge = 0, multiplicity = 1:

    H           -0.120467575661     1.532065763232    -1.203481437896
    C            0.601499478839     1.133001975966    -0.480629623864
    C            0.411762472064    -0.320257967378    -0.121574331762
    O            1.454009507538     1.832916484824    -0.039434821263
    C           -1.002760587272    -0.595515594344     0.420489824867
    H            1.171816859254    -0.567764468566     0.609338766366
    H            0.587664350848    -0.904709990846    -1.023097661429
    C           -1.459911876292    -2.036680118590     0.208980506036
    H           -1.714168731101     0.094142573429    -0.029173629755
    H           -1.014906311306    -0.363395607378     1.481555272743
    H           -1.517512116915    -2.278161054416    -0.848266158620
    H           -2.440664995785    -2.201966298113     0.642557950764
    H           -0.770064846051    -2.736025904325     0.671770069164

  Mulliken Charges: (a.u.)
   Center  Symbol    Alpha    Beta     Spin     Total
       1     H     0.43214  0.43214  0.00000  0.13571
       2     C     2.83236  2.83236  0.00000  0.33528
       3     C     3.20707  3.20707  0.00000 -0.41414
       4     O     4.23639  4.23639  0.00000 -0.47278
       5     C     3.16599  3.16599  0.00000 -0.33199
       6     H     0.39796  0.39796  0.00000  0.20407
       7     H     0.40900  0.40900  0.00000  0.18200
       8     C     3.23981  3.23981  0.00000 -0.47962
       9     H     0.41751  0.41751  0.00000  0.16498
      10     H     0.41022  0.41022  0.00000  0.17956
      11     H     0.41953  0.41953  0.00000  0.16095
      12     H     0.41501  0.41501  0.00000  0.16998
      13     H     0.41700  0.41700  0.00000  0.16600

   Total alpha = 20.00000, Total beta = 20.00000, Total charge = -0.00000
