  ==> Input File <==

--------------------------------------------------------------------------
set {
	reference rhf
	basis cc-pvtz
}

set_num_threads( 4 )
memory 2 gb

molecule MOL {
0 1

H	 2.444424	 -0.671388	 -0.180783
C	 1.726677	 0.130716	 -0.216863
O	 0.462329	 -0.453336	 -0.000137
H	 1.774656	 0.607462	 -1.187754
H	 1.960490	 0.852187	 0.555827
C	 -0.590565	 0.341382	 0.000062
O	 -1.693898	 -0.053880	 0.000252
H	 -0.340426	 1.403822	 0.000200

	symmetry c1
}
set optking {
	frozen_dihedral = ("
		2 3 6 7
	")
}

ee = optimize('scf')
oeprop('DIPOLE', 'QUADRUPOLE', 'MULLIKEN_CHARGES')
f=open( 'psi4out.xyz', 'w' )
f.write( "8  " )
f.write( str(ee) + "\n" )
f.write( MOL.save_string_xyz() )
f.close()
--------------------------------------------------------------------------

    Molecular point group: c1
  Charge       = 0
  Multiplicity = 1
  Basis Set: CC-PVTZ
  Basis Set:
  @DF-RHF Final Energy:  -227.86982865923329
    Total Energy =                       -227.8698286592333488
    Molecular point group: c1
  Basis Set: CC-PVTZ
  Basis Set:
  Basis Set: CC-PVTZ
  Basis Set:
  @DF-RHF Final Energy:  -227.86984170754337
    Total Energy =                       -227.8698417075434293
  Basis Set: CC-PVTZ
  Basis Set:
  Basis Set: CC-PVTZ
  Basis Set:
  @DF-RHF Final Energy:  -227.86989566753084
    Total Energy =                       -227.8698956675305567
  Basis Set: CC-PVTZ
  Basis Set:
  Basis Set: CC-PVTZ
  Basis Set:
  @DF-RHF Final Energy:  -227.86990884552046
    Total Energy =                       -227.8699088455205697
  Basis Set: CC-PVTZ
  Basis Set:
  Basis Set: CC-PVTZ
  Basis Set:
  @DF-RHF Final Energy:  -227.86991023650086
    Total Energy =                       -227.8699102365008571
  Basis Set: CC-PVTZ
  Basis Set:
  Charge       = 0
  Multiplicity = 1
  Basis Set: CC-PVTZ
  Basis Set:

    Orbital Energies (a.u.)
    -----------------------

    Doubly Occupied:

       1A    -20.610038     2A    -20.547003     3A    -11.374401
       4A    -11.302201     5A     -1.480094     6A     -1.386222
       7A     -0.994352     8A     -0.849845     9A     -0.740705
      10A     -0.689194    11A     -0.685323    12A     -0.607840
      13A     -0.574132    14A     -0.542648    15A     -0.465802
      16A     -0.457369

  @DF-RHF Final Energy:  -227.86991036966432

   => Energetics <=

    Nuclear Repulsion Energy =            121.5077003382662895
    One-Electron Energy =                -552.1408832875861208
    Two-Electron Energy =                 202.7632725796555064
    DFT Exchange-Correlation Energy =       0.0000000000000000
    Empirical Dispersion Energy =           0.0000000000000000
    PCM Polarization Energy =               0.0000000000000000
    EFP Energy =                            0.0000000000000000
    Total Energy =                       -227.8699103696642965
    Molecular point group: c1
  Basis Set: CC-PVTZ
  Basis Set:

  -Total Gradient:
     Atom            X                  Y                   Z
    ------   -----------------  -----------------  -----------------
       1        0.000002758136    -0.000001227892     0.000003063399
       2       -0.000114743282     0.000012304512    -0.001114228610
       3        0.000231982119     0.000093587445     0.000985277929
       4       -0.000019664949    -0.000005638507    -0.000000842906
       5        0.000002505651    -0.000005170840    -0.000005508539
       6       -0.000125194578    -0.000309086037     0.001571986921
       7        0.000010744123     0.000226206006    -0.001433641518
       8        0.000011612779    -0.000010974686    -0.000006106678

  **** Optimization is complete! (in 6 steps) ****
    Final optimized geometry and variables:
    Molecular point group: c1

    Geometry (in Angstrom), charge = 0, multiplicity = 1:

    H            2.454487000313    -0.650791314307     0.010323248881
    C            1.731842455994     0.130308163779    -0.157021263023
    O            0.459365694783    -0.456627574393    -0.013466878019
    H            1.858888017676     0.527870955897    -1.155554453452
    H            1.886884108612     0.917711040754     0.570406752756
    C           -0.583298096143     0.342249475686     0.112122600199
    O           -1.691671310509    -0.035551630023     0.066703236984
    H           -0.318195671244     1.389787601106     0.264525488745

  Mulliken Charges: (a.u.)
   Center  Symbol    Alpha    Beta     Spin     Total
       1     H     0.44022  0.44022  0.00000  0.11956
       2     C     3.03107  3.03107  0.00000 -0.06214
       3     O     4.12119  4.12119  0.00000 -0.24239
       4     H     0.45615  0.45615  0.00000  0.08770
       5     H     0.46334  0.46334  0.00000  0.07332
       6     C     2.83603  2.83603  0.00000  0.32795
       7     O     4.17432  4.17432  0.00000 -0.34863
       8     H     0.47768  0.47768  0.00000  0.04464

   Total alpha = 16.00000, Total beta = 16.00000, Total charge = -0.00000
