  ==> Input File <==

--------------------------------------------------------------------------
set {
	reference rhf
	basis 6-31G*
}

set_num_threads( 4 )
memory 2 gb

molecule MOL {
0 1

H	 -2.224519	 -0.067785	 2.554439
C	 -1.953753	 -1.120146	 2.612425
O	 -0.772315	 -1.380270	 1.925492
H	 -1.793222	 -1.383682	 3.648726
H	 -2.781842	 -1.711363	 2.223634
C	 -0.829279	 -1.093231	 0.564017
C	 0.534113	 -1.309904	 -0.049515
H	 -1.552054	 -1.744040	 0.070317
H	 -1.137459	 -0.062923	 0.398203
O	 1.392611	 -0.295398	 0.366430
H	 0.912140	 -2.284710	 0.251908
H	 0.442800	 -1.306009	 -1.136410
C	 2.706965	 -0.449871	 -0.062409
H	 2.756559	 -0.644779	 -1.131878
H	 3.305899	 0.433456	 0.155466
H	 3.125548	 -1.294566	 0.467107

	symmetry c1
}
set optking {
	frozen_dihedral = ("
		7 10 13 14
	")
}

ee = optimize('scf')
oeprop('DIPOLE', 'QUADRUPOLE', 'MULLIKEN_CHARGES')
f=open( 'psi4out.xyz', 'w' )
f.write( "16  " )
f.write( str(ee) + "\n" )
f.write( MOL.save_string_xyz() )
f.close()
--------------------------------------------------------------------------

    Molecular point group: c1
  Charge       = 0
  Multiplicity = 1
  Basis Set: 6-31G*
  Basis Set:
  @DF-RHF Final Energy:  -306.97632284855871
    Total Energy =                       -306.9763228485587661
    Molecular point group: c1
  Basis Set: 6-31G*
  Basis Set:
  Basis Set: 6-31G*
  Basis Set:
  @DF-RHF Final Energy:  -306.97719774565871
    Total Energy =                       -306.9771977456586001
  Basis Set: 6-31G*
  Basis Set:
  Basis Set: 6-31G*
  Basis Set:
  @DF-RHF Final Energy:  -306.97744664565693
    Total Energy =                       -306.9774466456567552
  Basis Set: 6-31G*
  Basis Set:
  Charge       = 0
  Multiplicity = 1
  Basis Set: 6-31G*
  Basis Set:

    Orbital Energies (a.u.)
    -----------------------

    Doubly Occupied:

       1A    -20.553568     2A    -20.553241     3A    -11.269071
       4A    -11.268404     5A    -11.263526     6A    -11.263514
       7A     -1.388127     8A     -1.370505     9A     -1.030788
      10A     -0.935995    11A     -0.891999    12A     -0.824091
      13A     -0.684019    14A     -0.680436    15A     -0.657062
      16A     -0.635116    17A     -0.629958    18A     -0.597222
      19A     -0.550220    20A     -0.536048    21A     -0.508964
      22A     -0.477791    23A     -0.462710    24A     -0.419311
      25A     -0.410276

  @DF-RHF Final Energy:  -306.97744798147494

   => Energetics <=

    Nuclear Repulsion Energy =            258.8307821924382779
    One-Electron Energy =                -931.8925329746971329
    Two-Electron Energy =                 366.0843028007840303
    DFT Exchange-Correlation Energy =       0.0000000000000000
    Empirical Dispersion Energy =           0.0000000000000000
    PCM Polarization Energy =               0.0000000000000000
    EFP Energy =                            0.0000000000000000
    Total Energy =                       -306.9774479814748247
    Molecular point group: c1
  Basis Set: 6-31G*
  Basis Set:

  -Total Gradient:
     Atom            X                  Y                   Z
    ------   -----------------  -----------------  -----------------
       1        0.000002374449    -0.000000013786    -0.000002747934
       2        0.000005946722    -0.000007124844     0.000014002696
       3       -0.000020452716    -0.000019668487     0.000023549825
       4       -0.000004745883     0.000000284327     0.000001495593
       5       -0.000002443127    -0.000000535966    -0.000000022756
       6        0.000097921993     0.000121787607     0.000056452235
       7       -0.000212223449     0.000575459293    -0.001194072675
       8        0.000074874140    -0.000001921317    -0.000020279055
       9       -0.000029789162     0.000021799538    -0.000015099080
      10        0.000358510626    -0.001372173507     0.001599842440
      11        0.000026937412     0.000025802351     0.000021721768
      12       -0.000007499379    -0.000009742577    -0.000012788599
      13        0.000013462843     0.002220390365    -0.000804769425
      14       -0.000177719548    -0.001564918402     0.000282020958
      15       -0.000080943229     0.000022103929     0.000024472124
      16       -0.000044211690    -0.000011528524     0.000026221885

  **** Optimization is complete! (in 4 steps) ****
    Final optimized geometry and variables:
    Molecular point group: c1

    Geometry (in Angstrom), charge = 0, multiplicity = 1:

    H           -2.402080608931     0.878755644988     1.659162105013
    C           -2.137660077057    -0.175438469150     1.712992646360
    O           -0.957766756872    -0.440092277639     1.025016211089
    H           -1.979009860697    -0.444118677489     2.748250094048
    H           -2.969037552645    -0.760039545513     1.321386502547
    C           -1.012818563768    -0.147487578317    -0.335425289932
    C            0.349000144571    -0.370108774044    -0.950052259542
    H           -1.739526177526    -0.791847157800    -0.831722570715
    H           -1.314599638495     0.885343817986    -0.497263264536
    O            1.212413206691     0.639375016900    -0.531919939584
    H            0.721055437261    -1.348044608185    -0.651057029547
    H            0.258549026121    -0.362325969122    -2.036776134355
    C            2.527047838207     0.478796844999    -0.959125004535
    H            2.579786112837     0.284634608000    -2.029259195600
    H            3.059600447719     1.393039591538    -0.736820618652
    H            3.011437694270    -0.347264508518    -0.441907451205

  Mulliken Charges: (a.u.)
   Center  Symbol    Alpha    Beta     Spin     Total
       1     H     0.42807  0.42807  0.00000  0.14387
       2     C     3.07950  3.07950  0.00000 -0.15900
       3     O     4.30092  4.30092  0.00000 -0.60185
       4     H     0.41128  0.41128  0.00000  0.17743
       5     H     0.43188  0.43188  0.00000  0.13624
       6     C     2.99332  2.99332  0.00000  0.01335
       7     C     2.99360  2.99360  0.00000  0.01280
       8     H     0.43231  0.43231  0.00000  0.13538
       9     H     0.42273  0.42273  0.00000  0.15454
      10     O     4.30119  4.30119  0.00000 -0.60237
      11     H     0.42290  0.42290  0.00000  0.15419
      12     H     0.43192  0.43192  0.00000  0.13616
      13     C     3.07916  3.07916  0.00000 -0.15833
      14     H     0.43253  0.43253  0.00000  0.13493
      15     H     0.41179  0.41179  0.00000  0.17642
      16     H     0.42688  0.42688  0.00000  0.14623

   Total alpha = 25.00000, Total beta = 25.00000, Total charge = -0.00000
