  ==> Input File <==

--------------------------------------------------------------------------
set {
	reference rhf
	basis 6-31G*
}

set_num_threads( 1 )
memory 2 gb

molecule MOL {
0 1

O	 -2.042549	 -1.228399	 -0.269030
C	 -1.653912	 -0.146171	 0.050137
C	 -0.332303	 0.024011	 0.778412
C	 -2.438579	 1.106236	 -0.272369
C	 -0.535221	 -0.016700	 2.301251
H	 0.370460	 -0.748250	 0.478215
H	 0.079153	 0.985841	 0.492914
C	 0.769164	 0.181960	 3.074650
H	 -0.980514	 -0.967832	 2.587858
H	 -1.247232	 0.755638	 2.576344
C	 0.568952	 0.150880	 4.589298
H	 1.480792	 -0.589161	 2.787626
H	 1.213988	 1.131902	 2.787754
H	 0.156309	 -0.800938	 4.911509
H	 -0.113377	 0.932486	 4.910176
H	 1.509187	 0.297212	 5.111381
H	 -3.277823	 0.863061	 -0.908988
H	 -1.806773	 1.843019	 -0.759671
H	 -2.802853	 1.554979	 0.648059

	symmetry c1
}
set optking {
	frozen_dihedral = ("
		11 8 5 9,
		9 5 3 2
	")
}

ee = energy('scf')
oeprop('DIPOLE', 'QUADRUPOLE', 'MULLIKEN_CHARGES')
f=open( 'psi4out.xyz', 'w' )
f.write( "19  " )
f.write( str(ee) + "\n" )
f.write( MOL.save_string_xyz() )
f.close()
--------------------------------------------------------------------------

    Molecular point group: c1

    Geometry (in Angstrom), charge = 0, multiplicity = 1:

       Center              X                  Y                   Z               Mass
    ------------   -----------------  -----------------  -----------------  -----------------
           O         -1.227330344190    -1.240923432009    -1.745489835149    15.994914619560
           C         -0.838693344190    -0.158695432009    -1.426322835149    12.000000000000
           C          0.482915655810     0.011486567991    -0.698047835149    12.000000000000
           C         -1.623360344190     1.093711567991    -1.748828835149    12.000000000000
           C          0.279997655810    -0.029224432009     0.824791164851    12.000000000000
           H          1.185678655810    -0.760774432009    -0.998244835149     1.007825032070
           H          0.894371655810     0.973316567991    -0.983545835149     1.007825032070
           C          1.584382655810     0.169435567991     1.598190164851    12.000000000000
           H         -0.165295344190    -0.980356432009     1.111398164851     1.007825032070
           H         -0.432013344190     0.743113567991     1.099884164851     1.007825032070
           C          1.384170655810     0.138355567991     3.112838164851    12.000000000000
           H          2.296010655810    -0.601685432009     1.311166164851     1.007825032070
           H          2.029206655810     1.119377567991     1.311294164851     1.007825032070
           H          0.971527655810    -0.813462432009     3.435049164851     1.007825032070
           H          0.701841655810     0.919961567991     3.433716164851     1.007825032070
           H          2.324405655810     0.284687567991     3.634921164851     1.007825032070
           H         -2.462604344190     0.850536567991    -2.385447835149     1.007825032070
           H         -0.991554344190     1.830494567991    -2.236130835149     1.007825032070
           H         -1.987634344190     1.542454567991    -0.828400835149     1.007825032070

  Charge       = 0
  Multiplicity = 1
  Basis Set: 6-31G*
  Basis Set:

    Orbital Energies (a.u.)
    -----------------------

    Doubly Occupied:

       1A    -20.547012     2A    -11.324012     3A    -11.231598
       4A    -11.229317     5A    -11.228781     6A    -11.225540
       7A    -11.215562     8A     -1.392551     9A     -1.092553
      10A     -1.030091    11A     -0.983559    12A     -0.890538
      13A     -0.807708    14A     -0.733545    15A     -0.663433
      16A     -0.645655    17A     -0.623126    18A     -0.613711
      19A     -0.582187    20A     -0.573017    21A     -0.553937
      22A     -0.538009    23A     -0.511479    24A     -0.501811
      25A     -0.483671    26A     -0.476877    27A     -0.466868
      28A     -0.396146

  @DF-RHF Final Energy:  -309.06398887808098

   => Energetics <=

    Nuclear Repulsion Energy =            301.2561154336767686
    One-Electron Energy =               -1015.5155637354480405
    Two-Electron Energy =                 405.1954594236910339
    DFT Exchange-Correlation Energy =       0.0000000000000000
    Empirical Dispersion Energy =           0.0000000000000000
    PCM Polarization Energy =               0.0000000000000000
    EFP Energy =                            0.0000000000000000
    Total Energy =                       -309.0639888780802380

  Mulliken Charges: (a.u.)
   Center  Symbol    Alpha    Beta     Spin     Total
       1     O     4.26095  4.26095  0.00000 -0.52190
       2     C     2.73919  2.73919  0.00000  0.52163
       3     C     3.19788  3.19788  0.00000 -0.39576
       4     C     3.28962  3.28962  0.00000 -0.57924
       5     C     3.16203  3.16203  0.00000 -0.32407
       6     H     0.39996  0.39996  0.00000  0.20009
       7     H     0.41832  0.41832  0.00000  0.16335
       8     C     3.15161  3.15161  0.00000 -0.30322
       9     H     0.40846  0.40846  0.00000  0.18307
      10     H     0.42098  0.42098  0.00000  0.15805
      11     C     3.24035  3.24035  0.00000 -0.48069
      12     H     0.41897  0.41897  0.00000  0.16207
      13     H     0.42209  0.42209  0.00000  0.15581
      14     H     0.41908  0.41908  0.00000  0.16185
      15     H     0.42114  0.42114  0.00000  0.15771
      16     H     0.41726  0.41726  0.00000  0.16548
      17     H     0.39587  0.39587  0.00000  0.20826
      18     H     0.40944  0.40944  0.00000  0.18111
      19     H     0.40680  0.40680  0.00000  0.18640

   Total alpha = 28.00000, Total beta = 28.00000, Total charge =  0.00000
