  ==> Input File <==

--------------------------------------------------------------------------
set {
	reference rhf
	basis cc-pvtz
}

set_num_threads( 4 )
memory 2 gb

molecule MOL {
0 1

H	 -4.183000	 -0.785000	 -0.000000
O	 -3.802000	 0.081000	 -0.000000
C	 -2.454000	 0.014000	 -0.000000
C	 -1.754000	 1.214000	 0.000000
C	 -1.765000	 -1.188000	 0.000000
H	 -2.300000	 2.138000	 -0.000000
C	 -0.373000	 1.205000	 0.000000
H	 -2.302000	 -2.121000	 0.000000
C	 -0.379000	 -1.194000	 -0.000000
H	 0.170000	 2.131000	 -0.000000
C	 0.311000	 0.000000	 -0.000000
H	 0.153000	 -2.126000	 -0.000000
Br	 2.210000	 -0.006000	 0.000000

	symmetry c1
}
ee = optimize('scf')
oeprop('DIPOLE', 'QUADRUPOLE', 'MULLIKEN_CHARGES')
f=open( 'psi4out.xyz', 'w' )
f.write( "13  " )
f.write( str(ee) + "\n" )
f.write( MOL.save_string_xyz() )
f.close()
--------------------------------------------------------------------------

    Molecular point group: c1
  Charge       = 0
  Multiplicity = 1
  Basis Set: CC-PVTZ
  Basis Set:
  @DF-RHF Final Energy: -2877.54689884942945
    Total Energy =                      -2877.5468988494303630
    Molecular point group: c1
  Basis Set: CC-PVTZ
  Basis Set:
  Basis Set: CC-PVTZ
  Basis Set:
  @DF-RHF Final Energy: -2877.54704069290619
    Total Energy =                      -2877.5470406929043747
  Basis Set: CC-PVTZ
  Basis Set:
  Charge       = 0
  Multiplicity = 1
  Basis Set: CC-PVTZ
  Basis Set:

    Orbital Energies (a.u.)
    -----------------------

    Doubly Occupied:

       1A   -490.018352     2A    -65.158671     3A    -58.513897
       4A    -58.512529     5A    -58.512526     6A    -20.597055
       7A    -11.312209     8A    -11.287564     9A    -11.254089
      10A    -11.252331    11A    -11.242803    12A    -11.237389
      13A     -9.832463    14A     -7.444082    15A     -7.437335
      16A     -7.437261    17A     -3.187771    18A     -3.184214
      19A     -3.184122    20A     -3.175468    21A     -3.175464
      22A     -1.428623    23A     -1.179873    24A     -1.066690
      25A     -1.042266    26A     -0.970513    27A     -0.870166
      28A     -0.828201    29A     -0.758469    30A     -0.690147
      31A     -0.653954    32A     -0.626038    33A     -0.610298
      34A     -0.609189    35A     -0.582388    36A     -0.521870
      37A     -0.514699    38A     -0.501389    39A     -0.427668
      40A     -0.413539    41A     -0.360484    42A     -0.317134

  @DF-RHF Final Energy: -2877.54704404944141

   => Energetics <=

    Nuclear Repulsion Energy =            525.5149791327562525
    One-Electron Energy =               -5042.2616658863944394
    Two-Electron Energy =                1639.1996427041963216
    DFT Exchange-Correlation Energy =       0.0000000000000000
    Empirical Dispersion Energy =           0.0000000000000000
    PCM Polarization Energy =               0.0000000000000000
    EFP Energy =                            0.0000000000000000
    Total Energy =                      -2877.5470440494423201
    Molecular point group: c1
  Basis Set: CC-PVTZ
  Basis Set:

  -Total Gradient:
     Atom            X                  Y                   Z
    ------   -----------------  -----------------  -----------------
       1       -0.000015163957     0.000061015445     0.000000000000
       2       -0.000214263587    -0.000084917774     0.000000000000
       3        0.000263677013    -0.000030100369    -0.000000000000
       4        0.000064390739     0.000050937865    -0.000000000000
       5       -0.000068930599     0.000013397676    -0.000000000000
       6       -0.000013166663    -0.000028501035     0.000000000000
       7       -0.000053612944     0.000062998785     0.000000000000
       8        0.000005067571     0.000016172508     0.000000000000
       9        0.000035425642    -0.000006096372     0.000000000000
      10        0.000015069449    -0.000016306477     0.000000000000
      11       -0.000112053742    -0.000050953500    -0.000000000000
      12        0.000011967091     0.000012249108     0.000000000000
      13        0.000081593003     0.000000104153     0.000000000000

  **** Optimization is complete! (in 3 steps) ****
    Final optimized geometry and variables:
    Molecular point group: c1

    Geometry (in Angstrom), charge = 0, multiplicity = 1:

    H           -4.340537289298    -0.784487569551     0.000000000001
    O           -3.958786488172     0.074639643922    -0.000000000000
    C           -2.613554290409     0.009899829751    -0.000000000001
    C           -1.914415763674     1.205466440096    -0.000000000001
    C           -1.925891972013    -1.188435382747    -0.000000000001
    H           -2.458132640313     2.129172875157    -0.000000000001
    C           -0.537232136923     1.197571821027    -0.000000000001
    H           -2.461311324430    -2.120042983100    -0.000000000001
    C           -0.542895838086    -1.194581946719    -0.000000000001
    H            0.001795661019     2.123432042760     0.000000000000
    C            0.145800601580    -0.003712056581    -0.000000000001
    H           -0.013882903983    -2.126166317338    -0.000000000001
    BR           2.044180774136    -0.009176303884     0.000000000001

  Mulliken Charges: (a.u.)
   Center  Symbol    Alpha    Beta     Spin     Total
       1     H     0.38657  0.38657  0.00000  0.22686
       2     O     4.17042  4.17042  0.00000 -0.34083
       3     C     2.85781  2.85781  0.00000  0.28437
       4     C     3.09367  3.09367  0.00000 -0.18735
       5     C     3.11923  3.11923  0.00000 -0.23845
       6     H     0.41603  0.41603  0.00000  0.16794
       7     C     3.07663  3.07663  0.00000 -0.15325
       8     H     0.43094  0.43094  0.00000  0.13813
       9     C     3.08425  3.08425  0.00000 -0.16850
      10     H     0.41065  0.41065  0.00000  0.17870
      11     C     2.97618  2.97618  0.00000  0.04763
      12     H     0.41056  0.41056  0.00000  0.17889
      13    BR    17.56706 17.56706  0.00000 -0.13412

   Total alpha = 42.00000, Total beta = 42.00000, Total charge = -0.00000
