  ==> Input File <==

--------------------------------------------------------------------------
set {
	reference rhf
	basis 6-31G*
}

set_num_threads( 4 )
memory 2 gb

molecule MOL {
0 1

O	 3.225979	 0.970355	 -0.599647
C	 2.701189	 0.057885	 -0.047330
C	 1.245376	 -0.013843	 0.345420
O	 3.347903	 -1.046386	 0.304773
C	 0.455112	 1.231400	 -0.050772
H	 0.838542	 -0.913825	 -0.103701
H	 1.208210	 -0.175333	 1.419774
C	 -0.998893	 1.219485	 0.433193
H	 0.482531	 1.345121	 -1.130325
H	 0.957290	 2.103070	 0.354729
C	 -1.174248	 1.305787	 1.952045
H	 -1.463381	 0.301163	 0.081537
H	 -1.545265	 2.033959	 -0.040220
C	 -2.634670	 1.179486	 2.390469
H	 -0.587648	 0.519674	 2.425065
H	 -0.776876	 2.248175	 2.322143
C	 -2.822512	 1.269543	 3.905968
H	 -3.036308	 0.232045	 2.035117
H	 -3.223745	 1.958749	 1.909387
C	 -4.283288	 1.138671	 4.335743
H	 -2.233742	 0.492169	 4.388337
H	 -2.425585	 2.217780	 4.262447
H	 -4.383935	 1.206509	 5.414573
H	 -4.699639	 0.184858	 4.024152
H	 -4.892972	 1.923431	 3.896753
C	 4.728119	 -1.109107	 -0.004993
H	 4.882018	 -1.033965	 -1.071845
H	 5.068212	 -2.067527	 0.355250
H	 5.265056	 -0.311663	 0.488280

	symmetry c1
}
set optking {
	frozen_dihedral = ("
		11 8 5 9
	")
}

ee = optimize('scf')
oeprop('DIPOLE', 'QUADRUPOLE', 'MULLIKEN_CHARGES')
f=open( 'psi4out.xyz', 'w' )
f.write( "29  " )
f.write( str(ee) + "\n" )
f.write( MOL.save_string_xyz() )
f.close()
--------------------------------------------------------------------------

    Molecular point group: c1
  Charge       = 0
  Multiplicity = 1
  Basis Set: 6-31G*
  Basis Set:
  @DF-RHF Final Energy:  -501.04330973899357
    Total Energy =                       -501.0433097389941395
    Molecular point group: c1
  Basis Set: 6-31G*
  Basis Set:
  Basis Set: 6-31G*
  Basis Set:
  @DF-RHF Final Energy:  -501.04394382253031
    Total Energy =                       -501.0439438225303093
  Basis Set: 6-31G*
  Basis Set:
  Basis Set: 6-31G*
  Basis Set:
  @DF-RHF Final Energy:  -501.04399832688796
    Total Energy =                       -501.0439983268886408
  Basis Set: 6-31G*
  Basis Set:
  Basis Set: 6-31G*
  Basis Set:
  @DF-RHF Final Energy:  -501.04378653646688
    Total Energy =                       -501.0437865364658592
  Basis Set: 6-31G*
  Basis Set:
  @DF-RHF Final Energy:  -501.04408726528527
    Total Energy =                       -501.0440872652858388
  Basis Set: 6-31G*
  Basis Set:
  @DF-RHF Final Energy:  -501.04409250637593
    Total Energy =                       -501.0440925063759323
  Basis Set: 6-31G*
  Basis Set:
  Basis Set: 6-31G*
  Basis Set:
  @DF-RHF Final Energy:  -501.04409480299228
    Total Energy =                       -501.0440948029921628
  Basis Set: 6-31G*
  Basis Set:
  Basis Set: 6-31G*
  Basis Set:
  @DF-RHF Final Energy:  -501.04409592569482
    Total Energy =                       -501.0440959256948190
  Basis Set: 6-31G*
  Basis Set:
  Charge       = 0
  Multiplicity = 1
  Basis Set: 6-31G*
  Basis Set:

    Orbital Energies (a.u.)
    -----------------------

    Doubly Occupied:

       1A    -20.603380     2A    -20.545197     3A    -11.372013
       4A    -11.280668     5A    -11.234783     6A    -11.219072
       7A    -11.217624     8A    -11.215958     9A    -11.215820
      10A    -11.214420    11A    -11.209044    12A     -1.469071
      13A     -1.362515    14A     -1.098017    15A     -1.066821
      16A     -1.019539    17A     -0.977229    18A     -0.928519
      19A     -0.861374    20A     -0.799323    21A     -0.790473
      22A     -0.764054    23A     -0.700807    24A     -0.682281
      25A     -0.672221    26A     -0.650629    27A     -0.628696
      28A     -0.604746    29A     -0.595079    30A     -0.580934
      31A     -0.566995    32A     -0.548877    33A     -0.532205
      34A     -0.530420    35A     -0.515901    36A     -0.511484
      37A     -0.496552    38A     -0.477725    39A     -0.470300
      40A     -0.462500    41A     -0.458765    42A     -0.455831
      43A     -0.441230    44A     -0.435222

  @DF-RHF Final Energy:  -501.04409605212595

   => Energetics <=

    Nuclear Repulsion Energy =            610.0173193511218415
    One-Electron Energy =               -1891.1541940146353227
    Two-Electron Energy =                 780.0927786113878710
    DFT Exchange-Correlation Energy =       0.0000000000000000
    Empirical Dispersion Energy =           0.0000000000000000
    PCM Polarization Energy =               0.0000000000000000
    EFP Energy =                            0.0000000000000000
    Total Energy =                       -501.0440960521256102
    Molecular point group: c1
  Basis Set: 6-31G*
  Basis Set:

  -Total Gradient:
     Atom            X                  Y                   Z
    ------   -----------------  -----------------  -----------------
       1        0.000006198049     0.000012331061     0.000013722119
       2       -0.000014599654    -0.000012973040    -0.000022641556
       3       -0.000008144935    -0.000006231345    -0.000008112796
       4        0.000002790561    -0.000003633699    -0.000002634732
       5        0.000021095667    -0.000360738492    -0.000032548113
       6       -0.000005091160     0.000005991041     0.000014961287
       7        0.000009391047     0.000007509876     0.000008950973
       8        0.000026839628    -0.000379035952     0.000023430026
       9       -0.000013851693     0.000426052068     0.000029047616
      10       -0.000001882891    -0.000012763480    -0.000005965068
      11       -0.000022112897     0.000311161336    -0.000022850826
      12       -0.000010745013    -0.000004389865    -0.000004976216
      13        0.000008690801     0.000001140211     0.000007146136
      14        0.000000004834    -0.000006480627    -0.000002874216
      15       -0.000001377669    -0.000001719094     0.000004221245
      16        0.000002042481     0.000005518859     0.000000423891
      17        0.000002119245     0.000019938446    -0.000001164456
      18       -0.000007144595     0.000001034651    -0.000007147022
      19        0.000006613294     0.000004506032     0.000004963261
      20        0.000000440552    -0.000015839148     0.000002811325
      21        0.000003828528     0.000003802704     0.000000046060
      22       -0.000003890090     0.000006443340     0.000001276631
      23        0.000000472132    -0.000005775766     0.000000146390
      24       -0.000005416270    -0.000000897194    -0.000003959766
      25        0.000004030302     0.000003053664     0.000002184031
      26       -0.000000192901     0.000001209128    -0.000000128482
      27       -0.000000111952     0.000000009875     0.000000368665
      28       -0.000000446642     0.000000086089     0.000000783803
      29        0.000000451235     0.000000689323     0.000000519797

  **** Optimization is complete! (in 9 steps) ****
    Final optimized geometry and variables:
    Molecular point group: c1

    Geometry (in Angstrom), charge = 0, multiplicity = 1:

    O            2.806014507727     0.404027026261    -1.903208065096
    C            2.350276851564    -0.477952857933    -1.249386124130
    C            0.935867482040    -0.545454777350    -0.726387815695
    O            3.048007739632    -1.546614897999    -0.885041539665
    C            0.092297120281     0.665240211495    -1.119208614817
    H            0.496246562615    -1.466481470529    -1.100407932962
    H            1.000102086444    -0.663797585481     0.350345087411
    C           -1.370461428381     0.568305439568    -0.672113618640
    H            0.128876248405     0.779704253415    -2.197216405587
    H            0.542633094535     1.564258264823    -0.709313066016
    C           -1.586379856929     0.644725894918     0.842055875599
    H           -1.807761970034    -0.352660010584    -1.054906895746
    H           -1.921048477750     1.380420568121    -1.141198012263
    C           -3.065455855920     0.640703406910     1.233537430929
    H           -1.090526331730    -0.188981619609     1.334262595669
    H           -1.115672276973     1.549117919277     1.224284460686
    C           -3.292710782765     0.714588464936     2.744508424368
    H           -3.538802554236    -0.259005170699     0.843473831154
    H           -3.566733277723     1.479873010482     0.754186347004
    C           -4.772360495083     0.710416129120     3.127048127750
    H           -2.793912287035    -0.124398318315     3.225217115537
    H           -2.821675007322     1.613873703630     3.135719582492
    H           -4.900837473177     0.762520498587     4.203798286559
    H           -5.264911267297    -0.193049936782     2.778584833799
    H           -5.292480015933     1.558448796469     2.690571581958
    C            4.396552888064    -1.609735361957    -1.312055083913
    H            4.454323473975    -1.603507853232    -2.391014892061
    H            4.786504399853    -2.537026387247    -0.922103637415
    H            4.958450572311    -0.773516211945    -0.921506282344

  Mulliken Charges: (a.u.)
   Center  Symbol    Alpha    Beta     Spin     Total
       1     O     4.28597  4.28597  0.00000 -0.57193
       2     C     2.60486  2.60486  0.00000  0.79027
       3     C     3.20948  3.20948  0.00000 -0.41895
       4     O     4.30747  4.30747  0.00000 -0.61494
       5     C     3.15399  3.15399  0.00000 -0.30799
       6     H     0.40119  0.40119  0.00000  0.19762
       7     H     0.39889  0.39889  0.00000  0.20223
       8     C     3.15679  3.15679  0.00000 -0.31358
       9     H     0.40894  0.40894  0.00000  0.18212
      10     H     0.41283  0.41283  0.00000  0.17434
      11     C     3.15480  3.15480  0.00000 -0.30961
      12     H     0.42389  0.42389  0.00000  0.15222
      13     H     0.41822  0.41822  0.00000  0.16355
      14     C     3.15032  3.15032  0.00000 -0.30063
      15     H     0.42381  0.42381  0.00000  0.15237
      16     H     0.42244  0.42244  0.00000  0.15512
      17     C     3.15146  3.15146  0.00000 -0.30291
      18     H     0.42400  0.42400  0.00000  0.15200
      19     H     0.42334  0.42334  0.00000  0.15333
      20     C     3.23935  3.23935  0.00000 -0.47870
      21     H     0.42344  0.42344  0.00000  0.15312
      22     H     0.42277  0.42277  0.00000  0.15446
      23     H     0.41923  0.41923  0.00000  0.16154
      24     H     0.42184  0.42184  0.00000  0.15632
      25     H     0.42155  0.42155  0.00000  0.15690
      26     C     3.09241  3.09241  0.00000 -0.18482
      27     H     0.40911  0.40911  0.00000  0.18177
      28     H     0.40852  0.40852  0.00000  0.18297
      29     H     0.40909  0.40909  0.00000  0.18182

   Total alpha = 44.00000, Total beta = 44.00000, Total charge =  0.00000
