  ==> Input File <==

--------------------------------------------------------------------------
set {
	reference rhf
	basis cc-pvtz
}

set_num_threads( 4 )
memory 2 gb

molecule MOL {
0 1

O	 -1.278239	 1.034789	 -0.784693
C	 -1.204115	 0.062668	 -0.112312
C	 -2.386398	 -0.667698	 0.460323
O	 -0.068058	 -0.518372	 0.226882
H	 -2.382952	 -1.693172	 0.114333
H	 -3.296656	 -0.175702	 0.158400
H	 -2.312537	 -0.685191	 1.540100
C	 1.169086	 0.037484	 -0.230612
C	 2.234278	 -1.000145	 0.062311
C	 1.425792	 1.363807	 0.461902
H	 1.087964	 0.195181	 -1.295337
H	 2.011730	 -1.930471	 -0.444360
H	 3.200022	 -0.646932	 -0.278704
H	 2.297052	 -1.196464	 1.126010
H	 2.368166	 1.780231	 0.125713
H	 0.642735	 2.073591	 0.234577
H	 1.476389	 1.227866	 1.536260

	symmetry c1
}
set optking {
	frozen_dihedral = ("
		11 8 4 2
	")
}

ee = optimize('scf')
oeprop('DIPOLE', 'QUADRUPOLE', 'MULLIKEN_CHARGES')
f=open( 'psi4out.xyz', 'w' )
f.write( "17  " )
f.write( str(ee) + "\n" )
f.write( MOL.save_string_xyz() )
f.close()
--------------------------------------------------------------------------

    Molecular point group: c1
  Charge       = 0
  Multiplicity = 1
  Basis Set: CC-PVTZ
  Basis Set:
  @DF-RHF Final Energy:  -345.04216156733230
    Total Energy =                       -345.0421615673329256
    Molecular point group: c1
  Basis Set: CC-PVTZ
  Basis Set:
  Basis Set: CC-PVTZ
  Basis Set:
  @DF-RHF Final Energy:  -345.04257028885905
    Total Energy =                       -345.0425702888594515
  Basis Set: CC-PVTZ
  Basis Set:
  Basis Set: CC-PVTZ
  Basis Set:
  @DF-RHF Final Energy:  -345.04248256642427
    Total Energy =                       -345.0424825664242121
  Basis Set: CC-PVTZ
  Basis Set:
  Basis Set: CC-PVTZ
  Basis Set:
  @DF-RHF Final Energy:  -345.04269973721279
    Total Energy =                       -345.0426997372127857
  Basis Set: CC-PVTZ
  Basis Set:
  Basis Set: CC-PVTZ
  Basis Set:
  @DF-RHF Final Energy:  -345.04270246421646
    Total Energy =                       -345.0427024642167453
  Basis Set: CC-PVTZ
  Basis Set:
  Charge       = 0
  Multiplicity = 1
  Basis Set: CC-PVTZ
  Basis Set:

    Orbital Energies (a.u.)
    -----------------------

    Doubly Occupied:

       1A    -20.591433     2A    -20.531440     3A    -11.366575
       4A    -11.289582     5A    -11.230462     6A    -11.217377
       7A    -11.212767     8A     -1.468407     9A     -1.364553
      10A     -1.079735    11A     -1.005578    12A     -0.948137
      13A     -0.851337    14A     -0.763810    15A     -0.694593
      16A     -0.675863    17A     -0.661638    18A     -0.615528
      19A     -0.586650    20A     -0.578981    21A     -0.560364
      22A     -0.550126    23A     -0.539480    24A     -0.521047
      25A     -0.503734    26A     -0.483495    27A     -0.451581
      28A     -0.437899

  @DF-RHF Final Energy:  -345.04270287520319

   => Energetics <=

    Nuclear Repulsion Energy =            324.1735110742307597
    One-Electron Energy =               -1112.8680819723590503
    Two-Electron Energy =                 443.6518680229253278
    DFT Exchange-Correlation Energy =       0.0000000000000000
    Empirical Dispersion Energy =           0.0000000000000000
    PCM Polarization Energy =               0.0000000000000000
    EFP Energy =                            0.0000000000000000
    Total Energy =                       -345.0427028752029628
    Molecular point group: c1
  Basis Set: CC-PVTZ
  Basis Set:

  -Total Gradient:
     Atom            X                  Y                   Z
    ------   -----------------  -----------------  -----------------
       1        0.000021866414    -0.000015630413    -0.000009742410
       2        0.000081215738     0.001490205876     0.002174801600
       3        0.000001552567     0.000035090492     0.000050893594
       4        0.000104226803    -0.002802365473    -0.003248935105
       5       -0.000006152980    -0.000005414121    -0.000022378588
       6        0.000000063649    -0.000003937290    -0.000008246836
       7        0.000003641351    -0.000024695115    -0.000009687126
       8       -0.001298315320     0.003994027335     0.001549603737
       9       -0.000010698147     0.000006288262    -0.000004752304
      10        0.000025831573    -0.000017674711     0.000002151877
      11        0.001103729208    -0.002686573209    -0.000458076765
      12       -0.000003853702     0.000003179900    -0.000003491902
      13       -0.000001791631     0.000005195030    -0.000001250832
      14       -0.000005463315     0.000004989722    -0.000000542706
      15        0.000006505504     0.000013799685     0.000002308009
      16       -0.000016497948     0.000001686692    -0.000006379329
      17       -0.000005859761     0.000001827340    -0.000006274914

  **** Optimization is complete! (in 6 steps) ****
    Final optimized geometry and variables:
    Molecular point group: c1

    Geometry (in Angstrom), charge = 0, multiplicity = 1:

    O           -1.283227341197     0.932286604869    -0.873130175848
    C           -1.194525990552     0.000557321399    -0.147572562788
    C           -2.365510398819    -0.708475675317     0.473332558653
    O           -0.051102467592    -0.556165385098     0.206486144930
    H           -2.351919259061    -1.752184016948     0.187274791780
    H           -3.282783788497    -0.245245892924     0.148057851958
    H           -2.286578930109    -0.662613621973     1.551917635290
    C            1.184747357551     0.021551671198    -0.227555588224
    C            2.243003241763    -1.028789611237     0.052056290337
    C            1.461551195581     1.330456155689     0.489888306364
    H            1.117817031271     0.179796165126    -1.294788261216
    H            2.009887765498    -1.952050978133    -0.462525354913
    H            3.210387818416    -0.680648112696    -0.289175651124
    H            2.307493169187    -1.235851067381     1.113587668715
    H            2.420865516797     1.721847446877     0.172200362019
    H            0.704832615584     2.067681714866     0.269643568599
    H            1.499444966936     1.170510301936     1.561787404473

  Mulliken Charges: (a.u.)
   Center  Symbol    Alpha    Beta     Spin     Total
       1     O     4.19929  4.19929  0.00000 -0.39858
       2     C     2.80657  2.80657  0.00000  0.38686
       3     C     3.13840  3.13840  0.00000 -0.27681
       4     O     4.16241  4.16241  0.00000 -0.32482
       5     H     0.44552  0.44552  0.00000  0.10897
       6     H     0.43842  0.43842  0.00000  0.12317
       7     H     0.44659  0.44659  0.00000  0.10683
       8     C     2.92876  2.92876  0.00000  0.14249
       9     C     3.13885  3.13885  0.00000 -0.27771
      10     C     3.15898  3.15898  0.00000 -0.31796
      11     H     0.44531  0.44531  0.00000  0.10939
      12     H     0.44664  0.44664  0.00000  0.10672
      13     H     0.45450  0.45450  0.00000  0.09101
      14     H     0.45259  0.45259  0.00000  0.09482
      15     H     0.44938  0.44938  0.00000  0.10124
      16     H     0.43387  0.43387  0.00000  0.13225
      17     H     0.45393  0.45393  0.00000  0.09214

   Total alpha = 28.00000, Total beta = 28.00000, Total charge = -0.00000
