  ==> Input File <==

--------------------------------------------------------------------------
set {
	reference rhf
	basis cc-pvtz
}

set_num_threads( 4 )
memory 2 gb

molecule MOL {
0 1

H	 -3.565952	 0.490801	 0.134363
O	 -3.095600	 -0.309735	 -0.014854
C	 -1.769981	 -0.106225	 -0.004177
C	 -1.218049	 1.151422	 0.205898
C	 -0.952124	 -1.204427	 -0.212134
H	 -1.859076	 1.998603	 0.366512
C	 0.148085	 1.304296	 0.206934
H	 -1.398088	 -2.165423	 -0.372200
C	 0.413930	 -1.034413	 -0.208092
H	 0.586260	 2.269292	 0.367848
C	 0.981121	 0.213562	 0.000000
H	 1.049384	 -1.885718	 -0.369324
C	 2.447402	 0.371303	 0.000000
O	 3.227427	 -0.521847	 0.000000
H	 2.796538	 1.409525	 0.000000

	symmetry c1
}
set optking {
	frozen_dihedral = ("
		7 11 13 14
	")
}

ee = optimize('scf')
oeprop('DIPOLE', 'QUADRUPOLE', 'MULLIKEN_CHARGES')
f=open( 'psi4out.xyz', 'w' )
f.write( "15  " )
f.write( str(ee) + "\n" )
f.write( MOL.save_string_xyz() )
f.close()
--------------------------------------------------------------------------

    Molecular point group: c1
  Charge       = 0
  Multiplicity = 1
  Basis Set: CC-PVTZ
  Basis Set:
  @DF-RHF Final Energy:  -418.44186398783546
    Total Energy =                       -418.4418639878355179
    Molecular point group: c1
  Basis Set: CC-PVTZ
  Basis Set:
  Basis Set: CC-PVTZ
  Basis Set:
  @DF-RHF Final Energy:  -418.44183729008398
    Total Energy =                       -418.4418372900838676
  Basis Set: CC-PVTZ
  Basis Set:
  Basis Set: CC-PVTZ
  Basis Set:
  @DF-RHF Final Energy:  -418.44188264097488
    Total Energy =                       -418.4418826409744270
  Basis Set: CC-PVTZ
  Basis Set:
  Basis Set: CC-PVTZ
  Basis Set:
  @DF-RHF Final Energy:  -418.44220015265876
    Total Energy =                       -418.4422001526585291
  Basis Set: CC-PVTZ
  Basis Set:
  Basis Set: CC-PVTZ
  Basis Set:
  @DF-RHF Final Energy:  -418.44220666624460
    Total Energy =                       -418.4422066662446014
  Basis Set: CC-PVTZ
  Basis Set:
  Charge       = 0
  Multiplicity = 1
  Basis Set: CC-PVTZ
  Basis Set:

    Orbital Energies (a.u.)
    -----------------------

    Doubly Occupied:

       1A    -20.605052     2A    -20.545731     3A    -11.322731
       4A    -11.322675     5A    -11.260604     6A    -11.251937
       7A    -11.242417     8A    -11.237074     9A    -11.236277
      10A     -1.438255    11A     -1.401980    12A     -1.175229
      13A     -1.046702    14A     -1.040356    15A     -0.897400
      16A     -0.861790    17A     -0.806145    18A     -0.761667
      19A     -0.699259    20A     -0.691164    21A     -0.642798
      22A     -0.629270    23A     -0.615439    24A     -0.611738
      25A     -0.587783    26A     -0.561899    27A     -0.554671
      28A     -0.509355    29A     -0.490420    30A     -0.421500
      31A     -0.361971    32A     -0.331975

  @DF-RHF Final Energy:  -418.44220810469278

   => Energetics <=

    Nuclear Repulsion Energy =            402.3051437685653582
    One-Electron Energy =               -1367.1681762867162888
    Two-Electron Energy =                 546.4208244134581491
    DFT Exchange-Correlation Energy =       0.0000000000000000
    Empirical Dispersion Energy =           0.0000000000000000
    PCM Polarization Energy =               0.0000000000000000
    EFP Energy =                            0.0000000000000000
    Total Energy =                       -418.4422081046927815
    Molecular point group: c1
  Basis Set: CC-PVTZ
  Basis Set:

  -Total Gradient:
     Atom            X                  Y                   Z
    ------   -----------------  -----------------  -----------------
       1       -0.000001697188     0.000001475976    -0.000001387775
       2        0.000010454115    -0.000002133223     0.000009663297
       3        0.000005743573     0.000020363268    -0.000012729040
       4       -0.000025914200    -0.000007449393    -0.000036234058
       5        0.000020484440    -0.000005559031     0.000044862204
       6        0.000000427949    -0.000002070052    -0.000004369996
       7        0.000032877610    -0.000338561193     0.001830326859
       8       -0.000000234641    -0.000001361646     0.000001298526
       9       -0.000039752276     0.000047448777    -0.000086675791
      10       -0.000010208988    -0.000013506186    -0.000013354394
      11       -0.000007339003     0.000456629154    -0.001571521542
      12        0.000006130031    -0.000015579156     0.000021438135
      13        0.000059399320    -0.000110811055    -0.002347278341
      14       -0.000037181497    -0.000025673868     0.002191329946
      15       -0.000013189246    -0.000003212370    -0.000025368030

  **** Optimization is complete! (in 6 steps) ****
    Final optimized geometry and variables:
    Molecular point group: c1

    Geometry (in Angstrom), charge = 0, multiplicity = 1:

    H           -3.571281131746     0.514001203407     0.154357421601
    O           -3.098790312819    -0.284906465260     0.002314968336
    C           -1.774181367430    -0.076264188837     0.003984814184
    C           -1.221280925881     1.174531734311     0.207617378743
    C           -0.955767117170    -1.181797192493    -0.209310612054
    H           -1.855019560508     2.025463316190     0.375737035233
    C            0.152914528856     1.317243248681     0.192323463033
    H           -1.409584716082    -2.140444341144    -0.362969326139
    C            0.405233670155    -1.024684888949    -0.214207122986
    H            0.581300029053     2.290142807613     0.348559888497
    C            0.978321180631     0.230594268016    -0.020059532913
    H            1.048109550383    -1.868745520388    -0.367745678341
    C            2.443405080947     0.399633638212     0.009388751022
    O            3.229990764517    -0.487181303438     0.007600551000
    H            2.783157746355     1.440290930463     0.055028872849

  Mulliken Charges: (a.u.)
   Center  Symbol    Alpha    Beta     Spin     Total
       1     H     0.38570  0.38570  0.00000  0.22859
       2     O     4.16577  4.16577  0.00000 -0.33153
       3     C     2.84365  2.84365  0.00000  0.31270
       4     C     3.13486  3.13486  0.00000 -0.26973
       5     C     3.10674  3.10674  0.00000 -0.21348
       6     H     0.43231  0.43231  0.00000  0.13539
       7     C     3.07417  3.07417  0.00000 -0.14834
       8     H     0.41550  0.41550  0.00000  0.16899
       9     C     3.06020  3.06020  0.00000 -0.12040
      10     H     0.42126  0.42126  0.00000  0.15748
      11     C     3.00120  3.00120  0.00000 -0.00240
      12     H     0.40762  0.40762  0.00000  0.18477
      13     C     2.91228  2.91228  0.00000  0.17544
      14     O     4.17765  4.17765  0.00000 -0.35530
      15     H     0.46109  0.46109  0.00000  0.07781

   Total alpha = 32.00000, Total beta = 32.00000, Total charge = -0.00000
