                              Psi4 1.0.54 Driver

  ==> Input File <==

--------------------------------------------------------------------------
set {
	reference rhf
	basis cc-pvtz
}

set_num_threads( 4 )
memory 2 gb

molecule MOL {
0 1

H	 -3.871178	 0.503229	 -0.900824
O	 -3.515113	 -0.019339	 -0.206321
C	 -2.302264	 0.528872	 0.237390
C	 -1.175688	 -0.398187	 -0.171891
H	 -2.148018	 1.514076	 -0.197759
H	 -2.310727	 0.646384	 1.319032
C	 0.196029	 0.106276	 0.266738
H	 -1.201873	 -0.515469	 -1.250677
H	 -1.365975	 -1.378728	 0.252664
C	 1.330220	 -0.826136	 -0.155230
H	 0.359542	 1.097229	 -0.145561
H	 0.212134	 0.218135	 1.348778
C	 2.719700	 -0.407669	 0.328325
H	 1.339388	 -0.911200	 -1.239363
H	 1.119001	 -1.821953	 0.224128
C	 3.241564	 0.893452	 -0.276737
H	 3.418299	 -1.204729	 0.093035
H	 2.711776	 -0.323368	 1.411960
H	 3.254204	 0.841071	 -1.360784
H	 2.634460	 1.745075	 0.005842
H	 4.254264	 1.092401	 0.054971

	symmetry c1
}
set optking {
	frozen_dihedral = ("
		1 2 3 5
	")
}

ee,wfn = optimize('scf', return_wfn=True)
oeprop( wfn, 'DIPOLE', 'QUADRUPOLE', 'MULLIKEN_CHARGES')
f=open( 'psi4out.xyz', 'w' )
f.write( "21  " )
f.write( str(ee) + "\n" )
f.write( MOL.save_string_xyz() )
f.close()
--------------------------------------------------------------------------

    Molecular point group: c1
  Charge       = 0
  Multiplicity = 1
  Basis Set: CC-PVTZ
  Basis Set:
  @DF-RHF Final Energy:  -310.33069414249263
    Total Energy =                       -310.3306941424928596
    Molecular point group: c1
  Basis Set: CC-PVTZ
  Basis Set:
  Basis Set: CC-PVTZ
  Basis Set:
  @DF-RHF Final Energy:  -310.33066649919181
    Total Energy =                       -310.3306664991916932
  Basis Set: CC-PVTZ
  Basis Set:
  Basis Set: CC-PVTZ
  Basis Set:
  @DF-RHF Final Energy:  -310.33134478576670
    Total Energy =                       -310.3313447857669303
  Basis Set: CC-PVTZ
  Basis Set:
  Basis Set: CC-PVTZ
  Basis Set:
  @DF-RHF Final Energy:  -310.33135507737603
    Total Energy =                       -310.3313550773758607
  Basis Set: CC-PVTZ
  Basis Set:
  Basis Set: CC-PVTZ
  Basis Set:
  @DF-RHF Final Energy:  -310.33135394909391
    Total Energy =                       -310.3313539490942503
  Basis Set: CC-PVTZ
  Basis Set:
  Basis Set: CC-PVTZ
  Basis Set:
  @DF-RHF Final Energy:  -310.33135647955766
    Total Energy =                       -310.3313564795578259
  Basis Set: CC-PVTZ
  Basis Set:
  Charge       = 0
  Multiplicity = 1
  Basis Set: CC-PVTZ
  Basis Set:

    Orbital Energies (a.u.)
    -----------------------

    Doubly Occupied:

       1A    -20.544258     2A    -11.265429     3A    -11.213838
       4A    -11.213710     5A    -11.212156     6A    -11.209183
       7A    -11.206857     8A     -1.361831     9A     -1.087958
      10A     -1.034584    11A     -0.955765    12A     -0.878037
      13A     -0.811560    14A     -0.779473    15A     -0.703577
      16A     -0.648604    17A     -0.624433    18A     -0.603480
      19A     -0.594160    20A     -0.571841    21A     -0.542925
      22A     -0.522127    23A     -0.509614    24A     -0.491998
      25A     -0.474639    26A     -0.465902    27A     -0.460080
      28A     -0.456004    29A     -0.423201

  @DF-RHF Final Energy:  -310.33135652055768

   => Energetics <=

    Nuclear Repulsion Energy =            312.5835444219471242
    One-Electron Energy =               -1040.0953459226157065
    Two-Electron Energy =                 417.1804449801107353
    DFT Exchange-Correlation Energy =       0.0000000000000000
    Empirical Dispersion Energy =           0.0000000000000000
    PCM Polarization Energy =               0.0000000000000000
    EFP Energy =                            0.0000000000000000
    Total Energy =                       -310.3313565205577902
    Molecular point group: c1
  Basis Set: CC-PVTZ
  Basis Set:

  -Total Gradient:
     Atom            X                  Y                   Z
    ------   -----------------  -----------------  -----------------
       1       -0.000204727174     0.000274468377     0.000412940626
       2        0.000296771377    -0.000389697627    -0.000606714796
       3       -0.000262019482     0.000279348402     0.000581904103
       4        0.000005920705    -0.000002609868     0.000006945769
       5        0.000171827304    -0.000164267145    -0.000392429765
       6       -0.000006862783    -0.000003626500    -0.000004760422
       7       -0.000001090380    -0.000006762838     0.000000636272
       8       -0.000001875209    -0.000000070995     0.000001488096
       9       -0.000006911455     0.000004152635     0.000001389102
      10        0.000007015542     0.000002590446    -0.000001655576
      11        0.000005328602    -0.000004855537     0.000000219824
      12        0.000000333247    -0.000001513529     0.000003200604
      13       -0.000008752756     0.000011729510    -0.000003583195
      14       -0.000000293509     0.000002407611     0.000000314050
      15       -0.000004792911     0.000002026993     0.000001323595
      16        0.000009986678    -0.000003353897     0.000000707757
      17        0.000000202357     0.000001773489     0.000000462908
      18       -0.000004260482     0.000002431300    -0.000001540418
      19       -0.000003050896     0.000000302516     0.000000259032
      20        0.000002853658    -0.000006877098     0.000001195520
      21        0.000004397559     0.000002403753    -0.000002303086

  **** Optimization is complete! (in 7 steps) ****
    Final optimized geometry and variables:
    Molecular point group: c1

    Geometry (in Angstrom), charge = 0, multiplicity = 1:

    H           -3.976209136562     0.653314957224    -0.529839921577
    O           -3.553474610360     0.067212715741     0.067326302198
    C           -2.274367975880     0.543168676622     0.405699214161
    C           -1.188963441916    -0.359900008483    -0.153677429430
    H           -2.134833785624     1.557816449986     0.043167020135
    H           -2.206346683773     0.577712439941     1.487778283309
    C            0.215192111781     0.077063812058     0.253658316066
    H           -1.272433659247    -0.378360750940    -1.236863054667
    H           -1.378297476839    -1.372547005760     0.188136714041
    C            1.305685211086    -0.832698850198    -0.309218400675
    H            0.380219055378     1.098823958805    -0.075214183818
    H            0.288183494484     0.089878924502     1.338958124245
    C            2.726487555331    -0.487042452627     0.139531726040
    H            1.260154467594    -0.816934461569    -1.395728972450
    H            1.089938364195    -1.855216638340    -0.012625075480
    C            3.248512177019     0.854567290689    -0.369115427470
    H            3.393976890357    -1.271679046073    -0.203180845124
    H            2.773341224334    -0.503636097304     1.225250130106
    H            3.205768491186     0.903424115171    -1.452583670851
    H            2.676953906958     1.687533517691     0.022198669712
    H            4.280975543002     1.002168090890    -0.073592495720

  Mulliken Charges: (a.u.)
   Center  Symbol    Alpha    Beta     Spin     Total
       1     H     0.39188  0.39188  0.00000  0.21624
       2     O     4.20441  4.20441  0.00000 -0.40881
       3     C     2.97170  2.97170  0.00000  0.05661
       4     C     3.08025  3.08025  0.00000 -0.16050
       5     H     0.47309  0.47309  0.00000  0.05382
       6     H     0.46094  0.46094  0.00000  0.07812
       7     C     3.10411  3.10411  0.00000 -0.20821
       8     H     0.45834  0.45834  0.00000  0.08331
       9     H     0.45011  0.45011  0.00000  0.09979
      10     C     3.09388  3.09388  0.00000 -0.18775
      11     H     0.45421  0.45421  0.00000  0.09159
      12     H     0.45418  0.45418  0.00000  0.09164
      13     C     3.08993  3.08993  0.00000 -0.17987
      14     H     0.45368  0.45368  0.00000  0.09265
      15     H     0.44843  0.44843  0.00000  0.10313
      16     C     3.15251  3.15251  0.00000 -0.30501
      17     H     0.44836  0.44836  0.00000  0.10329
      18     H     0.45461  0.45461  0.00000  0.09078
      19     H     0.45499  0.45499  0.00000  0.09001
      20     H     0.45419  0.45419  0.00000  0.09161
      21     H     0.44622  0.44622  0.00000  0.10756

   Total alpha = 29.00000, Total beta = 29.00000, Total charge = -0.00000

*** Psi4 exiting successfully. Buy a developer a beer!
