  ==> Input File <==

--------------------------------------------------------------------------
set {
	reference rhf
	basis cc-pvtz
}

set_num_threads( 4 )
memory 2 gb

molecule MOL {
0 1

H	 2.462485	 -2.216993	 0.000000
O	 2.777472	 -1.330706	 0.000000
C	 1.763288	 -0.447523	 0.000000
C	 1.980650	 0.776829	 -0.615496
C	 0.543483	 -0.720448	 0.581331
H	 2.936497	 0.968468	 -1.061353
C	 0.979171	 1.719928	 -0.646401
H	 0.348355	 -1.656128	 1.062709
C	 -0.438502	 0.249085	 0.531526
H	 1.156217	 2.663340	 -1.124289
C	 -0.254552	 1.469059	 -0.069396
N	 -1.734273	 -0.048270	 1.152297
H	 -1.041112	 2.191404	 -0.085673
O	 -1.866608	 -1.109877	 1.664695
O	 -2.570564	 0.789024	 1.104827

	symmetry c1
}
set optking {
	frozen_dihedral = ("
		4 3 2 1
	")
}

ee = optimize('scf')
oeprop('DIPOLE', 'QUADRUPOLE', 'MULLIKEN_CHARGES')
f=open( 'psi4out.xyz', 'w' )
f.write( "15  " )
f.write( str(ee) + "\n" )
f.write( MOL.save_string_xyz() )
f.close()
--------------------------------------------------------------------------

    Molecular point group: c1
  Charge       = 0
  Multiplicity = 1
  Basis Set: CC-PVTZ
  Basis Set:
  @DF-RHF Final Energy:  -509.21783979242008
    Total Energy =                       -509.2178397924203637
    Molecular point group: c1
  Basis Set: CC-PVTZ
  Basis Set:
  Basis Set: CC-PVTZ
  Basis Set:
  @DF-RHF Final Energy:  -509.21783636830543
    Total Energy =                       -509.2178363683054840
  Basis Set: CC-PVTZ
  Basis Set:
  Basis Set: CC-PVTZ
  Basis Set:
  @DF-RHF Final Energy:  -509.20971709314415
    Total Energy =                       -509.2097170931436949
  Basis Set: CC-PVTZ
  Basis Set:
  Basis Set: CC-PVTZ
  Basis Set:
  @DF-RHF Final Energy:  -509.21756117981954
    Total Energy =                       -509.2175611798196542
  Basis Set: CC-PVTZ
  Basis Set:
  Basis Set: CC-PVTZ
  Basis Set:
  @DF-RHF Final Energy:  -509.21790197678064
    Total Energy =                       -509.2179019767803538
  Basis Set: CC-PVTZ
  Basis Set:
  Basis Set: CC-PVTZ
  Basis Set:
  @DF-RHF Final Energy:  -509.21790511251038
    Total Energy =                       -509.2179051125103797
  Basis Set: CC-PVTZ
  Basis Set:
  Charge       = 0
  Multiplicity = 1
  Basis Set: CC-PVTZ
  Basis Set:

    Orbital Energies (a.u.)
    -----------------------

    Doubly Occupied:

       1A    -20.604567     2A    -20.594934     3A    -20.594462
       4A    -15.850611     5A    -11.325437     6A    -11.308700
       7A    -11.263334     8A    -11.263067     9A    -11.259953
      10A    -11.257417    11A     -1.644276    12A     -1.436232
      13A     -1.426661    14A     -1.202704    15A     -1.095462
      16A     -1.048051    17A     -0.966406    18A     -0.879024
      19A     -0.832355    20A     -0.795664    21A     -0.753461
      22A     -0.743579    23A     -0.729311    24A     -0.709729
      25A     -0.678020    26A     -0.638486    27A     -0.628481
      28A     -0.583938    29A     -0.559324    30A     -0.545195
      31A     -0.519571    32A     -0.494884    33A     -0.492769
      34A     -0.460264    35A     -0.380080    36A     -0.349734

  @DF-RHF Final Energy:  -509.21790545753481

   => Energetics <=

    Nuclear Repulsion Energy =            504.5552819195860366
    One-Electron Energy =               -1695.7140903192885162
    Two-Electron Energy =                 681.9409029421668720
    DFT Exchange-Correlation Energy =       0.0000000000000000
    Empirical Dispersion Energy =           0.0000000000000000
    PCM Polarization Energy =               0.0000000000000000
    EFP Energy =                            0.0000000000000000
    Total Energy =                       -509.2179054575357213
    Molecular point group: c1
  Basis Set: CC-PVTZ
  Basis Set:

  -Total Gradient:
     Atom            X                  Y                   Z
    ------   -----------------  -----------------  -----------------
       1        0.000020145169    -0.000020240480    -0.002450600084
       2       -0.000274819424    -0.000307072014     0.002347255976
       3        0.000767622210     0.000936291916     0.001677240194
       4       -0.000616531237    -0.000578911255    -0.001554141407
       5        0.000106144086    -0.000032218975    -0.000024029697
       6        0.000004482441    -0.000005997414     0.000007078768
       7        0.000105747065    -0.000020332729    -0.000028180817
       8       -0.000003675022     0.000005252080    -0.000004198227
       9       -0.000043411895     0.000080072028    -0.000062425328
      10       -0.000008833877    -0.000001465825    -0.000006365372
      11       -0.000044601512    -0.000055538575     0.000075612921
      12        0.000045696206     0.000026829957     0.000036831443
      13        0.000007397955     0.000000824575    -0.000005815305
      14       -0.000045433840     0.000025624906    -0.000013593643
      15       -0.000019928331    -0.000053118197     0.000005330577

  **** Optimization is complete! (in 7 steps) ****
    Final optimized geometry and variables:
    Molecular point group: c1

    Geometry (in Angstrom), charge = 0, multiplicity = 1:

    H            2.390356749987    -2.300558266533    -0.392424296105
    O            2.708223839429    -1.415224679114    -0.396170940885
    C            1.691724567964    -0.527342649227    -0.409765637319
    C            1.906261666619     0.693568405389    -1.029102271670
    C            0.473284501132    -0.800947041542     0.175150633253
    H            2.858922885676     0.882039483774    -1.483030266243
    C            0.907389584357     1.642088757015    -1.050214015344
    H            0.285967505948    -1.734096016801     0.663714119595
    C           -0.509928999395     0.166038836014     0.124424050741
    H            1.082848328754     2.585427167745    -1.528746452856
    C           -0.324046810990     1.389279021384    -0.472431002533
    N           -1.806526403771    -0.132076380582     0.742466802583
    H           -1.110817433626     2.111556755641    -0.486128680645
    O           -1.947746561083    -1.202701266412     1.232905684246
    O           -2.635427196488     0.713620533271     0.713652105725

  Mulliken Charges: (a.u.)
   Center  Symbol    Alpha    Beta     Spin     Total
       1     H     0.38256  0.38256  0.00000  0.23488
       2     O     4.17443  4.17443  0.00000 -0.34886
       3     C     2.85272  2.85272  0.00000  0.29455
       4     C     3.09695  3.09695  0.00000 -0.19390
       5     C     3.12770  3.12770  0.00000 -0.25539
       6     H     0.41197  0.41197  0.00000  0.17606
       7     C     3.05862  3.05862  0.00000 -0.11724
       8     H     0.40288  0.40288  0.00000  0.19425
       9     C     2.98175  2.98175  0.00000  0.03650
      10     H     0.41577  0.41577  0.00000  0.16847
      11     C     3.09291  3.09291  0.00000 -0.18581
      12     N     3.24960  3.24960  0.00000  0.50081
      13     H     0.39931  0.39931  0.00000  0.20138
      14     O     4.17798  4.17798  0.00000 -0.35595
      15     O     4.17487  4.17487  0.00000 -0.34974

   Total alpha = 36.00000, Total beta = 36.00000, Total charge =  0.00000
