                              Psi4 1.0.54 Driver

  ==> Input File <==

--------------------------------------------------------------------------
set {
	reference rhf
	basis cc-pvtz
}

set_num_threads( 4 )
memory 2 gb

molecule MOL {
0 1

H	 3.083659	 -1.378387	 0.000000
O	 2.179005	 -1.633391	 0.000000
C	 1.366950	 -0.558201	 0.000000
C	 0.758182	 -0.089934	 1.154473
C	 1.148894	 0.082347	 -1.202568
H	 0.929149	 -0.590130	 2.090424
C	 -0.065973	 1.016040	 1.104018
H	 1.617605	 -0.276871	 -2.095942
C	 0.321469	 1.190050	 -1.244145
H	 -0.531568	 1.369315	 2.003597
C	 -0.289295	 1.662517	 -0.094987
C	 0.078365	 1.889065	 -2.533198
H	 -0.929659	 2.522768	 -0.137323
O	 0.547827	 1.571247	 -3.571474
H	 -0.589380	 2.753454	 -2.465765

	symmetry c1
}
set optking {
	frozen_dihedral = ("
		4 3 2 1
	")
}

ee,wfn = optimize('scf', return_wfn=True)
oeprop( wfn, 'DIPOLE', 'QUADRUPOLE', 'MULLIKEN_CHARGES')
f=open( 'psi4out.xyz', 'w' )
f.write( "15  " )
f.write( str(ee) + "\n" )
f.write( MOL.save_string_xyz() )
f.close()
--------------------------------------------------------------------------

    Molecular point group: c1
  Charge       = 0
  Multiplicity = 1
  Basis Set: CC-PVTZ
  Basis Set:
  @DF-RHF Final Energy:  -418.43444310254108
    Total Energy =                       -418.4344431025411950
    Molecular point group: c1
  Basis Set: CC-PVTZ
  Basis Set:
  Basis Set: CC-PVTZ
  Basis Set:
  @DF-RHF Final Energy:  -418.43540208826363
    Total Energy =                       -418.4354020882636860
  Basis Set: CC-PVTZ
  Basis Set:
  Basis Set: CC-PVTZ
  Basis Set:
  @DF-RHF Final Energy:  -418.43445804680113
    Total Energy =                       -418.4344580468003869
  Basis Set: CC-PVTZ
  Basis Set:
  Basis Set: CC-PVTZ
  Basis Set:
  @DF-RHF Final Energy:  -418.43549088791178
    Total Energy =                       -418.4354908879117829
  Basis Set: CC-PVTZ
  Basis Set:
  Basis Set: CC-PVTZ
  Basis Set:
  @DF-RHF Final Energy:  -418.43550931302082
    Total Energy =                       -418.4355093130209298
  Basis Set: CC-PVTZ
  Basis Set:
  Charge       = 0
  Multiplicity = 1
  Basis Set: CC-PVTZ
  Basis Set:

    Orbital Energies (a.u.)
    -----------------------

    Doubly Occupied:

       1A    -20.581860     2A    -20.555474     3A    -11.329256
       4A    -11.303196     5A    -11.251297     6A    -11.250091
       7A    -11.248756     8A    -11.246820     9A    -11.242936
      10A     -1.411577    11A     -1.409684    12A     -1.175323
      13A     -1.052810    14A     -1.030233    15A     -0.900731
      16A     -0.851222    17A     -0.803348    18A     -0.748655
      19A     -0.702046    20A     -0.683142    21A     -0.658863
      22A     -0.638572    23A     -0.623268    24A     -0.610821
      25A     -0.562679    26A     -0.549358    27A     -0.535025
      28A     -0.504578    29A     -0.492219    30A     -0.427723
      31A     -0.357179    32A     -0.346852

  @DF-RHF Final Energy:  -418.43551168238207

   => Energetics <=

    Nuclear Repulsion Energy =            403.5499880698712332
    One-Electron Energy =               -1369.7998118301131854
    Two-Electron Energy =                 547.8143120778599950
    DFT Exchange-Correlation Energy =       0.0000000000000000
    Empirical Dispersion Energy =           0.0000000000000000
    PCM Polarization Energy =               0.0000000000000000
    EFP Energy =                            0.0000000000000000
    Total Energy =                       -418.4355116823819571
    Molecular point group: c1
  Basis Set: CC-PVTZ
  Basis Set:

  -Total Gradient:
     Atom            X                  Y                   Z
    ------   -----------------  -----------------  -----------------
       1       -0.000037501996     0.000012469772     0.001039480905
       2        0.000423476087     0.000152509397    -0.001262355676
       3       -0.001081455304    -0.000583592092     0.000320532361
       4        0.000758401194     0.000248069838     0.000042987936
       5       -0.000042626111     0.000101278367    -0.000115546879
       6       -0.000003276612    -0.000008037895    -0.000004534612
       7       -0.000090572736     0.000264161696    -0.000134415091
       8       -0.000016697449     0.000007230591     0.000012093207
       9        0.000156859017    -0.000091854776    -0.000204081418
      10        0.000010147785    -0.000020837134     0.000001669151
      11       -0.000074588607    -0.000082223653     0.000293072392
      12       -0.000037214286     0.000087814999    -0.000096083863
      13        0.000005189804     0.000000334446    -0.000038167643
      14       -0.000077282166     0.000046013810     0.000169943424
      15        0.000107141381    -0.000133337367    -0.000024594199

  **** Optimization is complete! (in 6 steps) ****
    Final optimized geometry and variables:
    Molecular point group: c1

    Geometry (in Angstrom), charge = 0, multiplicity = 1:

    H            2.363674325891    -1.963065824339     0.818454362571
    O            1.453201339111    -2.200428313745     0.791258589430
    C            0.664216487647    -1.087899300528     0.735798996876
    C            0.058128647309    -0.628150281298     1.894819641594
    C            0.437972829825    -0.451142608270    -0.462328031747
    H            0.241032561036    -1.146733019691     2.815780574007
    C           -0.773842054939     0.470804589669     1.852149295448
    H            0.894043585666    -0.810536133743    -1.363011476345
    C           -0.395249198794     0.658098137295    -0.502547600748
    H           -1.242464268869     0.820644443077     2.751332047356
    C           -1.001288758072     1.118255093684     0.651237156319
    C           -0.645249212461     1.358234525527    -1.787148272304
    H           -1.648359797930     1.974364012123     0.613294851546
    O           -0.166028664330     1.052985659505    -2.825155018506
    H           -1.326783247900     2.211671252679    -1.718279970213

  Mulliken Charges: (a.u.)
   Center  Symbol    Alpha    Beta     Spin     Total
       1     H     0.38676  0.38676  0.00000  0.22648
       2     O     4.18872  4.18872  0.00000 -0.37744
       3     C     2.86104  2.86104  0.00000  0.27792
       4     C     3.10157  3.10157  0.00000 -0.20313
       5     C     3.12337  3.12337  0.00000 -0.24674
       6     H     0.41300  0.41300  0.00000  0.17400
       7     C     3.06687  3.06687  0.00000 -0.13374
       8     H     0.40319  0.40319  0.00000  0.19363
       9     C     2.98118  2.98118  0.00000  0.03763
      10     H     0.41858  0.41858  0.00000  0.16284
      11     C     3.09740  3.09740  0.00000 -0.19480
      12     C     2.90879  2.90879  0.00000  0.18242
      13     H     0.42233  0.42233  0.00000  0.15534
      14     O     4.17096  4.17096  0.00000 -0.34191
      15     H     0.45625  0.45625  0.00000  0.08750

   Total alpha = 32.00000, Total beta = 32.00000, Total charge =  0.00000

*** Psi4 exiting successfully. Buy a developer a beer!
