  ==> Input File <==

--------------------------------------------------------------------------
set {
	reference rhf
	basis 6-31G*
}

set_num_threads( 4 )
memory 2 gb

molecule MOL {
0 1

H	 2.233180	 -0.955972	 -0.794811
C	 1.472668	 -0.209501	 -0.957464
O	 0.464886	 -0.454746	 -0.000158
H	 1.085099	 -0.306768	 -1.964615
H	 1.903920	 0.775709	 -0.825382
C	 -0.590998	 0.343045	 0.000118
O	 -1.699443	 -0.054298	 0.000227
H	 -0.340329	 1.404368	 0.000207

	symmetry c1
}
set optking {
	frozen_dihedral = ("
		2 3 6 7
	")
}

ee = optimize('scf')
oeprop('DIPOLE', 'QUADRUPOLE', 'MULLIKEN_CHARGES')
f=open( 'psi4out.xyz', 'w' )
f.write( "8  " )
f.write( str(ee) + "\n" )
f.write( MOL.save_string_xyz() )
f.close()
--------------------------------------------------------------------------

    Molecular point group: c1
  Charge       = 0
  Multiplicity = 1
  Basis Set: 6-31G*
  Basis Set:
  @DF-RHF Final Energy:  -227.77288878433117
    Total Energy =                       -227.7728887843312862
    Molecular point group: c1
  Basis Set: 6-31G*
  Basis Set:
  Basis Set: 6-31G*
  Basis Set:
  @DF-RHF Final Energy:  -227.77286927122012
    Total Energy =                       -227.7728692712201166
  Basis Set: 6-31G*
  Basis Set:
  Basis Set: 6-31G*
  Basis Set:
  @DF-RHF Final Energy:  -227.77287538543510
    Total Energy =                       -227.7728753854351567
  Basis Set: 6-31G*
  Basis Set:
  Basis Set: 6-31G*
  Basis Set:
  @DF-RHF Final Energy:  -227.77323484657535
    Total Energy =                       -227.7732348465754058
  Basis Set: 6-31G*
  Basis Set:
  Basis Set: 6-31G*
  Basis Set:
  @DF-RHF Final Energy:  -227.77324407379189
    Total Energy =                       -227.7732440737918580
  Basis Set: 6-31G*
  Basis Set:
  Charge       = 0
  Multiplicity = 1
  Basis Set: 6-31G*
  Basis Set:

    Orbital Energies (a.u.)
    -----------------------

    Doubly Occupied:

       1A    -20.607328     2A    -20.567288     3A    -11.383443
       4A    -11.303390     5A     -1.473345     6A     -1.384620
       7A     -0.989626     8A     -0.844488     9A     -0.738001
      10A     -0.685532    11A     -0.676913    12A     -0.617985
      13A     -0.568208    14A     -0.523006    15A     -0.469201
      16A     -0.455888

  @DF-RHF Final Energy:  -227.77324622365208

   => Energetics <=

    Nuclear Repulsion Energy =            121.3610061877633086
    One-Electron Energy =                -551.6919792240112201
    Two-Electron Energy =                 202.5577268125959449
    DFT Exchange-Correlation Energy =       0.0000000000000000
    Empirical Dispersion Energy =           0.0000000000000000
    PCM Polarization Energy =               0.0000000000000000
    EFP Energy =                            0.0000000000000000
    Total Energy =                       -227.7732462236519382
    Molecular point group: c1
  Basis Set: 6-31G*
  Basis Set:

  -Total Gradient:
     Atom            X                  Y                   Z
    ------   -----------------  -----------------  -----------------
       1       -0.000045497852    -0.000002341810     0.000050963590
       2       -0.002238533038    -0.002412739734    -0.003271509984
       3        0.003257849867     0.003937653861     0.001821882945
       4        0.000002658608    -0.000004890658     0.000002550979
       5        0.000017361020    -0.000000187473     0.000010226194
       6       -0.001052386232    -0.002012275966     0.007276261423
       7        0.000063342840     0.000503594659    -0.005905976130
       8       -0.000004795217    -0.000008812879     0.000015600982

  **** Optimization is complete! (in 6 steps) ****
    Final optimized geometry and variables:
    Molecular point group: c1

    Geometry (in Angstrom), charge = 0, multiplicity = 1:

    H            2.361716640053    -0.790755887986    -0.477572555166
    C            1.542214935588    -0.125467142636    -0.696881584387
    O            0.519138104309    -0.422232149101     0.228909249830
    H            1.195344083403    -0.295981837944    -1.708189179848
    H            1.878460806401     0.902094338787    -0.596258552827
    C           -0.501026401598     0.433416045325     0.283290143569
    O           -1.631042401291     0.109938563303     0.233660636830
    H           -0.186046949334     1.474274391983     0.365262938719

  Mulliken Charges: (a.u.)
   Center  Symbol    Alpha    Beta     Spin     Total
       1     H     0.39861  0.39861  0.00000  0.20278
       2     C     3.09683  3.09683  0.00000 -0.19366
       3     O     4.28515  4.28515  0.00000 -0.57029
       4     H     0.40901  0.40901  0.00000  0.18198
       5     H     0.41920  0.41920  0.00000  0.16160
       6     C     2.73010  2.73010  0.00000  0.53980
       7     O     4.23186  4.23186  0.00000 -0.46373
       8     H     0.42924  0.42924  0.00000  0.14152

   Total alpha = 16.00000, Total beta = 16.00000, Total charge = -0.00000
