  ==> Input File <==

--------------------------------------------------------------------------
set {
	reference rhf
	basis 6-31G*
}

set_num_threads( 1 )
memory 2 gb

molecule MOL {
0 1

H	 2.176868	 -0.646004	 -0.217325
O	 1.337496	 -0.537251	 0.205931
C	 0.702312	 0.627605	 -0.264544
C	 -0.714990	 0.596302	 0.266387
H	 0.682322	 0.642550	 -1.350929
H	 1.215941	 1.520383	 0.085680
O	 -1.405996	 -0.526611	 -0.195820
H	 -1.257453	 1.468809	 -0.075599
H	 -0.688972	 0.618407	 1.353696
H	 -0.955067	 -0.845929	 -0.966995

	symmetry c1
}
set optking {
	frozen_dihedral = ("
		5 3 4 7
	")
}

ee = energy('scf')
oeprop('DIPOLE', 'QUADRUPOLE', 'MULLIKEN_CHARGES')
f=open( 'psi4out.xyz', 'w' )
f.write( "10  " )
f.write( str(ee) + "\n" )
f.write( MOL.save_string_xyz() )
f.close()
--------------------------------------------------------------------------

    Molecular point group: c1

    Geometry (in Angstrom), charge = 0, multiplicity = 1:

       Center              X                  Y                   Z               Mass
    ------------   -----------------  -----------------  -----------------  -----------------
           H          2.177915199568    -0.653262617804    -0.201257141008     1.007825032070
           O          1.338543199568    -0.544509617804     0.221998858992    15.994914619560
           C          0.703359199568     0.620346382196    -0.248476141008    12.000000000000
           C         -0.713942800432     0.589043382196     0.282454858992    12.000000000000
           H          0.683369199568     0.635291382196    -1.334861141008     1.007825032070
           H          1.216988199568     1.513124382196     0.101747858992     1.007825032070
           O         -1.404948800432    -0.533869617804    -0.179752141008    15.994914619560
           H         -1.256405800432     1.461550382196    -0.059531141008     1.007825032070
           H         -0.687924800432     0.611148382196     1.369763858992     1.007825032070
           H         -0.954019800432    -0.853187617804    -0.950927141008     1.007825032070

  Charge       = 0
  Multiplicity = 1
  Basis Set: 6-31G*
  Basis Set:

    Orbital Energies (a.u.)
    -----------------------

    Doubly Occupied:

       1A    -20.566186     2A    -20.548405     3A    -11.283256
       4A    -11.268576     5A     -1.380925     6A     -1.351176
       7A     -1.003643     8A     -0.849596     9A     -0.722197
      10A     -0.673025    11A     -0.660182    12A     -0.601197
      13A     -0.572761    14A     -0.547031    15A     -0.474149
      16A     -0.454433    17A     -0.435534

  @DF-RHF Final Energy:  -228.91679275199760

   => Energetics <=

    Nuclear Repulsion Energy =            134.6068121237803439
    One-Electron Energy =                -580.2627498292358723
    Two-Electron Energy =                 216.7391449534579806
    DFT Exchange-Correlation Energy =       0.0000000000000000
    Empirical Dispersion Energy =           0.0000000000000000
    PCM Polarization Energy =               0.0000000000000000
    EFP Energy =                            0.0000000000000000
    Total Energy =                       -228.9167927519975478

  Mulliken Charges: (a.u.)
   Center  Symbol    Alpha    Beta     Spin     Total
       1     H     0.27887  0.27887  0.00000  0.44225
       2     O     4.36528  4.36528  0.00000 -0.73055
       3     C     3.03238  3.03238  0.00000 -0.06476
       4     C     2.98158  2.98158  0.00000  0.03684
       5     H     0.43125  0.43125  0.00000  0.13750
       6     H     0.42254  0.42254  0.00000  0.15492
       7     O     4.36833  4.36833  0.00000 -0.73665
       8     H     0.42803  0.42803  0.00000  0.14395
       9     H     0.41310  0.41310  0.00000  0.17380
      10     H     0.27865  0.27865  0.00000  0.44270

   Total alpha = 17.00000, Total beta = 17.00000, Total charge =  0.00000
