                              Psi4 1.0.54 Driver

  ==> Input File <==

--------------------------------------------------------------------------
set {
	reference rhf
	basis cc-pvtz
}

set_num_threads( 4 )
memory 2 gb

molecule MOL {
0 1

O	 0.749630	 1.305591	 -0.000460
C	 0.576499	 0.134701	 -0.003900
C	 -0.765656	 -0.550508	 -0.002152
O	 1.564816	 -0.744612	 -0.000631
C	 -1.945526	 0.411052	 0.000603
H	 -0.794329	 -1.203792	 -0.868145
H	 -0.791555	 -1.205429	 0.862701
C	 -3.282915	 -0.321280	 0.002596
H	 -1.880300	 1.059126	 -0.864925
H	 -1.877207	 1.057892	 0.866807
H	 -3.388495	 -0.952755	 -0.873419
H	 -4.107811	 0.380864	 0.004116
H	 -3.385717	 -0.953283	 0.878571
C	 1.770349	 -1.494289	 -1.181203
H	 0.893882	 -2.078508	 -1.419004
H	 2.606867	 -2.143190	 -0.979080
H	 1.995942	 -0.842580	 -2.012121

	symmetry c1
}
set optking {
	frozen_dihedral = ("
		14 4 2 1
	")
}

ee,wfn = optimize('scf', return_wfn=True)
oeprop( wfn, 'DIPOLE', 'QUADRUPOLE', 'MULLIKEN_CHARGES')
f=open( 'psi4out.xyz', 'w' )
f.write( "17  " )
f.write( str(ee) + "\n" )
f.write( MOL.save_string_xyz() )
f.close()
--------------------------------------------------------------------------

    Molecular point group: c1
  Charge       = 0
  Multiplicity = 1
  Basis Set: CC-PVTZ
  Basis Set:
  @DF-RHF Final Energy:  -345.01216519103787
    Total Energy =                       -345.0121651910373544
    Molecular point group: c1
  Basis Set: CC-PVTZ
  Basis Set:
  Basis Set: CC-PVTZ
  Basis Set:
  @DF-RHF Final Energy:  -345.01108629974391
    Total Energy =                       -345.0110862997439654
  Basis Set: CC-PVTZ
  Basis Set:
  Basis Set: CC-PVTZ
  Basis Set:
  @DF-RHF Final Energy:  -345.01412393449885
    Total Energy =                       -345.0141239344986843
  Basis Set: CC-PVTZ
  Basis Set:
  Basis Set: CC-PVTZ
  Basis Set:
  @DF-RHF Final Energy:  -345.01367242081676
    Total Energy =                       -345.0136724208165333
  Basis Set: CC-PVTZ
  Basis Set:
  Basis Set: CC-PVTZ
  Basis Set:
  @DF-RHF Final Energy:  -345.01510717473178
    Total Energy =                       -345.0151071747317246
  Basis Set: CC-PVTZ
  Basis Set:
  Basis Set: CC-PVTZ
  Basis Set:
  @DF-RHF Final Energy:  -345.01515016016702
    Total Energy =                       -345.0151501601666268
  Basis Set: CC-PVTZ
  Basis Set:
  Basis Set: CC-PVTZ
  Basis Set:
  @DF-RHF Final Energy:  -345.01515435742408
    Total Energy =                       -345.0151543574239668
  Basis Set: CC-PVTZ
  Basis Set:
  Charge       = 0
  Multiplicity = 1
  Basis Set: CC-PVTZ
  Basis Set:

    Orbital Energies (a.u.)
    -----------------------

    Doubly Occupied:

       1A    -20.579914     2A    -20.544028     3A    -11.367934
       4A    -11.291098     5A    -11.240105     6A    -11.223783
       7A    -11.216060     8A     -1.461770     9A     -1.370455
      10A     -1.082875    11A     -0.990027    12A     -0.958631
      13A     -0.836782    14A     -0.766754    15A     -0.702238
      16A     -0.680984    17A     -0.677999    18A     -0.639046
      19A     -0.617934    20A     -0.580398    21A     -0.567241
      22A     -0.544409    23A     -0.520039    24A     -0.496709
      25A     -0.491727    26A     -0.483340    27A     -0.457718
      28A     -0.438131

  @DF-RHF Final Energy:  -345.01515452831131

   => Energetics <=

    Nuclear Repulsion Energy =            313.2968748325179149
    One-Electron Energy =               -1090.9677946993776914
    Two-Electron Energy =                 432.6557653385484628
    DFT Exchange-Correlation Energy =       0.0000000000000000
    Empirical Dispersion Energy =           0.0000000000000000
    PCM Polarization Energy =               0.0000000000000000
    EFP Energy =                            0.0000000000000000
    Total Energy =                       -345.0151545283113137
    Molecular point group: c1
  Basis Set: CC-PVTZ
  Basis Set:

  -Total Gradient:
     Atom            X                  Y                   Z
    ------   -----------------  -----------------  -----------------
       1       -0.000150448263     0.000022937151    -0.000759984886
       2        0.000398308461     0.000197010968     0.000964820847
       3        0.000006723778     0.000017276025    -0.000013380947
       4       -0.000549188025    -0.000723329343     0.000080913297
       5       -0.000005726872    -0.000010267008     0.000000842888
       6        0.000001628887    -0.000011940678     0.000002963408
       7        0.000003515375    -0.000003827712     0.000004039865
       8        0.000008897999     0.000009833941    -0.000000314513
       9       -0.000006108429     0.000001231549     0.000000883436
      10       -0.000006583076     0.000002254647     0.000000703709
      11        0.000001776121     0.000002309402    -0.000000338574
      12       -0.000001689575     0.000000729493     0.000001767510
      13        0.000002917582     0.000001547132    -0.000003575582
      14        0.000299044938     0.000492134427    -0.000284456023
      15        0.000002738782     0.000008302832     0.000003633625
      16       -0.000004099341    -0.000005556267    -0.000009252161
      17       -0.000001708331    -0.000000646559     0.000010734100

  **** Optimization is complete! (in 8 steps) ****
    Final optimized geometry and variables:
    Molecular point group: c1

    Geometry (in Angstrom), charge = 0, multiplicity = 1:

    O            0.743172046086     1.553958728848    -0.033808101328
    C            0.696237944652     0.379225508770    -0.019166782000
    C           -0.545064980227    -0.421860250007     0.291358944271
    O            1.808205481342    -0.356096632386    -0.224015574164
    C           -1.767288858538     0.430029205218     0.605163570195
    H           -0.746610665733    -1.078543465088    -0.549210615095
    H           -0.297463901775    -1.075066178215     1.122591699323
    C           -2.994089699115    -0.418073387538     0.922172221759
    H           -1.974462420228     1.080535124145    -0.235948373289
    H           -1.541674654029     1.081121725845     1.440653884234
    H           -3.261199557948    -1.055860452717     0.085727505468
    H           -3.849378651428     0.208396911598     1.144391814372
    H           -2.820941662451    -1.057067378932     1.781822258180
    C            1.927654712126    -1.085154880003    -1.422470099402
    H            1.217915203197    -1.901923531080    -1.469769769811
    H            2.926802826723    -1.489091375713    -1.437223097679
    H            1.795474410915    -0.437400179321    -2.280749758845

  Mulliken Charges: (a.u.)
   Center  Symbol    Alpha    Beta     Spin     Total
       1     O     4.16686  4.16686  0.00000 -0.33371
       2     C     2.79103  2.79103  0.00000  0.41794
       3     C     3.11953  3.11953  0.00000 -0.23906
       4     O     4.16071  4.16071  0.00000 -0.32141
       5     C     3.08016  3.08016  0.00000 -0.16032
       6     H     0.44657  0.44657  0.00000  0.10686
       7     H     0.43768  0.43768  0.00000  0.12464
       8     C     3.14994  3.14994  0.00000 -0.29987
       9     H     0.44630  0.44630  0.00000  0.10739
      10     H     0.44410  0.44410  0.00000  0.11180
      11     H     0.45681  0.45681  0.00000  0.08637
      12     H     0.44472  0.44472  0.00000  0.11056
      13     H     0.45528  0.45528  0.00000  0.08945
      14     C     3.04038  3.04038  0.00000 -0.08075
      15     H     0.46312  0.46312  0.00000  0.07376
      16     H     0.43884  0.43884  0.00000  0.12232
      17     H     0.45798  0.45798  0.00000  0.08404

   Total alpha = 28.00000, Total beta = 28.00000, Total charge =  0.00000

*** Psi4 exiting successfully. Buy a developer a beer!
