  ==> Input File <==

--------------------------------------------------------------------------
set {
	reference rhf
	basis 6-31G*
}

set_num_threads( 4 )
memory 2 gb

molecule MOL {
0 1

H	 -0.000158	 1.970498	 0.756846
O	 -0.000074	 1.880206	 -0.189275
C	 -0.000015	 0.544847	 -0.545111
C	 1.423701	 0.087836	 -0.845379
C	 -0.979576	 0.313022	 -1.690849
H	 -0.351749	 -0.022771	 0.303533
F	 2.174523	 0.249236	 0.223152
F	 1.477629	 -1.180350	 -1.193455
F	 1.952269	 0.806887	 -1.822711
F	 -2.191736	 0.658607	 -1.312990
F	 -1.014681	 -0.946902	 -2.069976
F	 -0.658131	 1.051270	 -2.741201

	symmetry c1
}
set optking {
	frozen_dihedral = ("
		6 3 2 1
	")
}

ee = optimize('scf')
oeprop('DIPOLE', 'QUADRUPOLE', 'MULLIKEN_CHARGES')
f=open( 'psi4out.xyz', 'w' )
f.write( "12  " )
f.write( str(ee) + "\n" )
f.write( MOL.save_string_xyz() )
f.close()
--------------------------------------------------------------------------

    Molecular point group: c1
  Charge       = 0
  Multiplicity = 1
  Basis Set: 6-31G*
  Basis Set:
  @DF-RHF Final Energy:  -786.27375440253741
    Total Energy =                       -786.2737544025372927
    Molecular point group: c1
  Basis Set: 6-31G*
  Basis Set:
  Basis Set: 6-31G*
  Basis Set:
  @DF-RHF Final Energy:  -786.27545628447058
    Total Energy =                       -786.2754562844705788
  Basis Set: 6-31G*
  Basis Set:
  Basis Set: 6-31G*
  Basis Set:
  @DF-RHF Final Energy:  -786.27578627244611
    Total Energy =                       -786.2757862724456572
  Basis Set: 6-31G*
  Basis Set:
  Basis Set: 6-31G*
  Basis Set:
  @DF-RHF Final Energy:  -786.27581798075050
    Total Energy =                       -786.2758179807508441
  Basis Set: 6-31G*
  Basis Set:
  Basis Set: 6-31G*
  Basis Set:
  @DF-RHF Final Energy:  -786.27582274054384
    Total Energy =                       -786.2758227405436173
  Basis Set: 6-31G*
  Basis Set:
  Charge       = 0
  Multiplicity = 1
  Basis Set: 6-31G*
  Basis Set:

    Orbital Energies (a.u.)
    -----------------------

    Doubly Occupied:

       1A    -26.355730     2A    -26.355606     3A    -26.354829
       4A    -26.353042     5A    -26.352433     6A    -26.351092
       7A    -20.616895     8A    -11.520520     9A    -11.519975
      10A    -11.349516    11A     -1.757905    12A     -1.752032
      13A     -1.653979    14A     -1.652362    15A     -1.649434
      16A     -1.648677    17A     -1.434629    18A     -1.101735
      19A     -0.991158    20A     -0.931363    21A     -0.859456
      22A     -0.854185    23A     -0.849329    24A     -0.837113
      25A     -0.826446    26A     -0.778319    27A     -0.765564
      28A     -0.724534    29A     -0.718274    30A     -0.715775
      31A     -0.710920    32A     -0.677679    33A     -0.673154
      34A     -0.665473    35A     -0.663977    36A     -0.655352
      37A     -0.649859    38A     -0.621109    39A     -0.616749
      40A     -0.557162    41A     -0.504600

  @DF-RHF Final Energy:  -786.27582344950258

   => Energetics <=

    Nuclear Repulsion Energy =            669.7460116817391054
    One-Electron Energy =               -2426.7877902247146267
    Two-Electron Energy =                 970.7659550934731669
    DFT Exchange-Correlation Energy =       0.0000000000000000
    Empirical Dispersion Energy =           0.0000000000000000
    PCM Polarization Energy =               0.0000000000000000
    EFP Energy =                            0.0000000000000000
    Total Energy =                       -786.2758234495022407
    Molecular point group: c1
  Basis Set: 6-31G*
  Basis Set:

  -Total Gradient:
     Atom            X                  Y                   Z
    ------   -----------------  -----------------  -----------------
       1       -0.001007282180     0.000025803218     0.000008190366
       2        0.001509703246    -0.000059567802     0.000118692996
       3       -0.001352544960     0.000173803918    -0.000385248133
       4        0.000018922437     0.000074799652    -0.000124660301
       5        0.000047646598     0.000136144311    -0.000079733998
       6        0.000855862215    -0.000061848261     0.000287178921
       7        0.000010858469    -0.000013138093     0.000056140389
       8       -0.000036889640    -0.000068317293    -0.000004919667
       9       -0.000032944404    -0.000017247304     0.000043096553
      10       -0.000033761095    -0.000016244592     0.000024559618
      11        0.000018560740    -0.000120450659    -0.000025951956
      12        0.000001868576    -0.000053737103     0.000082655217

  **** Optimization is complete! (in 6 steps) ****
    Final optimized geometry and variables:
    Molecular point group: c1

    Geometry (in Angstrom), charge = 0, multiplicity = 1:

    H           -0.234664106386     1.640973760659     1.977626814108
    O           -0.229368160883     1.527167200019     1.038164603597
    C           -0.230183941302     0.184202468311     0.701480271997
    C            1.197069566981    -0.249683832743     0.387746673841
    C           -1.201946455467     0.007442735713    -0.457455126925
    H           -0.577442730661    -0.453009734659     1.505933872223
    F            1.952806774545    -0.007247416845     1.446043960815
    F            1.262832947682    -1.543398633058     0.137040425880
    F            1.707625767078     0.395379174912    -0.635146207429
    F           -2.418380950959     0.321320691149    -0.056734007074
    F           -1.223239118341    -1.247532972595    -0.867206126638
    F           -0.896985950462     0.769384396780    -1.481880339997

  Mulliken Charges: (a.u.)
   Center  Symbol    Alpha    Beta     Spin     Total
       1     H     0.26419  0.26419  0.00000  0.47163
       2     O     4.36165  4.36165  0.00000 -0.72330
       3     C     3.05745  3.05745  0.00000 -0.11491
       4     C     2.43701  2.43701  0.00000  1.12598
       5     C     2.43360  2.43360  0.00000  1.13280
       6     H     0.38689  0.38689  0.00000  0.22623
       7     F     4.68391  4.68391  0.00000 -0.36782
       8     F     4.67691  4.67691  0.00000 -0.35381
       9     F     4.67049  4.67049  0.00000 -0.34099
      10     F     4.67917  4.67917  0.00000 -0.35833
      11     F     4.67821  4.67821  0.00000 -0.35643
      12     F     4.67052  4.67052  0.00000 -0.34104

   Total alpha = 41.00000, Total beta = 41.00000, Total charge =  0.00000
