  ==> Input File <==

--------------------------------------------------------------------------
set {
	reference rhf
	basis cc-pvtz
}

set_num_threads( 4 )
memory 2 gb

molecule MOL {
0 1

H	 2.828711	 -0.346904	 0.001083
C	 1.876752	 0.015931	 -0.363450
C	 0.776285	 -0.474665	 0.563092
H	 1.728113	 -0.357244	 -1.367440
H	 1.906171	 1.096574	 -0.386153
N	 -0.540022	 0.017605	 0.071630
H	 0.707111	 -1.548969	 0.573035
H	 0.886169	 -0.084184	 1.560432
O	 -0.791834	 -0.158161	 -1.072875
O	 -1.234655	 0.577216	 0.851834

	symmetry c1
}
set optking {
	frozen_dihedral = ("
		9 6 3 2
	")
}

ee = optimize('scf')
oeprop('DIPOLE', 'QUADRUPOLE', 'MULLIKEN_CHARGES')
f=open( 'psi4out.xyz', 'w' )
f.write( "10  " )
f.write( str(ee) + "\n" )
f.write( MOL.save_string_xyz() )
f.close()
--------------------------------------------------------------------------

    Molecular point group: c1
  Charge       = 0
  Multiplicity = 1
  Basis Set: CC-PVTZ
  Basis Set:
  @DF-RHF Final Energy:  -282.81266482605275
    Total Energy =                       -282.8126648260527531
    Molecular point group: c1
  Basis Set: CC-PVTZ
  Basis Set:
  Basis Set: CC-PVTZ
  Basis Set:
  @DF-RHF Final Energy:  -282.80858171208581
    Total Energy =                       -282.8085817120859247
  Basis Set: CC-PVTZ
  Basis Set:
  Basis Set: CC-PVTZ
  Basis Set:
  @DF-RHF Final Energy:  -282.81275768109077
    Total Energy =                       -282.8127576810907726
  Basis Set: CC-PVTZ
  Basis Set:
  Basis Set: CC-PVTZ
  Basis Set:
  @DF-RHF Final Energy:  -282.81312710403489
    Total Energy =                       -282.8131271040350043
  Basis Set: CC-PVTZ
  Basis Set:
  Basis Set: CC-PVTZ
  Basis Set:
  @DF-RHF Final Energy:  -282.81313075716128
    Total Energy =                       -282.8131307571612751
  Basis Set: CC-PVTZ
  Basis Set:
  Charge       = 0
  Multiplicity = 1
  Basis Set: CC-PVTZ
  Basis Set:

    Orbital Energies (a.u.)
    -----------------------

    Doubly Occupied:

       1A    -20.593693     2A    -20.590839     3A    -15.839006
       4A    -11.302452     5A    -11.247127     6A     -1.638231
       7A     -1.422512     8A     -1.125041     9A     -0.966971
      10A     -0.837623    11A     -0.764687    12A     -0.743930
      13A     -0.731253    14A     -0.652134    15A     -0.591335
      16A     -0.563072    17A     -0.542253    18A     -0.489613
      19A     -0.479431    20A     -0.455795

  @DF-RHF Final Energy:  -282.81313234884516

   => Energetics <=

    Nuclear Repulsion Energy =            186.6145992618063474
    One-Electron Energy =                -755.7014698943161193
    Two-Electron Energy =                 286.2737382836645565
    DFT Exchange-Correlation Energy =       0.0000000000000000
    Empirical Dispersion Energy =           0.0000000000000000
    PCM Polarization Energy =               0.0000000000000000
    EFP Energy =                            0.0000000000000000
    Total Energy =                       -282.8131323488452153
    Molecular point group: c1
  Basis Set: CC-PVTZ
  Basis Set:

  -Total Gradient:
     Atom            X                  Y                   Z
    ------   -----------------  -----------------  -----------------
       1        0.000013681295    -0.000000490418    -0.000001887367
       2        0.000001072173    -0.000156025177    -0.000126149446
       3        0.000057017929     0.000303053465     0.000116988437
       4       -0.000002900182     0.000005434464     0.000012536832
       5        0.000003068540    -0.000006271027    -0.000003422005
       6       -0.000157024102    -0.000432748481    -0.000034354556
       7       -0.000005939520    -0.000005558183     0.000000784332
       8       -0.000015929540     0.000011533943    -0.000014992100
       9        0.000146940682     0.000246436567    -0.000005799242
      10       -0.000039987280     0.000034634846     0.000056295112

  **** Optimization is complete! (in 6 steps) ****
    Final optimized geometry and variables:
    Molecular point group: c1

    Geometry (in Angstrom), charge = 0, multiplicity = 1:

    H            2.846391258762    -0.352537440596     0.014497331015
    C            1.905043854293     0.011935523640    -0.376566346582
    C            0.790049506735    -0.453313155266     0.538915479709
    H            1.771256408659    -0.368955514495    -1.377087968929
    H            1.949518702208     1.092742362932    -0.415562296889
    N           -0.542328273288     0.026632246238     0.068787541106
    H            0.707216742568    -1.530523630585     0.548385956523
    H            0.891010368348    -0.087684467870     1.545298228069
    O           -0.815266950302    -0.158231668586    -1.069667742651
    O           -1.246397404734     0.544624131058     0.867764388055

  Mulliken Charges: (a.u.)
   Center  Symbol    Alpha    Beta     Spin     Total
       1     H     0.44891  0.44891  0.00000  0.10218
       2     C     3.14123  3.14123  0.00000 -0.28246
       3     C     3.03917  3.03917  0.00000 -0.07834
       4     H     0.43637  0.43637  0.00000  0.12726
       5     H     0.44528  0.44528  0.00000  0.10945
       6     N     3.27794  3.27794  0.00000  0.44413
       7     H     0.43748  0.43748  0.00000  0.12505
       8     H     0.43167  0.43167  0.00000  0.13667
       9     O     4.17344  4.17344  0.00000 -0.34689
      10     O     4.16853  4.16853  0.00000 -0.33706

   Total alpha = 20.00000, Total beta = 20.00000, Total charge = -0.00000
