                              Psi4 1.0.54 Driver

  ==> Input File <==

--------------------------------------------------------------------------
set {
	reference rhf
	basis cc-pvtz
}

set_num_threads( 4 )
memory 2 gb

molecule MOL {
0 1

O	 0.623971	 1.347241	 -0.000777
C	 0.485107	 0.171416	 -0.000134
C	 1.606966	 -0.836201	 0.000174
O	 -0.695554	 -0.422406	 0.000602
C	 2.988788	 -0.202529	 -0.000115
H	 1.465110	 -1.474645	 -0.864821
H	 1.465209	 -1.474077	 0.865596
H	 3.131767	 0.419673	 -0.873407
H	 3.750876	 -0.972315	 0.000098
H	 3.131883	 0.420264	 0.872742
C	 -1.386198	 -0.526142	 -1.236547
C	 -2.693803	 -1.237032	 -0.977140
H	 -0.771311	 -1.070253	 -1.939544
H	 -1.545938	 0.465449	 -1.635989
H	 -2.521344	 -2.228082	 -0.576578
H	 -3.247613	 -1.333309	 -1.903562
H	 -3.300418	 -0.683626	 -0.271357

	symmetry c1
}
set optking {
	frozen_dihedral = ("
		11 4 2 3
	")
}

ee,wfn = optimize('scf', return_wfn=True)
oeprop( wfn, 'DIPOLE', 'QUADRUPOLE', 'MULLIKEN_CHARGES')
f=open( 'psi4out.xyz', 'w' )
f.write( "17  " )
f.write( str(ee) + "\n" )
f.write( MOL.save_string_xyz() )
f.close()
--------------------------------------------------------------------------

    Molecular point group: c1
  Charge       = 0
  Multiplicity = 1
  Basis Set: CC-PVTZ
  Basis Set:
  @DF-RHF Final Energy:  -345.02200031759367
    Total Energy =                       -345.0220003175932106
    Molecular point group: c1
  Basis Set: CC-PVTZ
  Basis Set:
  Basis Set: CC-PVTZ
  Basis Set:
  @DF-RHF Final Energy:  -345.02276238362316
    Total Energy =                       -345.0227623836228759
  Basis Set: CC-PVTZ
  Basis Set:
  Basis Set: CC-PVTZ
  Basis Set:
  @DF-RHF Final Energy:  -345.02217807319630
    Total Energy =                       -345.0221780731962440
  Basis Set: CC-PVTZ
  Basis Set:
  Basis Set: CC-PVTZ
  Basis Set:
  @DF-RHF Final Energy:  -345.02299097495171
    Total Energy =                       -345.0229909749512558
  Basis Set: CC-PVTZ
  Basis Set:
  Basis Set: CC-PVTZ
  Basis Set:
  @DF-RHF Final Energy:  -345.02302069525979
    Total Energy =                       -345.0230206952595609
  Basis Set: CC-PVTZ
  Basis Set:
  Basis Set: CC-PVTZ
  Basis Set:
  @DF-RHF Final Energy:  -345.02302293397207
    Total Energy =                       -345.0230229339720154
  Basis Set: CC-PVTZ
  Basis Set:
  Charge       = 0
  Multiplicity = 1
  Basis Set: CC-PVTZ
  Basis Set:

    Orbital Energies (a.u.)
    -----------------------

    Doubly Occupied:

       1A    -20.574903     2A    -20.544447     3A    -11.366634
       4A    -11.291704     5A    -11.240127     6A    -11.222027
       7A    -11.216809     8A     -1.460694     9A     -1.368131
      10A     -1.066896    11A     -1.036335    12A     -0.906431
      13A     -0.861619    14A     -0.770871    15A     -0.703060
      16A     -0.685966    17A     -0.659159    18A     -0.636789
      19A     -0.604338    20A     -0.564319    21A     -0.557137
      22A     -0.529838    23A     -0.526446    24A     -0.521242
      25A     -0.506476    26A     -0.493082    27A     -0.452828
      28A     -0.437271

  @DF-RHF Final Energy:  -345.02302304461148

   => Energetics <=

    Nuclear Repulsion Energy =            314.9281271153189437
    One-Electron Energy =               -1094.2911434726813695
    Two-Electron Energy =                 434.3399933127509485
    DFT Exchange-Correlation Energy =       0.0000000000000000
    Empirical Dispersion Energy =           0.0000000000000000
    PCM Polarization Energy =               0.0000000000000000
    EFP Energy =                            0.0000000000000000
    Total Energy =                       -345.0230230446114774
    Molecular point group: c1
  Basis Set: CC-PVTZ
  Basis Set:

  -Total Gradient:
     Atom            X                  Y                   Z
    ------   -----------------  -----------------  -----------------
       1        0.000017898938     0.000058354850    -0.000001490209
       2        0.000852656114    -0.001642103895     0.004782816472
       3       -0.000041085260    -0.000011986858    -0.003534028345
       4       -0.002516573570     0.005021125785    -0.000575793186
       5       -0.000005454370     0.000003674939    -0.000004480955
       6        0.000003444971    -0.000005983983     0.000003642618
       7        0.000006550409    -0.000000444385    -0.000015167448
       8       -0.000001506534    -0.000006033329     0.000009522381
       9       -0.000004054016     0.000001512495     0.000000649566
      10       -0.000000278022    -0.000003154087    -0.000005504518
      11        0.001705698081    -0.003403629757    -0.000678947303
      12       -0.000011523850    -0.000005900157     0.000001086720
      13       -0.000004453824     0.000009722826     0.000024842988
      14       -0.000004096031    -0.000010688386    -0.000005320383
      15       -0.000002511532     0.000001025679    -0.000000769267
      16        0.000003042793    -0.000002283038     0.000004120024
      17        0.000002245703    -0.000003208692    -0.000005179156

  **** Optimization is complete! (in 7 steps) ****
    Final optimized geometry and variables:
    Molecular point group: c1

    Geometry (in Angstrom), charge = 0, multiplicity = 1:

    O            0.488110662959     1.567790666136     0.299455486775
    C            0.375294076869     0.396421954847     0.320350389632
    C            1.521509446235    -0.581309602699     0.319383583249
    O           -0.832162413850    -0.202935777191     0.335533366076
    C            2.892524696615     0.074488219677     0.335060364977
    H            1.396265483963    -1.211835545829    -0.555765218602
    H            1.384334327797    -1.237571748834     1.172177024692
    H            3.030036643110     0.710490232109    -0.529184642390
    H            3.668730688584    -0.681011524011     0.331478422891
    H            3.017929722953     0.688595583575     1.216813105428
    C           -1.513552110106    -0.301645665258    -0.903878503030
    C           -2.849731748987    -0.961542418328    -0.658542197041
    H           -0.918425742957    -0.889515281051    -1.596058299055
    H           -1.640423002730     0.690104035530    -1.319600950482
    H           -2.716925191284    -1.950081077089    -0.237732587531
    H           -3.392300827536    -1.053450688490    -1.592174203202
    H           -3.441708356665    -0.371890339651     0.029079878351

  Mulliken Charges: (a.u.)
   Center  Symbol    Alpha    Beta     Spin     Total
       1     O     4.17266  4.17266  0.00000 -0.34532
       2     C     2.79697  2.79697  0.00000  0.40605
       3     C     3.10349  3.10349  0.00000 -0.20698
       4     O     4.17364  4.17364  0.00000 -0.34727
       5     C     3.13853  3.13853  0.00000 -0.27705
       6     H     0.44589  0.44589  0.00000  0.10821
       7     H     0.43942  0.43942  0.00000  0.12116
       8     H     0.44861  0.44861  0.00000  0.10279
       9     H     0.45067  0.45067  0.00000  0.09867
      10     H     0.44678  0.44678  0.00000  0.10643
      11     C     2.97587  2.97587  0.00000  0.04827
      12     C     3.13472  3.13472  0.00000 -0.26945
      13     H     0.46692  0.46692  0.00000  0.06616
      14     H     0.45197  0.45197  0.00000  0.09606
      15     H     0.45083  0.45083  0.00000  0.09834
      16     H     0.45664  0.45664  0.00000  0.08672
      17     H     0.44640  0.44640  0.00000  0.10721

   Total alpha = 28.00000, Total beta = 28.00000, Total charge =  0.00000

*** Psi4 exiting successfully. Buy a developer a beer!
