                              Psi4 1.0.54 Driver

  ==> Input File <==

--------------------------------------------------------------------------
set {
	reference rhf
	basis cc-pvtz
}

set_num_threads( 4 )
memory 2 gb

molecule MOL {
0 1

O	 -2.440855	 -0.934833	 -0.415062
C	 -1.923132	 0.063230	 -0.045014
C	 -2.632903	 1.372169	 0.158348
O	 -0.637529	 0.157139	 0.243140
H	 -2.187878	 2.129108	 -0.474673
H	 -3.677835	 1.257241	 -0.079447
H	 -2.516942	 1.693125	 1.185533
C	 0.162376	 -1.009553	 0.097790
C	 1.587056	 -0.664225	 0.477077
H	 0.096649	 -1.356302	 -0.924713
H	 -0.233957	 -1.785935	 0.736801
C	 2.256616	 0.342697	 -0.454353
H	 2.154562	 -1.590869	 0.479032
H	 1.598597	 -0.289649	 1.496095
C	 3.697992	 0.643170	 -0.057154
H	 2.234884	 -0.042610	 -1.470308
H	 1.683337	 1.262559	 -0.461309
H	 4.150048	 1.356513	 -0.736251
H	 4.305309	 -0.255939	 -0.069851
H	 3.748976	 1.061033	 0.942750

	symmetry c1
}
ee,wfn = energy('scf', return_wfn=True)
oeprop( wfn, 'DIPOLE', 'QUADRUPOLE', 'MULLIKEN_CHARGES')
oeprop( wfn, 'GRID_ESP')
f=open( 'psi4out.xyz', 'w' )
f.write( "20  " )
f.write( str(ee) + "\n" )
f.write( MOL.save_string_xyz() )
f.close()
--------------------------------------------------------------------------

    Molecular point group: c1

    Geometry (in Angstrom), charge = 0, multiplicity = 1:

       Center              X                  Y                   Z               Mass
    ------------   -----------------  -----------------  -----------------  -----------------
           O         -2.440701488924    -0.934797564216    -0.415053294563    15.994914619560
           C         -1.922978488924     0.063265435784    -0.045005294563    12.000000000000
           C         -2.632749488924     1.372204435784     0.158356705437    12.000000000000
           O         -0.637375488924     0.157174435784     0.243148705437    15.994914619560
           H         -2.187724488924     2.129143435784    -0.474664294563     1.007825032070
           H         -3.677681488924     1.257276435784    -0.079438294563     1.007825032070
           H         -2.516788488924     1.693160435784     1.185541705437     1.007825032070
           C          0.162529511076    -1.009517564216     0.097798705437    12.000000000000
           C          1.587209511076    -0.664189564216     0.477085705437    12.000000000000
           H          0.096802511076    -1.356266564216    -0.924704294563     1.007825032070
           H         -0.233803488924    -1.785899564216     0.736809705437     1.007825032070
           C          2.256769511076     0.342732435784    -0.454344294563    12.000000000000
           H          2.154715511076    -1.590833564216     0.479040705437     1.007825032070
           H          1.598750511076    -0.289613564216     1.496103705437     1.007825032070
           C          3.698145511076     0.643205435784    -0.057145294563    12.000000000000
           H          2.235037511076    -0.042574564216    -1.470299294563     1.007825032070
           H          1.683490511076     1.262594435784    -0.461300294563     1.007825032070
           H          4.150201511076     1.356548435784    -0.736242294563     1.007825032070
           H          4.305462511076    -0.255903564216    -0.069842294563     1.007825032070
           H          3.749129511076     1.061068435784     0.942758705437     1.007825032070

  Charge       = 0
  Multiplicity = 1
  Basis Set: CC-PVTZ
  Basis Set:

    Orbital Energies (a.u.)
    -----------------------

    Doubly Occupied:

       1A    -20.594385     2A    -20.532685     3A    -11.366716
       4A    -11.280237     5A    -11.231668     6A    -11.223594
       7A    -11.218902     8A    -11.211631     9A     -1.471030
      10A     -1.365215    11A     -1.087227    12A     -1.029238
      13A     -0.982274    14A     -0.881291    15A     -0.812331
      16A     -0.776897    17A     -0.692539    18A     -0.686705
      19A     -0.670227    20A     -0.632625    21A     -0.601868
      22A     -0.594135    23A     -0.573009    24A     -0.551720
      25A     -0.546020    26A     -0.532913    27A     -0.513144
      28A     -0.484253    29A     -0.475486    30A     -0.474202
      31A     -0.451782    32A     -0.442090

  @DF-RHF Final Energy:  -384.08757477657605

   => Energetics <=

    Nuclear Repulsion Energy =            385.6320645552353881
    One-Electron Energy =               -1287.4628963504962940
    Two-Electron Energy =                 517.7432570186850853
    DFT Exchange-Correlation Energy =       0.0000000000000000
    Empirical Dispersion Energy =           0.0000000000000000
    PCM Polarization Energy =               0.0000000000000000
    EFP Energy =                            0.0000000000000000
    Total Energy =                       -384.0875747765758206

  Mulliken Charges: (a.u.)
   Center  Symbol    Alpha    Beta     Spin     Total
       1     O     4.19728  4.19728  0.00000 -0.39457
       2     C     2.80879  2.80879  0.00000  0.38242
       3     C     3.13845  3.13845  0.00000 -0.27691
       4     O     4.15347  4.15347  0.00000 -0.30693
       5     H     0.44610  0.44610  0.00000  0.10780
       6     H     0.43779  0.43779  0.00000  0.12442
       7     H     0.44572  0.44572  0.00000  0.10856
       8     C     2.99350  2.99350  0.00000  0.01300
       9     C     3.08423  3.08423  0.00000 -0.16846
      10     H     0.45101  0.45101  0.00000  0.09797
      11     H     0.44454  0.44454  0.00000  0.11092
      12     C     3.08619  3.08619  0.00000 -0.17238
      13     H     0.45165  0.45165  0.00000  0.09670
      14     H     0.45188  0.45188  0.00000  0.09624
      15     C     3.15016  3.15016  0.00000 -0.30032
      16     H     0.45498  0.45498  0.00000  0.09005
      17     H     0.44719  0.44719  0.00000  0.10562
      18     H     0.44735  0.44735  0.00000  0.10530
      19     H     0.45541  0.45541  0.00000  0.08917
      20     H     0.45431  0.45431  0.00000  0.09138

   Total alpha = 32.00000, Total beta = 32.00000, Total charge =  0.00000

*** Psi4 exiting successfully. Buy a developer a beer!
