                              Psi4 1.0.54 Driver

  ==> Input File <==

--------------------------------------------------------------------------
set {
	reference rhf
	basis cc-pvtz
}

set_num_threads( 4 )
memory 2 gb

molecule MOL {
0 1

H	 2.550622	 -0.928661	 1.113216
N	 1.573185	 -0.735769	 1.131069
C	 0.822549	 -1.842726	 0.573366
C	 1.283528	 0.505384	 0.441517
H	 1.047880	 -2.741696	 1.134108
H	 1.073281	 -2.027963	 -0.472789
C	 -0.662525	 -1.544114	 0.670635
H	 1.842895	 1.307910	 0.906719
H	 1.563385	 0.468503	 -0.612968
C	 -0.202150	 0.800920	 0.538960
H	 -0.950418	 -1.512508	 1.725486
H	 -1.223522	 -2.343492	 0.201172
N	 -0.976577	 -0.298712	 -0.000000
H	 -0.430267	 1.697149	 -0.025713
H	 -0.458327	 0.994078	 1.584739
C	 -2.391156	 -0.021003	 -0.000000
H	 -2.853954	 -0.458728	 -0.875714
H	 -2.853954	 -0.458728	 0.875714
H	 -2.614037	 1.049773	 -0.000000

	symmetry c1
}
set optking {
	frozen_dihedral = ("
		7 13 16 19
	")
}

ee,wfn = optimize('scf', return_wfn=True)
oeprop( wfn, 'DIPOLE', 'QUADRUPOLE', 'MULLIKEN_CHARGES')
f=open( 'psi4out.xyz', 'w' )
f.write( "19  " )
f.write( str(ee) + "\n" )
f.write( MOL.save_string_xyz() )
f.close()
--------------------------------------------------------------------------

    Molecular point group: c1
  Charge       = 0
  Multiplicity = 1
  Basis Set: CC-PVTZ
  Basis Set:
  @DF-RHF Final Energy:  -305.30472257404222
    Total Energy =                       -305.3047225740425006
    Molecular point group: c1
  Basis Set: CC-PVTZ
  Basis Set:
  Basis Set: CC-PVTZ
  Basis Set:
  @DF-RHF Final Energy:  -305.30541643524953
    Total Energy =                       -305.3054164352499242
  Basis Set: CC-PVTZ
  Basis Set:
  Basis Set: CC-PVTZ
  Basis Set:
  @DF-RHF Final Energy:  -305.30551513882028
    Total Energy =                       -305.3055151388198283
  Basis Set: CC-PVTZ
  Basis Set:
  Charge       = 0
  Multiplicity = 1
  Basis Set: CC-PVTZ
  Basis Set:

    Orbital Energies (a.u.)
    -----------------------

    Doubly Occupied:

       1A    -15.535914     2A    -15.530868     3A    -11.236892
       4A    -11.236836     5A    -11.235872     6A    -11.235653
       7A    -11.233047     8A     -1.247897     9A     -1.186629
      10A     -1.023430    11A     -0.965187    12A     -0.861102
      13A     -0.858854    14A     -0.758120    15A     -0.692422
      16A     -0.632914    17A     -0.625613    18A     -0.608513
      19A     -0.605365    20A     -0.581226    21A     -0.543752
      22A     -0.533256    23A     -0.511958    24A     -0.489184
      25A     -0.466359    26A     -0.457540    27A     -0.365620
      28A     -0.347312

  @DF-RHF Final Energy:  -305.30551771502883

   => Energetics <=

    Nuclear Repulsion Energy =            340.0971968290173209
    One-Electron Energy =               -1087.5907520836140066
    Two-Electron Energy =                 442.1880375395679152
    DFT Exchange-Correlation Energy =       0.0000000000000000
    Empirical Dispersion Energy =           0.0000000000000000
    PCM Polarization Energy =               0.0000000000000000
    EFP Energy =                            0.0000000000000000
    Total Energy =                       -305.3055177150287705
    Molecular point group: c1
  Basis Set: CC-PVTZ
  Basis Set:

  -Total Gradient:
     Atom            X                  Y                   Z
    ------   -----------------  -----------------  -----------------
       1       -0.000015491224     0.000021800501    -0.000001645906
       2       -0.000014604726    -0.000003974237    -0.000001568306
       3        0.000024381147     0.000055100244    -0.000094298539
       4        0.000065187393     0.000085145196     0.000102601971
       5       -0.000029379818     0.000021502310    -0.000003757296
       6        0.000029409704    -0.000023293217    -0.000025502355
       7        0.000248995647     0.001884018762     0.003202421068
       8        0.000079905866    -0.000004137981     0.000011411888
       9       -0.000040678203    -0.000010462255     0.000031726200
      10        0.000020159666    -0.000117344598    -0.000133471686
      11       -0.000031739528     0.000005608328     0.000020129711
      12       -0.000008875472     0.000010125311    -0.000002246749
      13       -0.000532218548    -0.002492012706    -0.002987607939
      14        0.000016299298    -0.000011556474     0.000015411350
      15        0.000043012461     0.000002513941    -0.000011883058
      16        0.000228899246     0.000677380489    -0.004988615280
      17       -0.000022137709    -0.000014118611    -0.000025208887
      18        0.000004034605    -0.000011227337     0.000025041612
      19       -0.000065159804    -0.000075067669     0.004867062199

  **** Optimization is complete! (in 4 steps) ****
    Final optimized geometry and variables:
    Molecular point group: c1

    Geometry (in Angstrom), charge = 0, multiplicity = 1:

    H            2.632307417902    -0.517525546579     0.644717586748
    N            1.656839384931    -0.314511650539     0.661616977886
    C            0.895295540816    -1.406280385433     0.089721892663
    C            1.382419694966     0.937291825747    -0.014160994337
    H            1.102344453667    -2.312568067813     0.645980641073
    H            1.151068283765    -1.588398874375    -0.955818813048
    C           -0.585295060801    -1.085193915790     0.179279160387
    H            1.946616628652     1.729169431218     0.463751033094
    H            1.667867814115     0.910450499895    -1.067534215377
    C           -0.101145834159     1.247906386479     0.074948260392
    H           -0.879017864087    -1.046201441544     1.231761093857
    H           -1.155678683202    -1.878712175922    -0.290413148389
    N           -0.882204798801     0.164437368500    -0.492633454271
    H           -0.308769128193     2.155158392466    -0.478849177589
    H           -0.362637072024     1.429175570262     1.121526234530
    C           -2.304427518973     0.443427362424    -0.510242161263
    H           -2.777107248391     0.006505752907    -1.381787072570
    H           -2.808434756309     0.054123895342     0.375962914678
    H           -2.480211398084     1.510970488628    -0.508580359817

  Mulliken Charges: (a.u.)
   Center  Symbol    Alpha    Beta     Spin     Total
       1     H     0.44001  0.44001  0.00000  0.11998
       2     N     3.64287  3.64287  0.00000 -0.28574
       3     C     3.04133  3.04133  0.00000 -0.08266
       4     C     3.04200  3.04200  0.00000 -0.08400
       5     H     0.45260  0.45260  0.00000  0.09480
       6     H     0.46545  0.46545  0.00000  0.06910
       7     C     3.03568  3.03568  0.00000 -0.07135
       8     H     0.45259  0.45259  0.00000  0.09482
       9     H     0.46564  0.46564  0.00000  0.06873
      10     C     3.03324  3.03324  0.00000 -0.06648
      11     H     0.46768  0.46768  0.00000  0.06465
      12     H     0.45378  0.45378  0.00000  0.09244
      13     N     3.61663  3.61663  0.00000 -0.23326
      14     H     0.45398  0.45398  0.00000  0.09204
      15     H     0.46916  0.46916  0.00000  0.06167
      16     C     3.09465  3.09465  0.00000 -0.18930
      17     H     0.44937  0.44937  0.00000  0.10125
      18     H     0.46747  0.46747  0.00000  0.06507
      19     H     0.45588  0.45588  0.00000  0.08825

   Total alpha = 28.00000, Total beta = 28.00000, Total charge =  0.00000

*** Psi4 exiting successfully. Buy a developer a beer!
