  ==> Input File <==

--------------------------------------------------------------------------
set {
	reference rhf
	basis 6-31G*
}

set_num_threads( 1 )
memory 2 gb

molecule MOL {
0 1

H	 3.893188	 0.355400	 -0.101367
N	 3.092854	 -0.246221	 -0.068770
C	 1.865559	 0.531981	 0.018834
H	 3.199514	 -0.826043	 0.741946
C	 0.645745	 -0.382037	 -0.029944
H	 1.841966	 1.207024	 -0.831236
H	 1.815756	 1.155410	 0.915079
C	 -0.679275	 0.379305	 0.025956
H	 0.698998	 -0.976915	 -0.937203
H	 0.693479	 -1.083846	 0.802235
C	 -1.841572	 -0.470969	 0.542167
H	 -0.923390	 0.752027	 -0.967692
H	 -0.568928	 1.256802	 0.661306
C	 -3.164416	 0.292615	 0.592492
H	 -1.954558	 -1.347595	 -0.091848
H	 -1.601592	 -0.842702	 1.536089
H	 -3.449413	 0.648482	 -0.393637
H	 -3.968432	 -0.336540	 0.961717
H	 -3.093815	 1.156983	 1.246920

	symmetry c1
}
set optking {
	frozen_dihedral = ("
		6 3 5 9,
		12 8 11 15,
		1 2 3 6
	")
}

ee = energy('scf')
oeprop('DIPOLE', 'QUADRUPOLE', 'MULLIKEN_CHARGES')
f=open( 'psi4out.xyz', 'w' )
f.write( "19  " )
f.write( str(ee) + "\n" )
f.write( MOL.save_string_xyz() )
f.close()
--------------------------------------------------------------------------

    Molecular point group: c1

    Geometry (in Angstrom), charge = 0, multiplicity = 1:

       Center              X                  Y                   Z               Mass
    ------------   -----------------  -----------------  -----------------  -----------------
           H          3.872775938335     0.333700526209    -0.289658533774     1.007825032070
           N          3.072441938335    -0.267920473791    -0.257061533774    14.003074004780
           C          1.845146938335     0.510281526209    -0.169457533774    12.000000000000
           H          3.179101938335    -0.847742473791     0.553654466226     1.007825032070
           C          0.625332938335    -0.403736473791    -0.218235533774    12.000000000000
           H          1.821553938335     1.185324526209    -1.019527533774     1.007825032070
           H          1.795343938335     1.133710526209     0.726787466226     1.007825032070
           C         -0.699687061665     0.357605526209    -0.162335533774    12.000000000000
           H          0.678585938335    -0.998614473791    -1.125494533774     1.007825032070
           H          0.673066938335    -1.105545473791     0.613943466226     1.007825032070
           C         -1.861984061665    -0.492668473791     0.353875466226    12.000000000000
           H         -0.943802061665     0.730327526209    -1.155983533774     1.007825032070
           H         -0.589340061665     1.235102526209     0.473014466226     1.007825032070
           C         -3.184828061665     0.270915526209     0.404200466226    12.000000000000
           H         -1.974970061665    -1.369294473791    -0.280139533774     1.007825032070
           H         -1.622004061665    -0.864401473791     1.347797466226     1.007825032070
           H         -3.469825061665     0.626782526209    -0.581928533774     1.007825032070
           H         -3.988844061665    -0.358239473791     0.773425466226     1.007825032070
           H         -3.114227061665     1.135283526209     1.058628466226     1.007825032070

  Charge       = 0
  Multiplicity = 1
  Basis Set: 6-31G*
  Basis Set:

    Orbital Energies (a.u.)
    -----------------------

    Doubly Occupied:

       1A    -15.532404     2A    -11.239921     3A    -11.214293
       4A    -11.212253     5A    -11.208911     6A    -11.207521
       7A     -1.176584     8A     -1.073071     9A     -0.998321
      10A     -0.900111    11A     -0.813492    12A     -0.789445
      13A     -0.664790    14A     -0.641490    15A     -0.614786
      16A     -0.591626    17A     -0.562026    18A     -0.548486
      19A     -0.534008    20A     -0.495236    21A     -0.483793
      22A     -0.465205    23A     -0.459505    24A     -0.448267
      25A     -0.381217

  @DF-RHF Final Energy:  -251.35001814936240

   => Energetics <=

    Nuclear Repulsion Energy =            245.8625172287295584
    One-Electron Energy =                -825.9115701922912649
    Two-Electron Energy =                 328.6990348141994218
    DFT Exchange-Correlation Energy =       0.0000000000000000
    Empirical Dispersion Energy =           0.0000000000000000
    PCM Polarization Energy =               0.0000000000000000
    EFP Energy =                            0.0000000000000000
    Total Energy =                       -251.3500181493623131

  Mulliken Charges: (a.u.)
   Center  Symbol    Alpha    Beta     Spin     Total
       1     H     0.33252  0.33252  0.00000  0.33497
       2     N     3.92203  3.92203  0.00000 -0.84406
       3     C     3.06131  3.06131  0.00000 -0.12262
       4     H     0.33531  0.33531  0.00000  0.32937
       5     C     3.15208  3.15208  0.00000 -0.30417
       6     H     0.42076  0.42076  0.00000  0.15847
       7     H     0.43449  0.43449  0.00000  0.13102
       8     C     3.15557  3.15557  0.00000 -0.31115
       9     H     0.41196  0.41196  0.00000  0.17608
      10     H     0.42741  0.42741  0.00000  0.14519
      11     C     3.15185  3.15185  0.00000 -0.30370
      12     H     0.42159  0.42159  0.00000  0.15682
      13     H     0.42486  0.42486  0.00000  0.15029
      14     C     3.23953  3.23953  0.00000 -0.47905
      15     H     0.42190  0.42190  0.00000  0.15621
      16     H     0.42347  0.42347  0.00000  0.15306
      17     H     0.42167  0.42167  0.00000  0.15666
      18     H     0.41949  0.41949  0.00000  0.16102
      19     H     0.42221  0.42221  0.00000  0.15558

   Total alpha = 25.00000, Total beta = 25.00000, Total charge = -0.00000
