  ==> Input File <==

--------------------------------------------------------------------------
set {
	reference rhf
	basis 6-31G*
}

set_num_threads( 4 )
memory 2 gb

molecule MOL {
0 1

H	 -0.821032	 -1.655889	 0.000000
O	 -1.037828	 -0.728600	 0.000000
C	 0.100509	 -0.036935	 0.000000
C	 1.291163	 -0.919910	 -0.242074
O	 0.130929	 1.136940	 0.174107
H	 1.342175	 -1.681945	 0.526962
H	 2.191032	 -0.323814	 -0.234641
H	 1.184370	 -1.422230	 -1.196530

	symmetry c1
}
set optking {
	frozen_dihedral = ("
		4 3 2 1
	")
}

ee = optimize('scf')
oeprop('DIPOLE', 'QUADRUPOLE', 'MULLIKEN_CHARGES')
f=open( 'psi4out.xyz', 'w' )
f.write( "8  " )
f.write( str(ee) + "\n" )
f.write( MOL.save_string_xyz() )
f.close()
--------------------------------------------------------------------------

    Molecular point group: c1
  Charge       = 0
  Multiplicity = 1
  Basis Set: 6-31G*
  Basis Set:
  @DF-RHF Final Energy:  -227.79680563247388
    Total Energy =                       -227.7968056324738768
    Molecular point group: c1
  Basis Set: 6-31G*
  Basis Set:
  Basis Set: 6-31G*
  Basis Set:
  @DF-RHF Final Energy:  -227.79783856094667
    Total Energy =                       -227.7978385609466727
  Basis Set: 6-31G*
  Basis Set:
  Basis Set: 6-31G*
  Basis Set:
  @DF-RHF Final Energy:  -227.79646409611286
    Total Energy =                       -227.7964640961129135
  Basis Set: 6-31G*
  Basis Set:
  Basis Set: 6-31G*
  Basis Set:
  @DF-RHF Final Energy:  -227.79851392097447
    Total Energy =                       -227.7985139209744148
  Basis Set: 6-31G*
  Basis Set:
  Basis Set: 6-31G*
  Basis Set:
  @DF-RHF Final Energy:  -227.79853045975079
    Total Energy =                       -227.7985304597508218
  Basis Set: 6-31G*
  Basis Set:
  Basis Set: 6-31G*
  Basis Set:
  @DF-RHF Final Energy:  -227.79853156120888
    Total Energy =                       -227.7985315612088755
  Basis Set: 6-31G*
  Basis Set:
  Basis Set: 6-31G*
  Basis Set:
  @DF-RHF Final Energy:  -227.79853260947186
    Total Energy =                       -227.7985326094718630
  Basis Set: 6-31G*
  Basis Set:
  Charge       = 0
  Multiplicity = 1
  Basis Set: 6-31G*
  Basis Set:

    Orbital Energies (a.u.)
    -----------------------

    Doubly Occupied:

       1A    -20.615511     2A    -20.549208     3A    -11.385633
       4A    -11.252614     5A     -1.470938     6A     -1.372559
       7A     -1.027770     8A     -0.840629     9A     -0.721253
      10A     -0.668059    11A     -0.655637    12A     -0.602619
      13A     -0.572576    14A     -0.554294    15A     -0.476946
      16A     -0.445775

  @DF-RHF Final Energy:  -227.79853269142887

   => Energetics <=

    Nuclear Repulsion Energy =            122.2220382904548472
    One-Electron Energy =                -553.6170977676521261
    Two-Electron Energy =                 203.5965267857683330
    DFT Exchange-Correlation Energy =       0.0000000000000000
    Empirical Dispersion Energy =           0.0000000000000000
    PCM Polarization Energy =               0.0000000000000000
    EFP Energy =                            0.0000000000000000
    Total Energy =                       -227.7985326914289317
    Molecular point group: c1
  Basis Set: 6-31G*
  Basis Set:

  -Total Gradient:
     Atom            X                  Y                   Z
    ------   -----------------  -----------------  -----------------
       1        0.000027227033    -0.000000542566     0.002020917768
       2       -0.000027900145     0.000085411456    -0.003088712364
       3        0.000120268252    -0.000256237837     0.002144172445
       4       -0.000131528890     0.000175503832    -0.001187784689
       5        0.000027347313    -0.000005085907     0.000111735391
       6        0.000000686889    -0.000007799635    -0.000001764934
       7       -0.000013116434     0.000012441649     0.000003065108
       8       -0.000002984017    -0.000003690995    -0.000001628724

  **** Optimization is complete! (in 8 steps) ****
    Final optimized geometry and variables:
    Molecular point group: c1

    Geometry (in Angstrom), charge = 0, multiplicity = 1:

    H           -1.049881386039    -1.479138383277     0.038275658634
    O           -1.166916246278    -0.538762796641     0.035829804832
    C            0.000778220665     0.114957047882     0.023108259588
    C            1.218322380462    -0.745687165971    -0.221796881717
    O            0.032153863670     1.286516232308     0.164660919270
    H            1.301046879718    -1.520632704172     0.534655125133
    H            2.103023175105    -0.128412698570    -0.198578107034
    H            1.139691814172    -1.229210407590    -1.190534575678

  Mulliken Charges: (a.u.)
   Center  Symbol    Alpha    Beta     Spin     Total
       1     H     0.26886  0.26886  0.00000  0.46228
       2     O     4.34530  4.34530  0.00000 -0.69060
       3     C     2.62347  2.62347  0.00000  0.75306
       4     C     3.31140  3.31140  0.00000 -0.62279
       5     O     4.25913  4.25913  0.00000 -0.51825
       6     H     0.40550  0.40550  0.00000  0.18901
       7     H     0.38634  0.38634  0.00000  0.22731
       8     H     0.40000  0.40000  0.00000  0.19999

   Total alpha = 16.00000, Total beta = 16.00000, Total charge =  0.00000
