  ==> Input File <==

--------------------------------------------------------------------------
set {
	reference rhf
	basis cc-pvtz
}

set_num_threads( 4 )
memory 2 gb

molecule MOL {
0 1

O	 -0.283482	 1.290847	 0.363835
C	 -0.442760	 0.130815	 0.194029
C	 -1.775512	 -0.561169	 0.169840
O	 0.550743	 -0.719877	 0.000412
H	 -1.910661	 -1.055290	 -0.783567
H	 -2.560111	 0.160277	 0.329385
H	 -1.804078	 -1.320494	 0.940583
C	 1.863204	 -0.194033	 0.000410
H	 2.031502	 0.409177	 -0.879273
H	 2.524488	 -1.045142	 0.000793
H	 2.031291	 0.409823	 0.879686

	symmetry c1
}
set optking {
	frozen_dihedral = ("
		2 4 8 9
	")
}

ee = optimize('scf')
oeprop('DIPOLE', 'QUADRUPOLE', 'MULLIKEN_CHARGES')
f=open( 'psi4out.xyz', 'w' )
f.write( "11  " )
f.write( str(ee) + "\n" )
f.write( MOL.save_string_xyz() )
f.close()
--------------------------------------------------------------------------

    Molecular point group: c1
  Charge       = 0
  Multiplicity = 1
  Basis Set: CC-PVTZ
  Basis Set:
  @DF-RHF Final Energy:  -266.93908535948441
    Total Energy =                       -266.9390853594843520
    Molecular point group: c1
  Basis Set: CC-PVTZ
  Basis Set:
  Basis Set: CC-PVTZ
  Basis Set:
  @DF-RHF Final Energy:  -266.93909542968868
    Total Energy =                       -266.9390954296885070
  Basis Set: CC-PVTZ
  Basis Set:
  Basis Set: CC-PVTZ
  Basis Set:
  @DF-RHF Final Energy:  -266.93904982831128
    Total Energy =                       -266.9390498283114539
  Basis Set: CC-PVTZ
  Basis Set:
  Basis Set: CC-PVTZ
  Basis Set:
  @DF-RHF Final Energy:  -266.93910194812560
    Total Energy =                       -266.9391019481254830
  Basis Set: CC-PVTZ
  Basis Set:
  Charge       = 0
  Multiplicity = 1
  Basis Set: CC-PVTZ
  Basis Set:

    Orbital Energies (a.u.)
    -----------------------

    Doubly Occupied:

       1A    -20.598758     2A    -20.535247     3A    -11.368898
       4A    -11.279916     5A    -11.233215     6A     -1.474177
       7A     -1.367709     8A     -1.037029     9A     -0.953776
      10A     -0.780093    11A     -0.698226    12A     -0.684570
      13A     -0.681192    14A     -0.596006    15A     -0.593455
      16A     -0.561796    17A     -0.527191    18A     -0.525063
      19A     -0.462291    20A     -0.445924

  @DF-RHF Final Energy:  -266.93910261349828

   => Energetics <=

    Nuclear Repulsion Energy =            183.6795894311975417
    One-Electron Energy =                -728.4283198284945229
    Two-Electron Energy =                 277.8096277837987031
    DFT Exchange-Correlation Energy =       0.0000000000000000
    Empirical Dispersion Energy =           0.0000000000000000
    PCM Polarization Energy =               0.0000000000000000
    EFP Energy =                            0.0000000000000000
    Total Energy =                       -266.9391026134982781
    Molecular point group: c1
  Basis Set: CC-PVTZ
  Basis Set:

  -Total Gradient:
     Atom            X                  Y                   Z
    ------   -----------------  -----------------  -----------------
       1        0.000000522552    -0.000000741500    -0.000004451929
       2        0.000044639833    -0.000116862593     0.000720724522
       3        0.000003751262    -0.000001425640     0.000002932443
       4        0.000007550469    -0.000015383086    -0.001128601337
       5       -0.000001073438     0.000001076453    -0.000001997601
       6        0.000001208690     0.000001178273    -0.000001232893
       7        0.000000729706    -0.000001074343    -0.000002456239
       8       -0.000320787265     0.000809580086     0.000831550185
       9        0.000272038368    -0.000676881300    -0.000418493375
      10       -0.000004117828     0.000002173776    -0.000000056794
      11       -0.000004462349    -0.000001640126     0.000002083016

  **** Optimization is complete! (in 5 steps) ****
    Final optimized geometry and variables:
    Molecular point group: c1

    Geometry (in Angstrom), charge = 0, multiplicity = 1:

    O           -0.291366218822     1.303974564632     0.211859854726
    C           -0.447721372231     0.142749205631     0.047730800972
    C           -1.778761538655    -0.552660775094     0.030098140502
    O            0.546858773066    -0.706838585878    -0.146022720016
    H           -1.914994488770    -1.050868542647    -0.921036492676
    H           -2.564736984676     0.167536217862     0.188544154117
    H           -1.803420258961    -1.308960374628     0.803919460018
    C            1.860736675780    -0.184582830172    -0.136741600615
    H            2.031863979319     0.423204151312    -1.013616353752
    H            2.519473043022    -1.037838341857    -0.149298465358
    H            2.031840230962     0.408488546116     0.748067532645

  Mulliken Charges: (a.u.)
   Center  Symbol    Alpha    Beta     Spin     Total
       1     O     4.19672  4.19672  0.00000 -0.39343
       2     C     2.80157  2.80157  0.00000  0.39687
       3     C     3.13806  3.13806  0.00000 -0.27612
       4     O     4.14786  4.14786  0.00000 -0.29571
       5     H     0.44529  0.44529  0.00000  0.10943
       6     H     0.43787  0.43787  0.00000  0.12426
       7     H     0.44559  0.44559  0.00000  0.10883
       8     C     3.03343  3.03343  0.00000 -0.06687
       9     H     0.45554  0.45554  0.00000  0.08891
      10     H     0.44587  0.44587  0.00000  0.10825
      11     H     0.45221  0.45221  0.00000  0.09559

   Total alpha = 20.00000, Total beta = 20.00000, Total charge = -0.00000
