                              Psi4 1.0.54 Driver

  ==> Input File <==

--------------------------------------------------------------------------
set {
	reference rhf
	basis cc-pvtz
}

set_num_threads( 4 )
memory 2 gb

molecule MOL {
0 1

O	 -0.988175	 -1.402891	 0.050086
C	 -0.675048	 -0.248293	 -0.009686
C	 -1.742492	 0.826599	 -0.011538
N	 0.622280	 0.144970	 -0.099307
H	 -1.692153	 1.431066	 -0.908439
H	 -2.698310	 0.331559	 0.031353
H	 -1.642148	 1.483784	 0.843455
C	 1.417363	 -0.317636	 -1.217246
C	 1.370360	 0.713190	 0.996711
H	 2.071723	 0.479096	 -1.549291
H	 0.770556	 -0.607948	 -2.025045
H	 2.031813	 -1.170072	 -0.938974
H	 2.092308	 1.419039	 0.606577
H	 0.732245	 1.245390	 1.681159
H	 1.914720	 -0.046166	 1.553571

	symmetry c1
}
set optking {
	frozen_dihedral = ("
		8 4 2 3
	")
}

ee,wfn = optimize('scf', return_wfn=True)
oeprop( wfn, 'DIPOLE', 'QUADRUPOLE', 'MULLIKEN_CHARGES')
f=open( 'psi4out.xyz', 'w' )
f.write( "15  " )
f.write( str(ee) + "\n" )
f.write( MOL.save_string_xyz() )
f.close()
--------------------------------------------------------------------------

    Molecular point group: c1
  Charge       = 0
  Multiplicity = 1
  Basis Set: CC-PVTZ
  Basis Set:
  @DF-RHF Final Energy:  -286.10658710586085
    Total Energy =                       -286.1065871058606831
    Molecular point group: c1
  Basis Set: CC-PVTZ
  Basis Set:
  Basis Set: CC-PVTZ
  Basis Set:
  @DF-RHF Final Energy:  -286.10513060624112
    Total Energy =                       -286.1051306062408912
  Basis Set: CC-PVTZ
  Basis Set:
  Basis Set: CC-PVTZ
  Basis Set:
  @DF-RHF Final Energy:  -286.11049743023426
    Total Energy =                       -286.1104974302341475
  Basis Set: CC-PVTZ
  Basis Set:
  Basis Set: CC-PVTZ
  Basis Set:
  @DF-RHF Final Energy:  -286.10910611282782
    Total Energy =                       -286.1091061128279307
  Basis Set: CC-PVTZ
  Basis Set:
  @DF-RHF Final Energy:  -286.11199850994865
    Total Energy =                       -286.1119985099484779
  @DF-RHF Final Energy:  -286.11161525809564
    Total Energy =                       -286.1116152580956964
  @DF-RHF Final Energy:  -286.11445416814797
    Total Energy =                       -286.1144541681478017
  @DF-RHF Final Energy:  -286.09831925585286
    Total Energy =                       -286.0983192558531982
  @DF-RHF Final Energy:  -286.11545267437276
    Total Energy =                       -286.1154526743724773
  @DF-RHF Final Energy:  -285.53866581299258
    Total Energy =                       -285.5386658129926332
  @DF-RHF Final Energy:  -285.74381231372087
    Total Energy =                       -285.7438123137208663
  @DF-RHF Final Energy:  -285.72105921116690
    Total Energy =                       -285.7210592111669030
  @DF-RHF Final Energy:  -286.00300698069680
    Total Energy =                       -286.0030069806969095
  @DF-RHF Final Energy:  -286.11283389042688
    Total Energy =                       -286.1128338904269413
  @DF-RHF Final Energy:  -286.11726868531991
    Total Energy =                       -286.1172686853198002
  @DF-RHF Final Energy:  -286.11811947840692
    Total Energy =                       -286.1181194784069817
  @DF-RHF Final Energy:  -286.11813795911667
    Total Energy =                       -286.1181379591167797
  @DF-RHF Final Energy:  -286.11984378771029
    Total Energy =                       -286.1198437877101810
  @DF-RHF Final Energy:  -286.12048336950556
    Total Energy =                       -286.1204833695054504
  @DF-RHF Final Energy:  -286.12095131469545
    Total Energy =                       -286.1209513146956738
  @DF-RHF Final Energy:  -286.12124246463986
    Total Energy =                       -286.1212424646398631
  @DF-RHF Final Energy:  -286.12150767818179
    Total Energy =                       -286.1215076781820699
  @DF-RHF Final Energy:  -286.11996236144580
    Total Energy =                       -286.1199623614459142
  @DF-RHF Final Energy:  -286.12177356618417
    Total Energy =                       -286.1217735661841175
  @DF-RHF Final Energy:  -286.12188023612191
    Total Energy =                       -286.1218802361220241
  @DF-RHF Final Energy:  -286.12189347821618
    Total Energy =                       -286.1218934782162933
  @DF-RHF Final Energy:  -286.12194714276916
    Total Energy =                       -286.1219471427689314
  @DF-RHF Final Energy:  -286.12195025177084
    Total Energy =                       -286.1219502517709543
  @DF-RHF Final Energy:  -286.12194703492150
    Total Energy =                       -286.1219470349212202
  @DF-RHF Final Energy:  -286.12195013653172
    Total Energy =                       -286.1219501365320070
  @DF-RHF Final Energy:  -286.12191769978813
    Total Energy =                       -286.1219176997880709
  Basis Set: CC-PVTZ
  Basis Set:
  @DF-RHF Final Energy:  -286.12194827830672
    Total Energy =                       -286.1219482783068315
  Basis Set: CC-PVTZ
  Basis Set:
  Basis Set: CC-PVTZ
  Basis Set:
  @DF-RHF Final Energy:  -286.12194913354426
    Total Energy =                       -286.1219491335442058
  Basis Set: CC-PVTZ
  Basis Set:
  Basis Set: CC-PVTZ
  Basis Set:
  @DF-RHF Final Energy:  -286.12195033940077
    Total Energy =                       -286.1219503394007688
  Basis Set: CC-PVTZ
  Basis Set:
  Charge       = 0
  Multiplicity = 1
  Basis Set: CC-PVTZ
  Basis Set:

    Orbital Energies (a.u.)
    -----------------------

    Doubly Occupied:

       1A    -20.521126     2A    -15.569027     3A    -11.340651
       4A    -11.258039     5A    -11.251696     6A    -11.230719
       7A     -1.399935     8A     -1.242209     9A     -1.013599
      10A     -0.968795    11A     -0.914824    12A     -0.738792
      13A     -0.684128    14A     -0.661154    15A     -0.651220
      16A     -0.596148    17A     -0.581186    18A     -0.573607
      19A     -0.560920    20A     -0.551824    21A     -0.528169
      22A     -0.502539    23A     -0.422589    24A     -0.373563

  @DF-RHF Final Energy:  -286.12195021555021

   => Energetics <=

    Nuclear Repulsion Energy =            253.1641613890339784
    One-Electron Energy =                -890.2993020898215946
    Two-Electron Energy =                 351.0131904852374305
    DFT Exchange-Correlation Energy =       0.0000000000000000
    Empirical Dispersion Energy =           0.0000000000000000
    PCM Polarization Energy =               0.0000000000000000
    EFP Energy =                            0.0000000000000000
    Total Energy =                       -286.1219502155501573
    Molecular point group: c1
  Basis Set: CC-PVTZ
  Basis Set:

  -Total Gradient:
     Atom            X                  Y                   Z
    ------   -----------------  -----------------  -----------------
       1       -0.000021795281    -0.000012369736    -0.000017170048
       2       -0.004655085126    -0.001552776766     0.010676545327
       3        0.001243571365     0.002101842145    -0.008270210203
       4        0.009819702560    -0.004499596388     0.002146180833
       5       -0.000005998161     0.000014335087    -0.000012743423
       6       -0.000002045198    -0.000016957662    -0.000011827434
       7       -0.000006682810    -0.000001936686     0.000015703818
       8       -0.006439562597     0.003878504171    -0.004459437105
       9        0.000079823875     0.000105146579    -0.000052988684
      10        0.000002210399     0.000003896616    -0.000003121875
      11       -0.000001263095     0.000000752055    -0.000004750404
      12       -0.000006800966    -0.000009285806    -0.000002229412
      13       -0.000006656033    -0.000000963930    -0.000006060107
      14       -0.000002668023    -0.000001686418    -0.000006363220
      15        0.000003249092    -0.000008903264     0.000008471938

  **** Optimization is complete! (in 35 steps) ****
    Final optimized geometry and variables:
    Molecular point group: c1

    Geometry (in Angstrom), charge = 0, multiplicity = 1:

    O            0.651899648141    -1.603183509699    -0.281978814139
    C           -0.111679779214    -0.725858271776    -0.033697887627
    C           -1.591860089541    -0.904845910575    -0.298476360526
    N            0.349128238343     0.527113066938     0.357088583736
    H           -1.897378801490    -0.202464894134    -1.065714634380
    H           -1.752703998433    -1.913019422382    -0.643128214425
    H           -2.204624291609    -0.722971404060     0.574239720868
    C            1.329039077456     1.124016104815    -0.536679498327
    C           -0.598636349348     1.498949480981     0.860654560857
    H            0.849702587618     1.586667214492    -1.398715183443
    H            2.018454599563     0.370172871498    -0.877128019881
    H            1.884988772318     1.886858111888    -0.008030812690
    H           -1.222032773254     1.939795708922     0.083375086092
    H           -1.238835527596     1.060634078008     1.611257417170
    H           -0.047623867712     2.299433312999     1.335165487361

  Mulliken Charges: (a.u.)
   Center  Symbol    Alpha    Beta     Spin     Total
       1     O     4.19400  4.19400  0.00000 -0.38800
       2     C     2.84038  2.84038  0.00000  0.31923
       3     C     3.15870  3.15870  0.00000 -0.31740
       4     N     3.58270  3.58270  0.00000 -0.16541
       5     H     0.44831  0.44831  0.00000  0.10337
       6     H     0.42885  0.42885  0.00000  0.14231
       7     H     0.44805  0.44805  0.00000  0.10390
       8     C     3.09563  3.09563  0.00000 -0.19127
       9     C     3.10402  3.10402  0.00000 -0.20804
      10     H     0.46496  0.46496  0.00000  0.07009
      11     H     0.43130  0.43130  0.00000  0.13741
      12     H     0.45244  0.45244  0.00000  0.09511
      13     H     0.46177  0.46177  0.00000  0.07646
      14     H     0.44696  0.44696  0.00000  0.10608
      15     H     0.44193  0.44193  0.00000  0.11615

   Total alpha = 24.00000, Total beta = 24.00000, Total charge = -0.00000

*** Psi4 exiting successfully. Buy a developer a beer!
