  ==> Input File <==

--------------------------------------------------------------------------
set {
	reference rhf
	basis 6-31G*
}

set_num_threads( 1 )
memory 2 gb

molecule MOL {
0 1

H	 -2.646257	 1.692711	 -1.480502
O	 -2.605349	 2.081887	 -0.617530
C	 -1.292718	 2.002635	 -0.143523
C	 -0.793441	 0.596080	 0.058728
H	 -1.280069	 2.532988	 0.801871
H	 -0.609268	 2.532335	 -0.806350
C	 -1.530462	 -0.493172	 -0.025500
H	 0.256809	 0.515249	 0.293084
H	 -1.092586	 -1.461565	 -0.186463
H	 -2.602122	 -0.450675	 0.050101

	symmetry c1
}
set optking {
	frozen_dihedral = ("
		5 3 2 1,
		5 3 4 7
	")
}

ee = energy('scf')
oeprop('DIPOLE', 'QUADRUPOLE', 'MULLIKEN_CHARGES')
f=open( 'psi4out.xyz', 'w' )
f.write( "10  " )
f.write( str(ee) + "\n" )
f.write( MOL.save_string_xyz() )
f.close()
--------------------------------------------------------------------------

    Molecular point group: c1

    Geometry (in Angstrom), charge = 0, multiplicity = 1:

       Center              X                  Y                   Z               Mass
    ------------   -----------------  -----------------  -----------------  -----------------
           H         -1.042110183746     0.590590757082    -1.264459108633     1.007825032070
           O         -1.001202183746     0.979766757082    -0.401487108633    15.994914619560
           C          0.311428816254     0.900514757082     0.072519891367    12.000000000000
           C          0.810705816254    -0.506040242918     0.274770891367    12.000000000000
           H          0.324077816254     1.430867757082     1.017913891367     1.007825032070
           H          0.994878816254     1.430214757082    -0.590307108633     1.007825032070
           C          0.073684816254    -1.595292242918     0.190542891367    12.000000000000
           H          1.860955816254    -0.586871242918     0.509126891367     1.007825032070
           H          0.511560816254    -2.563685242918     0.029579891367     1.007825032070
           H         -0.997975183746    -1.552795242918     0.266143891367     1.007825032070

  Charge       = 0
  Multiplicity = 1
  Basis Set: 6-31G*
  Basis Set:

    Orbital Energies (a.u.)
    -----------------------

    Doubly Occupied:

       1A    -20.559585     2A    -11.278197     3A    -11.231852
       4A    -11.218994     5A     -1.368263     6A     -1.058062
       7A     -0.928099     8A     -0.768984     9A     -0.686705
      10A     -0.659239    11A     -0.616202    12A     -0.571558
      13A     -0.537275    14A     -0.497857    15A     -0.446750
      16A     -0.355882

  @DF-RHF Final Energy:  -191.90853057114387

   => Energetics <=

    Nuclear Repulsion Energy =            119.3508692122848913
    One-Electron Energy =                -496.9518031152413187
    Two-Electron Energy =                 185.6924033318123577
    DFT Exchange-Correlation Energy =       0.0000000000000000
    Empirical Dispersion Energy =           0.0000000000000000
    PCM Polarization Energy =               0.0000000000000000
    EFP Energy =                            0.0000000000000000
    Total Energy =                       -191.9085305711440412

  Mulliken Charges: (a.u.)
   Center  Symbol    Alpha    Beta     Spin     Total
       1     H     0.28122  0.28122  0.00000  0.43757
       2     O     4.36660  4.36660  0.00000 -0.73321
       3     C     3.00073  3.00073  0.00000 -0.00147
       4     C     3.09361  3.09361  0.00000 -0.18722
       5     H     0.40991  0.40991  0.00000  0.18019
       6     H     0.42364  0.42364  0.00000  0.15272
       7     C     3.20059  3.20059  0.00000 -0.40118
       8     H     0.40994  0.40994  0.00000  0.18011
       9     H     0.41079  0.41079  0.00000  0.17841
      10     H     0.40296  0.40296  0.00000  0.19408

   Total alpha = 16.00000, Total beta = 16.00000, Total charge = -0.00000
