  ==> Input File <==

--------------------------------------------------------------------------
set {
	reference rhf
	basis 6-31G*
}

set_num_threads( 4 )
memory 2 gb

molecule MOL {
0 1

H	 -2.753687	 2.991606	 -1.436284
O	 -2.051901	 2.400901	 -1.669668
C	 -1.549321	 1.783967	 -0.512345
C	 -0.428557	 0.845600	 -0.923566
H	 -1.173622	 2.529716	 0.186953
H	 -2.334573	 1.226369	 -0.003618
C	 0.198102	 0.111031	 0.262842
H	 0.327335	 1.424636	 -1.447086
H	 -0.825966	 0.131439	 -1.639469
C	 1.331804	 -0.827780	 -0.158768
H	 0.568377	 0.840118	 0.979433
H	 -0.568266	 -0.465351	 0.779545
C	 2.723619	 -0.410569	 0.329459
H	 1.342964	 -0.912588	 -1.244120
H	 1.116806	 -1.824343	 0.220779
C	 3.243875	 0.895854	 -0.272975
H	 3.424222	 -1.207124	 0.091250
H	 2.714788	 -0.329854	 1.414619
H	 3.251977	 0.848779	 -1.358681
H	 2.637085	 1.747371	 0.016682
H	 4.259473	 1.094070	 0.055697

	symmetry c1
}
set optking {
	frozen_dihedral = ("
		4 7 10 14
	")
}

ee = optimize('scf')
oeprop('DIPOLE', 'QUADRUPOLE', 'MULLIKEN_CHARGES')
f=open( 'psi4out.xyz', 'w' )
f.write( "21  " )
f.write( str(ee) + "\n" )
f.write( MOL.save_string_xyz() )
f.close()
--------------------------------------------------------------------------

    Molecular point group: c1
  Charge       = 0
  Multiplicity = 1
  Basis Set: 6-31G*
  Basis Set:
  @DF-RHF Final Energy:  -310.20746798753515
    Total Energy =                       -310.2074679875351535
    Molecular point group: c1
  Basis Set: 6-31G*
  Basis Set:
  Basis Set: 6-31G*
  Basis Set:
  @DF-RHF Final Energy:  -310.20775717536958
    Total Energy =                       -310.2077571753697498
  Basis Set: 6-31G*
  Basis Set:
  Basis Set: 6-31G*
  Basis Set:
  @DF-RHF Final Energy:  -310.20783000919266
    Total Energy =                       -310.2078300091928327
  Basis Set: 6-31G*
  Basis Set:
  Basis Set: 6-31G*
  Basis Set:
  @DF-RHF Final Energy:  -310.20783958827514
    Total Energy =                       -310.2078395882746804
  Basis Set: 6-31G*
  Basis Set:
  Basis Set: 6-31G*
  Basis Set:
  @DF-RHF Final Energy:  -310.20784326705615
    Total Energy =                       -310.2078432670559778
  Basis Set: 6-31G*
  Basis Set:
  Charge       = 0
  Multiplicity = 1
  Basis Set: 6-31G*
  Basis Set:

    Orbital Energies (a.u.)
    -----------------------

    Doubly Occupied:

       1A    -20.551781     2A    -11.266790     3A    -11.215789
       4A    -11.214855     5A    -11.213282     6A    -11.210584
       7A    -11.207435     8A     -1.358537     9A     -1.084486
      10A     -1.031644    11A     -0.953639    12A     -0.876095
      13A     -0.807144    14A     -0.778978    15A     -0.692114
      16A     -0.659747    17A     -0.619121    18A     -0.610798
      19A     -0.586182    20A     -0.555522    21A     -0.551874
      22A     -0.519717    23A     -0.499355    24A     -0.494752
      25A     -0.480658    26A     -0.459895    27A     -0.449484
      28A     -0.442339    29A     -0.434036

  @DF-RHF Final Energy:  -310.20784381335716

   => Energetics <=

    Nuclear Repulsion Energy =            317.0893440322696506
    One-Electron Energy =               -1048.9411058334326299
    Two-Electron Energy =                 421.6439179878059349
    DFT Exchange-Correlation Energy =       0.0000000000000000
    Empirical Dispersion Energy =           0.0000000000000000
    PCM Polarization Energy =               0.0000000000000000
    EFP Energy =                            0.0000000000000000
    Total Energy =                       -310.2078438133570444
    Molecular point group: c1
  Basis Set: 6-31G*
  Basis Set:

  -Total Gradient:
     Atom            X                  Y                   Z
    ------   -----------------  -----------------  -----------------
       1       -0.000012966226     0.000015845389    -0.000024118140
       2       -0.000044793911     0.000040780035     0.000013294448
       3        0.000016894742    -0.000013796367    -0.000025655270
       4       -0.000378037081    -0.000512357074    -0.000011733544
       5       -0.000002341835    -0.000003816002    -0.000002009571
       6        0.000004618013     0.000004267168    -0.000001058239
       7        0.000736348301     0.000782058565     0.000088532832
       8        0.000005178987     0.000001618367     0.000011137931
       9       -0.000001352564     0.000001185619     0.000000558856
      10       -0.000807119090    -0.000914059347     0.000077479525
      11       -0.000014063171     0.000016954181    -0.000034536306
      12       -0.000014657919    -0.000015862003     0.000000867599
      13        0.000009540766    -0.000039939044    -0.000076249850
      14        0.000548064604     0.000669311658    -0.000036158521
      15       -0.000006699937    -0.000029748005     0.000010260811
      16       -0.000008356981     0.000019553982     0.000014005719
      17        0.000013599604    -0.000016017347     0.000014237330
      18       -0.000037437501    -0.000001496867    -0.000022046049
      19       -0.000002060101    -0.000006673813     0.000004457081
      20        0.000004162836     0.000011676044     0.000000607735
      21       -0.000008521538    -0.000009485143    -0.000001874376

  **** Optimization is complete! (in 6 steps) ****
    Final optimized geometry and variables:
    Molecular point group: c1

    Geometry (in Angstrom), charge = 0, multiplicity = 1:

    H           -3.204798136295     2.267138343892    -0.972149311924
    O           -2.506606572145     1.675253025978    -1.213219661720
    C           -1.994413230582     1.054813142490    -0.061904989299
    C           -0.879196020699     0.115377094965    -0.484889802398
    H           -1.611065073521     1.798480889019     0.635629334124
    H           -2.775953649479     0.497627577456     0.453123885001
    C           -0.250126222186    -0.630327944912     0.694540151087
    H           -0.126253337113     0.692923768538    -1.013577297206
    H           -1.283462728697    -0.596283074224    -1.199405843962
    C            0.898839434056    -1.581572956988     0.287526278022
    H            0.110057638199     0.089240493027     1.426616269700
    H           -1.027302247616    -1.199128245783     1.199171626016
    C            2.286738281619    -1.153195205171     0.779564147661
    H            0.929604784234    -1.674328700820    -0.795869088098
    H            0.695787455195    -2.578047133613     0.668675095736
    C            2.795377793449     0.151102317264     0.164144897943
    H            2.995684147794    -1.946505095195     0.554820222988
    H            2.269041759475    -1.059743760401     1.863527908108
    H            2.853320808186     0.074526296477    -0.918064503239
    H            2.148415226102     0.990032645038     0.401009366804
    H            3.788159176867     0.391803534117     0.531882028471

  Mulliken Charges: (a.u.)
   Center  Symbol    Alpha    Beta     Spin     Total
       1     H     0.28119  0.28119  0.00000  0.43762
       2     O     4.37173  4.37173  0.00000 -0.74346
       3     C     2.99037  2.99037  0.00000  0.01926
       4     C     3.16159  3.16159  0.00000 -0.32318
       5     H     0.43312  0.43312  0.00000  0.13377
       6     H     0.43292  0.43292  0.00000  0.13416
       7     C     3.16507  3.16507  0.00000 -0.33014
       8     H     0.41325  0.41325  0.00000  0.17351
       9     H     0.41431  0.41431  0.00000  0.17138
      10     C     3.15519  3.15519  0.00000 -0.31038
      11     H     0.42134  0.42134  0.00000  0.15732
      12     H     0.42056  0.42056  0.00000  0.15888
      13     C     3.15320  3.15320  0.00000 -0.30640
      14     H     0.41959  0.41959  0.00000  0.16082
      15     H     0.41913  0.41913  0.00000  0.16173
      16     C     3.24090  3.24090  0.00000 -0.48179
      17     H     0.42171  0.42171  0.00000  0.15659
      18     H     0.42372  0.42372  0.00000  0.15257
      19     H     0.42103  0.42103  0.00000  0.15794
      20     H     0.42066  0.42066  0.00000  0.15867
      21     H     0.41942  0.41942  0.00000  0.16115

   Total alpha = 29.00000, Total beta = 29.00000, Total charge =  0.00000
