  ==> Input File <==

--------------------------------------------------------------------------
set {
	reference rhf
	basis 6-31G*
}

set_num_threads( 4 )
memory 2 gb

molecule MOL {
0 1

H	 -3.135461	 -1.215070	 0.001379
O	 -2.310168	 -0.871793	 -0.309793
C	 -2.026376	 0.340750	 0.341611
C	 -0.673256	 0.843270	 -0.132153
H	 -2.792215	 1.080697	 0.115987
H	 -2.013526	 0.200402	 1.421792
C	 0.486613	 -0.083066	 0.235839
H	 -0.715586	 0.970948	 -1.210718
H	 -0.508072	 1.829858	 0.297090
C	 1.840406	 0.433480	 -0.254303
H	 0.300215	 -1.068318	 -0.178947
H	 0.519509	 -0.203625	 1.318070
C	 1.746233	 1.182638	 -1.583049
H	 2.268653	 1.090562	 0.499730
H	 2.531299	 -0.400838	 -0.359302
H	 1.089013	 2.043556	 -1.500747
H	 2.720118	 1.539084	 -1.904668
H	 1.353028	 0.541858	 -2.367461

	symmetry c1
}
set optking {
	frozen_dihedral = ("
		14 10 7 11
	")
}

ee = optimize('scf')
oeprop('DIPOLE', 'QUADRUPOLE', 'MULLIKEN_CHARGES')
f=open( 'psi4out.xyz', 'w' )
f.write( "18  " )
f.write( str(ee) + "\n" )
f.write( MOL.save_string_xyz() )
f.close()
--------------------------------------------------------------------------

    Molecular point group: c1
  Charge       = 0
  Multiplicity = 1
  Basis Set: 6-31G*
  Basis Set:
  @DF-RHF Final Energy:  -271.17243301038133
    Total Energy =                       -271.1724330103814964
    Molecular point group: c1
  Basis Set: 6-31G*
  Basis Set:
  Basis Set: 6-31G*
  Basis Set:
  @DF-RHF Final Energy:  -271.17366888215690
    Total Energy =                       -271.1736688821569601
  Basis Set: 6-31G*
  Basis Set:
  Basis Set: 6-31G*
  Basis Set:
  @DF-RHF Final Energy:  -271.17521378992916
    Total Energy =                       -271.1752137899292165
  Basis Set: 6-31G*
  Basis Set:
  Basis Set: 6-31G*
  Basis Set:
  @DF-RHF Final Energy:  -271.17536556167818
    Total Energy =                       -271.1753655616782339
  Basis Set: 6-31G*
  Basis Set:
  Basis Set: 6-31G*
  Basis Set:
  @DF-RHF Final Energy:  -271.17538010647729
    Total Energy =                       -271.1753801064772915
  Basis Set: 6-31G*
  Basis Set:
  Basis Set: 6-31G*
  Basis Set:
  @DF-RHF Final Energy:  -271.17538329425565
    Total Energy =                       -271.1753832942555960
  Basis Set: 6-31G*
  Basis Set:
  Basis Set: 6-31G*
  Basis Set:
  @DF-RHF Final Energy:  -271.17538645737693
    Total Energy =                       -271.1753864573768169
  Basis Set: 6-31G*
  Basis Set:
  Charge       = 0
  Multiplicity = 1
  Basis Set: 6-31G*
  Basis Set:

    Orbital Energies (a.u.)
    -----------------------

    Doubly Occupied:

       1A    -20.552897     2A    -11.267947     3A    -11.211750
       4A    -11.211100     5A    -11.206624     6A    -11.204518
       7A     -1.359625     8A     -1.073203     9A     -1.005372
      10A     -0.915114    11A     -0.832657    12A     -0.767036
      13A     -0.704148    14A     -0.642074    15A     -0.614365
      16A     -0.601856    17A     -0.561342    18A     -0.551720
      19A     -0.527385    20A     -0.507882    21A     -0.488815
      22A     -0.462013    23A     -0.450930    24A     -0.448702
      25A     -0.427663

  @DF-RHF Final Energy:  -271.17538649088880

   => Energetics <=

    Nuclear Repulsion Energy =            252.1600007821556915
    One-Electron Energy =                -867.4773008077272607
    Two-Electron Energy =                 344.1419135346828853
    DFT Exchange-Correlation Energy =       0.0000000000000000
    Empirical Dispersion Energy =           0.0000000000000000
    PCM Polarization Energy =               0.0000000000000000
    EFP Energy =                            0.0000000000000000
    Total Energy =                       -271.1753864908886271
    Molecular point group: c1
  Basis Set: 6-31G*
  Basis Set:

  -Total Gradient:
     Atom            X                  Y                   Z
    ------   -----------------  -----------------  -----------------
       1       -0.000000204152     0.000001399138    -0.000000809754
       2       -0.000012454219     0.000012218249    -0.000009704479
       3        0.000015471048    -0.000019191235     0.000032257398
       4       -0.000008964620     0.000000544782    -0.000009705629
       5       -0.000002218066    -0.000006715849    -0.000006655620
       6       -0.000004582503     0.000005298425     0.000005419500
       7       -0.002256572114     0.001931478026    -0.004938412591
       8        0.000010838244     0.000007602854    -0.000008547829
       9       -0.000007829303    -0.000005664334     0.000000870490
      10       -0.002458778371     0.004821731636    -0.001852779366
      11        0.002275454528    -0.002390561533     0.004453226910
      12       -0.000003564778    -0.000010071623    -0.000006071463
      13        0.000013492774    -0.000001753539    -0.000009119023
      14        0.002436516427    -0.004353899153     0.002348567894
      15       -0.000003253099     0.000007117034     0.000003575139
      16       -0.000000427854    -0.000002694075    -0.000000023196
      17        0.000003633046     0.000001419128    -0.000002402735
      18        0.000003443015     0.000001742070     0.000000314354

  **** Optimization is complete! (in 8 steps) ****
    Final optimized geometry and variables:
    Molecular point group: c1

    Geometry (in Angstrom), charge = 0, multiplicity = 1:

    H           -2.930801267518    -1.547262628802     0.399108601152
    O           -2.131189869759    -1.184803232880     0.045480307283
    C           -1.833619633331     0.026106937001     0.693689681102
    C           -0.521843877508     0.562478951558     0.145491650343
    H           -2.626322519726     0.752319080536     0.522413943683
    H           -1.753932691206    -0.125605870751     1.769401381213
    C            0.667692519297    -0.353317659294     0.435944194435
    H           -0.639322077575     0.708935374873    -0.923310991247
    H           -0.348673108977     1.544052290542     0.583942168732
    C            2.046518648541     0.193544379060     0.023297403865
    H            0.509268469268    -1.329091308692    -0.010233229488
    H            0.698098696251    -0.542054588997     1.508455748616
    C            2.106946797493     0.906009959172    -1.327615063688
    H            2.435075569066     0.836228524030     0.810277564495
    H            2.735489865628    -0.647993924196    -0.004600022549
    H            1.527671498174     1.823332161173    -1.331430319288
    H            3.131534990963     1.166264652587    -1.575078608967
    H            1.726840919139     0.271059699714    -2.123165979414

  Mulliken Charges: (a.u.)
   Center  Symbol    Alpha    Beta     Spin     Total
       1     H     0.28062  0.28062  0.00000  0.43876
       2     O     4.36953  4.36953  0.00000 -0.73906
       3     C     2.99739  2.99739  0.00000  0.00522
       4     C     3.16278  3.16278  0.00000 -0.32556
       5     H     0.42928  0.42928  0.00000  0.14144
       6     H     0.43264  0.43264  0.00000  0.13472
       7     C     3.15508  3.15508  0.00000 -0.31016
       8     H     0.41236  0.41236  0.00000  0.17529
       9     H     0.42433  0.42433  0.00000  0.15134
      10     C     3.15296  3.15296  0.00000 -0.30591
      11     H     0.40767  0.40767  0.00000  0.18465
      12     H     0.42644  0.42644  0.00000  0.14712
      13     C     3.24235  3.24235  0.00000 -0.48470
      14     H     0.42421  0.42421  0.00000  0.15158
      15     H     0.42154  0.42154  0.00000  0.15692
      16     H     0.42089  0.42089  0.00000  0.15822
      17     H     0.42007  0.42007  0.00000  0.15985
      18     H     0.41985  0.41985  0.00000  0.16030

   Total alpha = 25.00000, Total beta = 25.00000, Total charge = -0.00000
