  ==> Input File <==

--------------------------------------------------------------------------
set {
	reference rhf
	basis 6-31G*
}

set_num_threads( 4 )
memory 2 gb

molecule MOL {
0 1

H	 2.465338	 -2.224223	 0.000000
O	 2.784187	 -1.332015	 0.000000
C	 1.765313	 -0.449364	 0.000000
C	 1.423159	 0.131046	 1.217374
C	 1.070694	 -0.115020	 -1.146234
H	 1.978164	 -0.145245	 2.094010
C	 0.389176	 1.041939	 1.282327
H	 1.312891	 -0.546709	 -2.097293
C	 0.038007	 0.803204	 -1.045040
H	 0.131721	 1.485194	 2.226307
C	 -0.324134	 1.394422	 0.144440
N	 -0.693572	 1.153387	 -2.260627
H	 -1.128628	 2.099407	 0.178956
O	 -0.360034	 0.626817	 -3.279208
O	 -1.580908	 1.944421	 -2.164891

	symmetry c1
}
set optking {
	frozen_dihedral = ("
		4 3 2 1
	")
}

ee = optimize('scf')
oeprop('DIPOLE', 'QUADRUPOLE', 'MULLIKEN_CHARGES')
f=open( 'psi4out.xyz', 'w' )
f.write( "15  " )
f.write( str(ee) + "\n" )
f.write( MOL.save_string_xyz() )
f.close()
--------------------------------------------------------------------------

    Molecular point group: c1
  Charge       = 0
  Multiplicity = 1
  Basis Set: 6-31G*
  Basis Set:
  @DF-RHF Final Energy:  -509.02271075186371
    Total Energy =                       -509.0227107518638832
    Molecular point group: c1
  Basis Set: 6-31G*
  Basis Set:
  Basis Set: 6-31G*
  Basis Set:
  @DF-RHF Final Energy:  -509.02327152440631
    Total Energy =                       -509.0232715244060273
  Basis Set: 6-31G*
  Basis Set:
  Basis Set: 6-31G*
  Basis Set:
  @DF-RHF Final Energy:  -508.99381835641793
    Total Energy =                       -508.9938183564183873
  Basis Set: 6-31G*
  Basis Set:
  Basis Set: 6-31G*
  Basis Set:
  @DF-RHF Final Energy:  -509.02142109056837
    Total Energy =                       -509.0214210905683103
  Basis Set: 6-31G*
  Basis Set:
  Basis Set: 6-31G*
  Basis Set:
  @DF-RHF Final Energy:  -509.02354248292284
    Total Energy =                       -509.0235424829230624
  Basis Set: 6-31G*
  Basis Set:
  Basis Set: 6-31G*
  Basis Set:
  @DF-RHF Final Energy:  -509.02355321197410
    Total Energy =                       -509.0235532119741038
  Basis Set: 6-31G*
  Basis Set:
  Charge       = 0
  Multiplicity = 1
  Basis Set: 6-31G*
  Basis Set:

    Orbital Energies (a.u.)
    -----------------------

    Doubly Occupied:

       1A    -20.603754     2A    -20.603697     3A    -20.601365
       4A    -15.858612     5A    -11.321127     6A    -11.309218
       7A    -11.269564     8A    -11.268309     9A    -11.266363
      10A    -11.264871    11A     -1.637320    12A     -1.420664
      13A     -1.418565    14A     -1.200764    15A     -1.094642
      16A     -1.046504    17A     -0.964277    18A     -0.868489
      19A     -0.832003    20A     -0.791851    21A     -0.737719
      22A     -0.736003    23A     -0.721276    24A     -0.709642
      25A     -0.679697    26A     -0.642173    27A     -0.624853
      28A     -0.568018    29A     -0.555000    30A     -0.529362
      31A     -0.511428    32A     -0.490237    33A     -0.484781
      34A     -0.453997    35A     -0.377209    36A     -0.358330

  @DF-RHF Final Energy:  -509.02355510481721

   => Energetics <=

    Nuclear Repulsion Energy =            502.7947455712453575
    One-Electron Energy =               -1691.9932301182629999
    Two-Electron Energy =                 680.1749294421998684
    DFT Exchange-Correlation Energy =       0.0000000000000000
    Empirical Dispersion Energy =           0.0000000000000000
    PCM Polarization Energy =               0.0000000000000000
    EFP Energy =                            0.0000000000000000
    Total Energy =                       -509.0235551048177740
    Molecular point group: c1
  Basis Set: 6-31G*
  Basis Set:

  -Total Gradient:
     Atom            X                  Y                   Z
    ------   -----------------  -----------------  -----------------
       1       -0.000000941973     0.000033406028     0.000833145141
       2       -0.000173239024    -0.000185000764    -0.000939411684
       3        0.000481664175     0.000594196600    -0.000216393423
       4       -0.000474691908    -0.000371619945     0.000239267221
       5        0.000143740879    -0.000117023905     0.000082911226
       6        0.000006749574    -0.000000829112    -0.000020773462
       7        0.000166777739    -0.000076961584     0.000083423883
       8       -0.000002674704    -0.000001555419    -0.000011839069
       9       -0.000137620626     0.000187433366     0.000060073289
      10       -0.000019353574     0.000013503331    -0.000008494887
      11       -0.000044594374    -0.000057187619    -0.000198423055
      12       -0.000046468085     0.000032362999    -0.000112395397
      13        0.000004933739     0.000000611231     0.000019627860
      14        0.000044710371    -0.000012378797     0.000133715184
      15        0.000051007787    -0.000038956410     0.000055567184

  **** Optimization is complete! (in 7 steps) ****
    Final optimized geometry and variables:
    Molecular point group: c1

    Geometry (in Angstrom), charge = 0, multiplicity = 1:

    H            2.045773249172    -2.731479272458     0.759486339714
    O            2.360307814673    -1.836711912333     0.758528243552
    C            1.315297158077    -0.959559545173     0.813647627917
    C            0.974819544522    -0.375254557661     2.024005368424
    C            0.630448682153    -0.624562683376    -0.339307689141
    H            1.530161258690    -0.644373219227     2.903236127943
    C           -0.056713613592     0.546428193587     2.086313282468
    H            0.897176158626    -1.059865298174    -1.280648560527
    C           -0.399357086019     0.294092617845    -0.247157962223
    H           -0.314896962232     0.997699530892     3.026195368742
    C           -0.760460292999     0.891164247937     0.945143490257
    N           -1.129192416740     0.646134374976    -1.461769004965
    H           -1.561760607488     1.600525964143     0.972495411220
    O           -0.814416944608     0.100156388499    -2.475203742170
    O           -1.999348630015     1.457485824311    -1.368877966797

  Mulliken Charges: (a.u.)
   Center  Symbol    Alpha    Beta     Spin     Total
       1     H     0.26742  0.26742  0.00000  0.46516
       2     O     4.38476  4.38476  0.00000 -0.76952
       3     C     2.82007  2.82007  0.00000  0.35986
       4     C     3.10223  3.10223  0.00000 -0.20447
       5     C     3.11015  3.11015  0.00000 -0.22030
       6     H     0.38285  0.38285  0.00000  0.23430
       7     C     3.10581  3.10581  0.00000 -0.21161
       8     H     0.36043  0.36043  0.00000  0.27915
       9     C     2.91809  2.91809  0.00000  0.16381
      10     H     0.38654  0.38654  0.00000  0.22692
      11     C     3.09017  3.09017  0.00000 -0.18034
      12     N     3.24059  3.24059  0.00000  0.51883
      13     H     0.36405  0.36405  0.00000  0.27189
      14     O     4.23339  4.23339  0.00000 -0.46679
      15     O     4.23344  4.23344  0.00000 -0.46689

   Total alpha = 36.00000, Total beta = 36.00000, Total charge =  0.00000
