                              Psi4 1.0.54 Driver

  ==> Input File <==

--------------------------------------------------------------------------
set {
	reference rhf
	basis cc-pvtz
}

set_num_threads( 4 )
memory 2 gb

molecule MOL {
0 1

H	 -1.088256	 -1.364742	 0.152233
O	 -1.432053	 -0.565244	 -0.200812
C	 -0.727158	 0.534527	 0.310686
C	 0.680222	 0.664433	 -0.252229
H	 -1.306802	 1.408001	 0.044211
H	 -0.690821	 0.490158	 1.397609
C	 0.989225	 2.040910	 -0.833499
H	 1.390563	 0.430597	 0.533881
H	 0.802905	 -0.089688	 -1.024822
H	 0.935517	 2.814573	 -0.075420
H	 1.988839	 2.070878	 -1.249942
H	 0.294154	 2.298027	 -1.627051

	symmetry c1
}
set optking {
	frozen_dihedral = ("
		8 4 3 2
	")
}

ee,wfn = optimize('scf', return_wfn=True)
oeprop( wfn, 'DIPOLE', 'QUADRUPOLE', 'MULLIKEN_CHARGES')
f=open( 'psi4out.xyz', 'w' )
f.write( "12  " )
f.write( str(ee) + "\n" )
f.write( MOL.save_string_xyz() )
f.close()
--------------------------------------------------------------------------

    Molecular point group: c1
  Charge       = 0
  Multiplicity = 1
  Basis Set: CC-PVTZ
  Basis Set:
  @DF-RHF Final Energy:  -193.18478748368238
    Total Energy =                       -193.1847874836822427
    Molecular point group: c1
  Basis Set: CC-PVTZ
  Basis Set:
  Basis Set: CC-PVTZ
  Basis Set:
  @DF-RHF Final Energy:  -193.18516455199426
    Total Energy =                       -193.1851645519942338
  Basis Set: CC-PVTZ
  Basis Set:
  Basis Set: CC-PVTZ
  Basis Set:
  @DF-RHF Final Energy:  -193.18527220476497
    Total Energy =                       -193.1852722047650843
  Basis Set: CC-PVTZ
  Basis Set:
  Basis Set: CC-PVTZ
  Basis Set:
  @DF-RHF Final Energy:  -193.18527714531419
    Total Energy =                       -193.1852771453143305
  Basis Set: CC-PVTZ
  Basis Set:
  Charge       = 0
  Multiplicity = 1
  Basis Set: CC-PVTZ
  Basis Set:

    Orbital Energies (a.u.)
    -----------------------

    Doubly Occupied:

       1A    -20.545804     2A    -11.265710     3A    -11.216528
       4A    -11.211930     5A     -1.363195     6A     -1.050318
       7A     -0.918024     8A     -0.819789     9A     -0.691473
      10A     -0.629566    11A     -0.614089    12A     -0.582780
      13A     -0.535252    14A     -0.514311    15A     -0.490591
      16A     -0.465706    17A     -0.430791

  @DF-RHF Final Energy:  -193.18527766629759

   => Energetics <=

    Nuclear Repulsion Energy =            131.0512184214125853
    One-Electron Energy =                -521.7812766465907544
    Two-Electron Energy =                 197.5447805588805750
    DFT Exchange-Correlation Energy =       0.0000000000000000
    Empirical Dispersion Energy =           0.0000000000000000
    PCM Polarization Energy =               0.0000000000000000
    EFP Energy =                            0.0000000000000000
    Total Energy =                       -193.1852776662975657
    Molecular point group: c1
  Basis Set: CC-PVTZ
  Basis Set:

  -Total Gradient:
     Atom            X                  Y                   Z
    ------   -----------------  -----------------  -----------------
       1       -0.000038926088     0.000005061299     0.000020217268
       2       -0.000759776816     0.001249583533    -0.001608282976
       3        0.001072348476    -0.001060711985     0.002384726194
       4       -0.000269131003    -0.002840057304    -0.001642923062
       5       -0.000000807299     0.000004348459     0.000009881501
       6        0.000005923051    -0.000016186875    -0.000010167885
       7        0.000009618927    -0.000006442308     0.000003805148
       8        0.000007758020     0.002652085286     0.000829262460
       9       -0.000013076609     0.000001179370     0.000008809935
      10       -0.000006958213     0.000002560355     0.000005612471
      11       -0.000005469004     0.000004232750     0.000003215714
      12       -0.000001503440     0.000004347419    -0.000004156767

  **** Optimization is complete! (in 5 steps) ****
    Final optimized geometry and variables:
    Molecular point group: c1

    Geometry (in Angstrom), charge = 0, multiplicity = 1:

    H           -0.844884157908    -2.031284686604     0.270433652989
    O           -1.260409989961    -1.229024442068     0.011294130384
    C           -0.568109277371    -0.132198270528     0.547890295414
    C            0.843916056569     0.045436117796    -0.033532376155
    H           -1.176209221335     0.729281881900     0.307181397805
    H           -0.530201696488    -0.201725834306     1.631348309236
    C            1.107907601581     1.462668564185    -0.536607738361
    H            1.589119988616    -0.193676471066     0.718763422891
    H            0.966220465603    -0.656795313181    -0.849489225812
    H            0.983572964070     2.190257358548     0.259003375699
    H            2.117898216456     1.561452344273    -0.916802719426
    H            0.422454559563     1.725318571145    -1.334759474231

  Mulliken Charges: (a.u.)
   Center  Symbol    Alpha    Beta     Spin     Total
       1     H     0.39490  0.39490  0.00000  0.21020
       2     O     4.20107  4.20107  0.00000 -0.40214
       3     C     2.96681  2.96681  0.00000  0.06638
       4     C     3.09360  3.09360  0.00000 -0.18721
       5     H     0.45946  0.45946  0.00000  0.08108
       6     H     0.46898  0.46898  0.00000  0.06203
       7     C     3.15125  3.15125  0.00000 -0.30250
       8     H     0.45600  0.45600  0.00000  0.08800
       9     H     0.45129  0.45129  0.00000  0.09743
      10     H     0.45522  0.45522  0.00000  0.08956
      11     H     0.44961  0.44961  0.00000  0.10077
      12     H     0.45181  0.45181  0.00000  0.09638

   Total alpha = 17.00000, Total beta = 17.00000, Total charge = -0.00000

*** Psi4 exiting successfully. Buy a developer a beer!
