                              Psi4 1.0.54 Driver

  ==> Input File <==

--------------------------------------------------------------------------
set {
	reference rhf
	basis cc-pvtz
}

set_num_threads( 4 )
memory 2 gb

molecule MOL {
0 1

H	 -2.496957	 -0.699645	 -1.226326
O	 -2.321472	 -0.864941	 -0.318626
C	 -2.021813	 0.336996	 0.342658
C	 -0.669613	 0.837286	 -0.127252
H	 -2.780861	 1.084746	 0.127159
H	 -2.006390	 0.184138	 1.420053
C	 0.490865	 -0.082543	 0.241244
H	 -0.708709	 0.967192	 -1.204587
H	 -0.507562	 1.822272	 0.303070
C	 1.839800	 0.429565	 -0.255472
H	 0.305636	 -1.070211	 -0.165276
H	 0.527397	 -0.195943	 1.322876
C	 3.001144	 -0.485193	 0.119072
H	 1.804373	 0.541073	 -1.335756
H	 2.020437	 1.423114	 0.146921
H	 2.866892	 -1.477297	 -0.298806
H	 3.943543	 -0.095749	 -0.249061
H	 3.085064	 -0.590459	 1.195790

	symmetry c1
}
set optking {
	frozen_dihedral = ("
		1 2 3 4
	")
}

ee,wfn = optimize('scf', return_wfn=True)
oeprop( wfn, 'DIPOLE', 'QUADRUPOLE', 'MULLIKEN_CHARGES')
f=open( 'psi4out.xyz', 'w' )
f.write( "18  " )
f.write( str(ee) + "\n" )
f.write( MOL.save_string_xyz() )
f.close()
--------------------------------------------------------------------------

    Molecular point group: c1
  Charge       = 0
  Multiplicity = 1
  Basis Set: CC-PVTZ
  Basis Set:
  @DF-RHF Final Energy:  -271.28482855077368
    Total Energy =                       -271.2848285507739092
    Molecular point group: c1
  Basis Set: CC-PVTZ
  Basis Set:
  Basis Set: CC-PVTZ
  Basis Set:
  @DF-RHF Final Energy:  -271.03843202021824
    Total Energy =                       -271.0384320202177832
  Basis Set: CC-PVTZ
  Basis Set:
  Basis Set: CC-PVTZ
  Basis Set:
  @DF-RHF Final Energy:  -271.17015037712065
    Total Energy =                       -271.1701503771205921
  Basis Set: CC-PVTZ
  Basis Set:
  Basis Set: CC-PVTZ
  Basis Set:
  @DF-RHF Final Energy:  -271.26724373716536
    Total Energy =                       -271.2672437371654155
  Basis Set: CC-PVTZ
  Basis Set:
  @DF-RHF Final Energy:  -271.28326284819417
    Total Energy =                       -271.2832628481941128
  @DF-RHF Final Energy:  -271.28606645794332
    Total Energy =                       -271.2860664579433205
  Basis Set: CC-PVTZ
  Basis Set:
  @DF-RHF Final Energy:  -271.28651167975443
    Total Energy =                       -271.2865116797545966
  Basis Set: CC-PVTZ
  Basis Set:
  Basis Set: CC-PVTZ
  Basis Set:
  @DF-RHF Final Energy:  -271.28653672645919
    Total Energy =                       -271.2865367264593033
  Basis Set: CC-PVTZ
  Basis Set:
  Basis Set: CC-PVTZ
  Basis Set:
  @DF-RHF Final Energy:  -271.28653801681298
    Total Energy =                       -271.2865380168127558
  Basis Set: CC-PVTZ
  Basis Set:
  Charge       = 0
  Multiplicity = 1
  Basis Set: CC-PVTZ
  Basis Set:

    Orbital Energies (a.u.)
    -----------------------

    Doubly Occupied:

       1A    -20.546534     2A    -11.265882     3A    -11.214780
       4A    -11.212633     5A    -11.208811     6A    -11.205346
       7A     -1.364338     8A     -1.079410     9A     -1.011342
      10A     -0.917182    11A     -0.829007    12A     -0.792616
      13A     -0.684779    14A     -0.652778    15A     -0.612985
      16A     -0.611289    17A     -0.575868    18A     -0.552972
      19A     -0.537561    20A     -0.494266    21A     -0.490397
      22A     -0.477392    23A     -0.463106    24A     -0.458423
      25A     -0.425954

  @DF-RHF Final Energy:  -271.28653812282244

   => Energetics <=

    Nuclear Repulsion Energy =            248.9986236317546400
    One-Electron Energy =                -861.1990158575986243
    Two-Electron Energy =                 340.9138541030218903
    DFT Exchange-Correlation Energy =       0.0000000000000000
    Empirical Dispersion Energy =           0.0000000000000000
    PCM Polarization Energy =               0.0000000000000000
    EFP Energy =                            0.0000000000000000
    Total Energy =                       -271.2865381228220940
    Molecular point group: c1
  Basis Set: CC-PVTZ
  Basis Set:

  -Total Gradient:
     Atom            X                  Y                   Z
    ------   -----------------  -----------------  -----------------
       1       -0.000291907643     0.000259498227     0.000121432022
       2        0.000404869900    -0.000358663511    -0.000055329622
       3       -0.000223793565     0.000223925491    -0.000258617492
       4        0.000131876532    -0.000113513860     0.000195793836
       5       -0.000010947416    -0.000004214098     0.000000932526
       6       -0.000013079645    -0.000005462699     0.000017286489
       7       -0.000024107152    -0.000010501123    -0.000009752135
       8        0.000005592622    -0.000006794193    -0.000006156916
       9        0.000003725610     0.000015448056    -0.000004441524
      10        0.000018747958     0.000001815507     0.000005362443
      11       -0.000012258125    -0.000013038236     0.000003595890
      12       -0.000000792585     0.000003181554    -0.000000806781
      13        0.000001310492     0.000013006584    -0.000002087324
      14       -0.000001229262    -0.000005306021     0.000003022427
      15        0.000012802493     0.000013884545    -0.000010206884
      16       -0.000010002340    -0.000014924549     0.000001945620
      17        0.000008770361     0.000000274253    -0.000003578795
      18        0.000000421758     0.000001384071     0.000001606223

  **** Optimization is complete! (in 10 steps) ****
    Final optimized geometry and variables:
    Molecular point group: c1

    Geometry (in Angstrom), charge = 0, multiplicity = 1:

    H           -2.905858884362     0.089470093068    -0.270498854488
    O           -2.485055931151     0.165665323326     0.566448563999
    C           -1.575835954842     1.234758014544     0.548003660757
    C           -0.353424426911     0.968986726550    -0.317786021965
    H           -2.069867110731     2.145449039667     0.219359991860
    H           -1.275499686491     1.386176055427     1.577218014391
    C            0.493002063961    -0.208650575919     0.155843193981
    H           -0.676574903281     0.799375614549    -1.343613351612
    H            0.251113904774     1.872797850458    -0.335196596883
    C            1.697817399034    -0.482569188044    -0.739761716646
    H           -0.127838728286    -1.096059323820     0.211459898913
    H            0.836787876499    -0.013152277839     1.169092524995
    C            2.547229739895    -1.653524304534    -0.257068910679
    H            1.354827586545    -0.680976934794    -1.751799632947
    H            2.315497374336     0.409885546126    -0.798218888425
    H            1.965665935600    -2.568577558421    -0.219601742416
    H            3.391690777477    -1.824574659110    -0.914940959249
    H            2.935929543969    -1.470187510938     0.739121132506

  Mulliken Charges: (a.u.)
   Center  Symbol    Alpha    Beta     Spin     Total
       1     H     0.39513  0.39513  0.00000  0.20974
       2     O     4.20363  4.20363  0.00000 -0.40726
       3     C     2.97883  2.97883  0.00000  0.04234
       4     C     3.09889  3.09889  0.00000 -0.19778
       5     H     0.46017  0.46017  0.00000  0.07967
       6     H     0.45879  0.45879  0.00000  0.08241
       7     C     3.08493  3.08493  0.00000 -0.16987
       8     H     0.45941  0.45941  0.00000  0.08117
       9     H     0.45405  0.45405  0.00000  0.09189
      10     C     3.08340  3.08340  0.00000 -0.16680
      11     H     0.44665  0.44665  0.00000  0.10669
      12     H     0.45618  0.45618  0.00000  0.08764
      13     C     3.14952  3.14952  0.00000 -0.29904
      14     H     0.45547  0.45547  0.00000  0.08905
      15     H     0.45624  0.45624  0.00000  0.08752
      16     H     0.45455  0.45455  0.00000  0.09090
      17     H     0.44909  0.44909  0.00000  0.10182
      18     H     0.45505  0.45505  0.00000  0.08989

   Total alpha = 25.00000, Total beta = 25.00000, Total charge = -0.00000

*** Psi4 exiting successfully. Buy a developer a beer!
