  ==> Input File <==

--------------------------------------------------------------------------
set {
	reference rhf
	basis 6-31G*
}

set_num_threads( 4 )
memory 2 gb

molecule MOL {
0 1

H	 5.268524	 0.192471	 1.070992
C	 4.673736	 -0.214914	 0.259335
C	 3.185378	 -0.203514	 0.605509
H	 4.871837	 0.380453	 -0.627026
H	 5.025590	 -1.224632	 0.065769
C	 2.317601	 -0.778379	 -0.516234
H	 2.874655	 0.814325	 0.817774
H	 3.023650	 -0.778480	 1.515976
C	 0.816411	 -0.609705	 -0.281191
H	 2.581732	 -0.308991	 -1.457273
H	 2.529942	 -1.839959	 -0.621113
C	 0.318345	 0.822020	 -0.412858
H	 0.261912	 -1.198917	 -1.009977
H	 0.529115	 -1.000573	 0.692390
C	 -1.043198	 1.148791	 0.175474
O	 0.960503	 1.658883	 -0.972946
C	 -2.199608	 0.375689	 -0.475826
H	 -1.191931	 2.215313	 0.056632
H	 -1.020341	 0.931792	 1.241811
C	 -3.563569	 0.799990	 0.072069
H	 -2.178179	 0.537577	 -1.551441
H	 -2.070242	 -0.692106	 -0.319140
C	 -4.722650	 0.037622	 -0.568424
H	 -3.698620	 1.866685	 -0.089132
H	 -3.581179	 0.648047	 1.149101
H	 -4.750421	 0.196511	 -1.642533
H	 -4.634133	 -1.031014	 -0.394376
H	 -5.675567	 0.360791	 -0.161743

	symmetry c1
}
set optking {
	frozen_dihedral = ("
		10 6 3 2
	")
}

ee = optimize('scf')
oeprop('DIPOLE', 'QUADRUPOLE', 'MULLIKEN_CHARGES')
f=open( 'psi4out.xyz', 'w' )
f.write( "28  " )
f.write( str(ee) + "\n" )
f.write( MOL.save_string_xyz() )
f.close()
--------------------------------------------------------------------------

    Molecular point group: c1
  Charge       = 0
  Multiplicity = 1
  Basis Set: 6-31G*
  Basis Set:
  @DF-RHF Final Energy:  -426.16892949098201
    Total Energy =                       -426.1689294909815544
    Molecular point group: c1
  Basis Set: 6-31G*
  Basis Set:
  Basis Set: 6-31G*
  Basis Set:
  @DF-RHF Final Energy:  -426.16894964216704
    Total Energy =                       -426.1689496421665808
  Basis Set: 6-31G*
  Basis Set:
  Basis Set: 6-31G*
  Basis Set:
  @DF-RHF Final Energy:  -426.16876314130616
    Total Energy =                       -426.1687631413060444
  Basis Set: 6-31G*
  Basis Set:
  Basis Set: 6-31G*
  Basis Set:
  @DF-RHF Final Energy:  -426.16896383048834
    Total Energy =                       -426.1689638304887922
  Basis Set: 6-31G*
  Basis Set:
  Basis Set: 6-31G*
  Basis Set:
  @DF-RHF Final Energy:  -426.16895911488359
    Total Energy =                       -426.1689591148838190
  Basis Set: 6-31G*
  Basis Set:
  Basis Set: 6-31G*
  Basis Set:
  @DF-RHF Final Energy:  -426.16895295667860
    Total Energy =                       -426.1689529566779129
  Basis Set: 6-31G*
  Basis Set:
  Basis Set: 6-31G*
  Basis Set:
  @DF-RHF Final Energy:  -426.16896607143053
    Total Energy =                       -426.1689660714308729
  Basis Set: 6-31G*
  Basis Set:
  Charge       = 0
  Multiplicity = 1
  Basis Set: 6-31G*
  Basis Set:

    Orbital Energies (a.u.)
    -----------------------

    Doubly Occupied:

       1A    -20.548086     2A    -11.322081     3A    -11.232467
       4A    -11.230037     5A    -11.228841     6A    -11.226133
       7A    -11.216365     8A    -11.216321     9A    -11.212498
      10A    -11.205241    11A     -1.393194    12A     -1.095204
      13A     -1.077298    14A     -1.022589    15A     -0.990668
      16A     -0.907303    17A     -0.873168    18A     -0.809298
      19A     -0.799625    20A     -0.723080    21A     -0.669013
      22A     -0.652900    23A     -0.626880    24A     -0.619891
      25A     -0.610029    26A     -0.588751    27A     -0.576920
      28A     -0.573965    29A     -0.543081    30A     -0.531788
      31A     -0.521218    32A     -0.506092    33A     -0.499870
      34A     -0.484851    35A     -0.478497    36A     -0.475564
      37A     -0.471367    38A     -0.464998    39A     -0.455250
      40A     -0.392359

  @DF-RHF Final Energy:  -426.16896610945571

   => Energetics <=

    Nuclear Repulsion Energy =            531.4033229755900720
    One-Electron Energy =               -1630.9990091184224639
    Two-Electron Energy =                 673.4267200333765686
    DFT Exchange-Correlation Energy =       0.0000000000000000
    Empirical Dispersion Energy =           0.0000000000000000
    PCM Polarization Energy =               0.0000000000000000
    EFP Energy =                            0.0000000000000000
    Total Energy =                       -426.1689661094558232
    Molecular point group: c1
  Basis Set: 6-31G*
  Basis Set:

  -Total Gradient:
     Atom            X                  Y                   Z
    ------   -----------------  -----------------  -----------------
       1       -0.000001204468    -0.000000842960     0.000000115010
       2       -0.000093334611     0.001067570233    -0.000471654844
       3        0.000388772614    -0.001751867375     0.000584087052
       4        0.000000568514     0.000001898332     0.000001564355
       5        0.000001379958    -0.000000160846    -0.000002257308
       6       -0.001393196490     0.001854756278     0.000156238998
       7       -0.000002687142    -0.000000433082     0.000000783031
       8        0.000002551630    -0.000001203777    -0.000001595855
       9       -0.000002117855     0.000002823158     0.000005175591
      10        0.001099358781    -0.001167790840    -0.000266852914
      11       -0.000002713788    -0.000001971380    -0.000001131021
      12       -0.000005219519    -0.000001055071    -0.000000991976
      13       -0.000000444027     0.000001523290    -0.000001674564
      14        0.000001975004    -0.000001992893    -0.000000676682
      15       -0.000005415398     0.000000747138    -0.000010077908
      16        0.000004688924    -0.000000425202     0.000001075306
      17        0.000003076548     0.000002489580     0.000000830038
      18        0.000000893013     0.000001497007    -0.000000025365
      19       -0.000000130424     0.000000440822     0.000001368638
      20        0.000001669401    -0.000006185346     0.000008257059
      21       -0.000002247849    -0.000003130357    -0.000002299970
      22        0.000003288770     0.000000233842     0.000002698924
      23       -0.000000143420     0.000005494320    -0.000005677185
      24        0.000002209171    -0.000000522425     0.000003359956
      25       -0.000001392944    -0.000002943838     0.000000816924
      26        0.000000024069    -0.000002552543    -0.000001755394
      27       -0.000000145403     0.000001510115     0.000002372518
      28       -0.000000063058     0.000002093819    -0.000002072412

  **** Optimization is complete! (in 8 steps) ****
    Final optimized geometry and variables:
    Molecular point group: c1

    Geometry (in Angstrom), charge = 0, multiplicity = 1:

    H            5.208065428451    -0.142941672110     1.280151296132
    C            4.604959534810    -0.530307938737     0.464829377443
    C            3.118333207318    -0.505200240214     0.816905322899
    H            4.804415689320     0.076667041502    -0.412942798819
    H            4.944672014975    -1.540929444158     0.253878683946
    C            2.240155098508    -1.073582516569    -0.300872524311
    H            2.824349097156     0.519155083388     1.023639697115
    H            2.948766951436    -1.071002065172     1.731258435785
    C            0.741391040264    -0.908154243058    -0.053282393460
    H            2.502775662632    -0.609004823692    -1.244560400475
    H            2.453635838131    -2.134765000748    -0.409973824037
    C            0.238793859710     0.521445188735    -0.190919612969
    H            0.181131434914    -1.505434370717    -0.770839443665
    H            0.465007122667    -1.291175869579     0.926699318217
    C           -1.125110102330     0.845629573494     0.393564185519
    O            0.879610556751     1.358759174685    -0.751756653763
    C           -2.278178353978     0.070330090915    -0.261091421320
    H           -1.275526159564     1.911805566876     0.273800340144
    H           -1.105246868130     0.629083180355     1.460036125840
    C           -3.644618388458     0.493691148480     0.281289660894
    H           -2.253003828758     0.230914477894    -1.336805876720
    H           -2.148167144321    -0.997100566706    -0.102541746205
    C           -4.800532146095    -0.269811011906    -0.363562059125
    H           -3.779863382286     1.560218334715     0.119199229112
    H           -3.666356896829     0.342069337796     1.358303259953
    H           -4.823856826169    -0.111690295568    -1.437886686562
    H           -4.712122463479    -1.338267491451    -0.188384207739
    H           -5.755360509760     0.053087260921     0.038878634561

  Mulliken Charges: (a.u.)
   Center  Symbol    Alpha    Beta     Spin     Total
       1     H     0.41960  0.41960  0.00000  0.16079
       2     C     3.24043  3.24043  0.00000 -0.48087
       3     C     3.15514  3.15514  0.00000 -0.31027
       4     H     0.41710  0.41710  0.00000  0.16580
       5     H     0.42373  0.42373  0.00000  0.15255
       6     C     3.14961  3.14961  0.00000 -0.29922
       7     H     0.41285  0.41285  0.00000  0.17429
       8     H     0.42692  0.42692  0.00000  0.14615
       9     C     3.21190  3.21190  0.00000 -0.42381
      10     H     0.40667  0.40667  0.00000  0.18665
      11     H     0.42186  0.42186  0.00000  0.15628
      12     C     2.73130  2.73130  0.00000  0.53739
      13     H     0.40285  0.40285  0.00000  0.19429
      14     H     0.41308  0.41308  0.00000  0.17384
      15     C     3.20167  3.20167  0.00000 -0.40334
      16     O     4.26671  4.26671  0.00000 -0.53341
      17     C     3.16381  3.16381  0.00000 -0.32761
      18     H     0.39980  0.39980  0.00000  0.20040
      19     H     0.41294  0.41294  0.00000  0.17413
      20     C     3.15181  3.15181  0.00000 -0.30362
      21     H     0.41376  0.41376  0.00000  0.17248
      22     H     0.41864  0.41864  0.00000  0.16273
      23     C     3.24033  3.24033  0.00000 -0.48067
      24     H     0.41837  0.41837  0.00000  0.16325
      25     H     0.42143  0.42143  0.00000  0.15715
      26     H     0.41960  0.41960  0.00000  0.16080
      27     H     0.42120  0.42120  0.00000  0.15760
      28     H     0.41687  0.41687  0.00000  0.16626

   Total alpha = 40.00000, Total beta = 40.00000, Total charge = -0.00000
