  ==> Input File <==

--------------------------------------------------------------------------
set {
	reference rhf
	basis cc-pvtz
}

set_num_threads( 4 )
memory 2 gb

molecule MOL {
0 1

H	 -0.939693	 0.000281	 1.681345
O	 -0.046262	 -0.000157	 1.387678
C	 -0.000837	 0.000006	 -0.025491
C	 0.014824	 -1.439261	 -0.536777
C	 -1.208052	 0.756913	 -0.575825
C	 1.293932	 0.714503	 -0.387784
H	 0.085981	 -1.471536	 -1.617836
H	 -0.893650	 -1.959812	 -0.249073
H	 0.857373	 -1.976426	 -0.119612
H	 -1.181623	 0.805082	 -1.658308
H	 -2.133367	 0.266566	 -0.288727
H	 -1.227083	 1.766986	 -0.186137
H	 1.419525	 0.765362	 -1.462925
H	 2.141891	 0.190366	 0.034659
H	 1.288832	 1.722447	 0.007485

	symmetry c1
}
set optking {
	frozen_dihedral = ("
		4 3 2 1
	")
}

ee = optimize('scf')
oeprop('DIPOLE', 'QUADRUPOLE', 'MULLIKEN_CHARGES')
f=open( 'psi4out.xyz', 'w' )
f.write( "15  " )
f.write( str(ee) + "\n" )
f.write( MOL.save_string_xyz() )
f.close()
--------------------------------------------------------------------------

    Molecular point group: c1
  Charge       = 0
  Multiplicity = 1
  Basis Set: CC-PVTZ
  Basis Set:
  @DF-RHF Final Energy:  -232.24573209855637
    Total Energy =                       -232.2457320985561751
    Molecular point group: c1
  Basis Set: CC-PVTZ
  Basis Set:
  Basis Set: CC-PVTZ
  Basis Set:
  @DF-RHF Final Energy:  -232.24579976221364
    Total Energy =                       -232.2457997622135508
  Basis Set: CC-PVTZ
  Basis Set:
  Basis Set: CC-PVTZ
  Basis Set:
  @DF-RHF Final Energy:  -232.24582177876846
    Total Energy =                       -232.2458217787686294
  Basis Set: CC-PVTZ
  Basis Set:
  Basis Set: CC-PVTZ
  Basis Set:
  @DF-RHF Final Energy:  -232.24582421774255
    Total Energy =                       -232.2458242177423244
  Basis Set: CC-PVTZ
  Basis Set:
  Charge       = 0
  Multiplicity = 1
  Basis Set: CC-PVTZ
  Basis Set:

    Orbital Energies (a.u.)
    -----------------------

    Doubly Occupied:

       1A    -20.541349     2A    -11.280927     3A    -11.214184
       4A    -11.205124     5A    -11.203404     6A     -1.363934
       7A     -1.065485     8A     -0.945122     9A     -0.937570
      10A     -0.778527    11A     -0.672353    12A     -0.624371
      13A     -0.622787    14A     -0.576235    15A     -0.557444
      16A     -0.533699    17A     -0.517029    18A     -0.511383
      19A     -0.503832    20A     -0.458557    21A     -0.427683

  @DF-RHF Final Energy:  -232.24582481514904

   => Energetics <=

    Nuclear Repulsion Energy =            200.6284024313115424
    One-Electron Energy =                -712.6664606986458921
    Two-Electron Energy =                 279.7922334521853713
    DFT Exchange-Correlation Energy =       0.0000000000000000
    Empirical Dispersion Energy =           0.0000000000000000
    PCM Polarization Energy =               0.0000000000000000
    EFP Energy =                            0.0000000000000000
    Total Energy =                       -232.2458248151489784
    Molecular point group: c1
  Basis Set: CC-PVTZ
  Basis Set:

  -Total Gradient:
     Atom            X                  Y                   Z
    ------   -----------------  -----------------  -----------------
       1       -0.000023411112     0.001885779281     0.000029746349
       2        0.000410991937    -0.002308952154    -0.000008322108
       3       -0.001529680463     0.000434694829     0.000006099974
       4        0.001148124834     0.000030390098    -0.000005634098
       5       -0.000019265499    -0.000020025226     0.000000536516
       6        0.000002093665    -0.000008946526    -0.000009576222
       7       -0.000007216054    -0.000011923765     0.000001074464
       8       -0.000004622818     0.000004530618     0.000000933693
       9        0.000010073824     0.000007469648     0.000001292119
      10       -0.000000963466    -0.000001225975    -0.000018393307
      11        0.000002154949     0.000012912577     0.000004585492
      12        0.000014826145    -0.000018915812    -0.000000061647
      13        0.000000976176     0.000007254454    -0.000005323979
      14        0.000002473579    -0.000002087596     0.000003674073
      15       -0.000006555695    -0.000010954450    -0.000000631317

  **** Optimization is complete! (in 5 steps) ****
    Final optimized geometry and variables:
    Molecular point group: c1

    Geometry (in Angstrom), charge = 0, multiplicity = 1:

    H           -0.933385930566    -0.027170952401     1.691515531814
    O           -0.043819922693    -0.021073038116     1.389719661170
    C           -0.001462462182    -0.002313388583    -0.025343744385
    C            0.016767373448    -1.440886191071    -0.538420249552
    C           -1.206477327296     0.757523057890    -0.572242613175
    C            1.295434517505     0.708712713055    -0.392418908841
    H            0.092507543666    -1.473579361827    -1.619599544976
    H           -0.889054404354    -1.962166381993    -0.247737515200
    H            0.859648050099    -1.973856958104    -0.117210132705
    H           -1.176273500547     0.810041780284    -1.653750910549
    H           -2.133208526752     0.264574345190    -0.292702106533
    H           -1.226349842970     1.768200036525    -0.182032840596
    H            1.436710196483     0.730009713254    -1.466832769129
    H            2.138715353380     0.197454861393     0.054733308982
    H            1.284714053572     1.726649341667    -0.023541764334

  Mulliken Charges: (a.u.)
   Center  Symbol    Alpha    Beta     Spin     Total
       1     H     0.39399  0.39399  0.00000  0.21203
       2     O     4.21312  4.21312  0.00000 -0.42623
       3     C     2.87871  2.87871  0.00000  0.24258
       4     C     3.14455  3.14455  0.00000 -0.28910
       5     C     3.15710  3.15710  0.00000 -0.31420
       6     C     3.14137  3.14137  0.00000 -0.28274
       7     H     0.45797  0.45797  0.00000  0.08407
       8     H     0.45497  0.45497  0.00000  0.09006
       9     H     0.44802  0.44802  0.00000  0.10396
      10     H     0.45238  0.45238  0.00000  0.09524
      11     H     0.45480  0.45480  0.00000  0.09040
      12     H     0.44554  0.44554  0.00000  0.10893
      13     H     0.45923  0.45923  0.00000  0.08154
      14     H     0.44727  0.44727  0.00000  0.10546
      15     H     0.45099  0.45099  0.00000  0.09801

   Total alpha = 21.00000, Total beta = 21.00000, Total charge =  0.00000
