  ==> Input File <==

--------------------------------------------------------------------------
set {
	reference rhf
	basis cc-pvtz
}

set_num_threads( 4 )
memory 2 gb

molecule MOL {
0 1

H	 -2.432382	 -0.460771	 0.850705
O	 -2.313989	 -0.142475	 -0.025864
C	 -0.943808	 -0.065018	 -0.330000
H	 -0.812293	 -0.225641	 -1.398673
C	 -0.231030	 -1.182113	 0.407592
C	 -0.353797	 1.300461	 0.050970
H	 -0.312800	 -0.992012	 1.473041
H	 -0.738841	 -2.119564	 0.220514
C	 1.246176	 -1.268044	 -0.015480
H	 -0.539537	 2.008579	 -0.751815
H	 -0.889989	 1.662858	 0.920677
C	 1.153605	 1.231851	 0.356834
H	 1.823096	 -1.684665	 0.802361
H	 1.352335	 -1.958223	 -0.845114
C	 1.826409	 0.100723	 -0.416008
H	 1.622968	 2.181508	 0.128734
H	 1.301983	 1.066493	 1.419367
H	 2.897299	 0.112407	 -0.249665
H	 1.683458	 0.265621	 -1.480024

	symmetry c1
}
set optking {
	frozen_dihedral = ("
		1 2 3 4
	")
}

ee = optimize('scf')
oeprop('DIPOLE', 'QUADRUPOLE', 'MULLIKEN_CHARGES')
f=open( 'psi4out.xyz', 'w' )
f.write( "19  " )
f.write( str(ee) + "\n" )
f.write( MOL.save_string_xyz() )
f.close()
--------------------------------------------------------------------------

    Molecular point group: c1
  Charge       = 0
  Multiplicity = 1
  Basis Set: CC-PVTZ
  Basis Set:
  @DF-RHF Final Energy:  -309.16067439039233
    Total Energy =                       -309.1606743903926713
    Molecular point group: c1
  Basis Set: CC-PVTZ
  Basis Set:
  Basis Set: CC-PVTZ
  Basis Set:
  @DF-RHF Final Energy:  -309.16199344466293
    Total Energy =                       -309.1619934446629259
  Basis Set: CC-PVTZ
  Basis Set:
  Basis Set: CC-PVTZ
  Basis Set:
  @DF-RHF Final Energy:  -309.16232145819265
    Total Energy =                       -309.1623214581920820
  Basis Set: CC-PVTZ
  Basis Set:
  Basis Set: CC-PVTZ
  Basis Set:
  @DF-RHF Final Energy:  -309.16232608739767
    Total Energy =                       -309.1623260873974459
  Basis Set: CC-PVTZ
  Basis Set:
  Charge       = 0
  Multiplicity = 1
  Basis Set: CC-PVTZ
  Basis Set:

    Orbital Energies (a.u.)
    -----------------------

    Doubly Occupied:

       1A    -20.541884     2A    -11.267244     3A    -11.218411
       4A    -11.216336     5A    -11.215369     6A    -11.214501
       7A    -11.208686     8A     -1.362300     9A     -1.111661
      10A     -1.005454    11A     -0.989822    12A     -0.851419
      13A     -0.837375    14A     -0.751549    15A     -0.672601
      16A     -0.669909    17A     -0.622824    18A     -0.596214
      19A     -0.582331    20A     -0.559908    21A     -0.533034
      22A     -0.521597    23A     -0.502024    24A     -0.493561
      25A     -0.465517    26A     -0.450308    27A     -0.430780
      28A     -0.411327

  @DF-RHF Final Energy:  -309.16232657421943

   => Energetics <=

    Nuclear Repulsion Energy =            331.8189426156172317
    One-Electron Energy =               -1077.3546470174760543
    Two-Electron Energy =                 436.3733778276391604
    DFT Exchange-Correlation Energy =       0.0000000000000000
    Empirical Dispersion Energy =           0.0000000000000000
    PCM Polarization Energy =               0.0000000000000000
    EFP Energy =                            0.0000000000000000
    Total Energy =                       -309.1623265742196054
    Molecular point group: c1
  Basis Set: CC-PVTZ
  Basis Set:

  -Total Gradient:
     Atom            X                  Y                   Z
    ------   -----------------  -----------------  -----------------
       1       -0.000049612249    -0.001709148533    -0.000649506642
       2        0.000081452867     0.001778613313     0.000832857155
       3       -0.000126110924     0.001426579953    -0.000392359949
       4        0.000090249092    -0.001518543288     0.000252166793
       5       -0.000008920393    -0.000006551727    -0.000020367657
       6        0.000046104583    -0.000008405471     0.000008868753
       7       -0.000001023831    -0.000003710741    -0.000023434075
       8       -0.000000905873    -0.000007450458     0.000010298366
       9       -0.000020898204    -0.000013937648     0.000049393745
      10        0.000016891325     0.000023803206    -0.000008289329
      11        0.000007967607    -0.000012781953    -0.000010959937
      12       -0.000016170706     0.000032850208    -0.000032432023
      13        0.000016037422    -0.000024035753    -0.000003002200
      14       -0.000011470340     0.000005401695    -0.000001497070
      15       -0.000006796572     0.000022701117    -0.000021423400
      16       -0.000001845684     0.000014478153     0.000014992078
      17       -0.000008931562     0.000000055955    -0.000001363109
      18       -0.000011179312    -0.000006359797     0.000001616568
      19        0.000005162750     0.000006441770    -0.000005558068

  **** Optimization is complete! (in 5 steps) ****
    Final optimized geometry and variables:
    Molecular point group: c1

    Geometry (in Angstrom), charge = 0, multiplicity = 1:

    H           -2.520919754797    -0.409367000594     0.768576134207
    O           -2.336984123006    -0.093083797317    -0.097239734445
    C           -0.948152153052    -0.065356556297    -0.316611694085
    H           -0.829557634241    -0.231587774305    -1.381114283527
    C           -0.219950719047    -1.185634339702     0.411171379189
    C           -0.357590207530     1.299334893505     0.061773178360
    H           -0.285999379637    -1.004677272334     1.482553087665
    H           -0.719285137094    -2.128659556702     0.221576864572
    C            1.256169542040    -1.262606952450    -0.020005904509
    H           -0.566117118668     2.004845704210    -0.734513769728
    H           -0.884304297125     1.662235718552     0.937701086211
    C            1.154127721680     1.237057096671     0.346404158496
    H            1.842736877093    -1.668376402777     0.796453262515
    H            1.359485872652    -1.958527215132    -0.844841102688
    C            1.820106173571     0.108017098858    -0.435284553574
    H            1.616757039384     2.187991734368     0.110310392591
    H            1.322195563974     1.073475793865     1.406878402532
    H            2.893735728688     0.124408073929    -0.288468330146
    H            1.656383311773     0.267998578027    -1.496784701146

  Mulliken Charges: (a.u.)
   Center  Symbol    Alpha    Beta     Spin     Total
       1     H     0.39376  0.39376  0.00000  0.21247
       2     O     4.20947  4.20947  0.00000 -0.41894
       3     C     2.93211  2.93211  0.00000  0.13577
       4     H     0.44567  0.44567  0.00000  0.10866
       5     C     3.11349  3.11349  0.00000 -0.22697
       6     C     3.10721  3.10721  0.00000 -0.21443
       7     H     0.45842  0.45842  0.00000  0.08315
       8     H     0.43961  0.43961  0.00000  0.12079
       9     C     3.11260  3.11260  0.00000 -0.22520
      10     H     0.44738  0.44738  0.00000  0.10524
      11     H     0.45154  0.45154  0.00000  0.09692
      12     C     3.10131  3.10131  0.00000 -0.20263
      13     H     0.44748  0.44748  0.00000  0.10503
      14     H     0.44553  0.44553  0.00000  0.10893
      15     C     3.10205  3.10205  0.00000 -0.20409
      16     H     0.44191  0.44191  0.00000  0.11618
      17     H     0.45477  0.45477  0.00000  0.09047
      18     H     0.44273  0.44273  0.00000  0.11453
      19     H     0.45295  0.45295  0.00000  0.09411

   Total alpha = 28.00000, Total beta = 28.00000, Total charge = -0.00000
