                              Psi4 1.0.54 Driver

  ==> Input File <==

--------------------------------------------------------------------------
set {
	reference rhf
	basis cc-pvtz
}

set_num_threads( 4 )
memory 2 gb

molecule MOL {
0 1

H	 2.674121	 1.943520	 -0.055502
O	 3.383411	 1.546321	 -0.525576
C	 3.589165	 0.233123	 -0.075631
C	 2.507383	 -0.738121	 -0.524094
H	 4.542566	 -0.073225	 -0.484479
H	 3.682421	 0.213700	 1.008517
C	 1.127119	 -0.455129	 0.064664
H	 2.453559	 -0.718508	 -1.608472
H	 2.820306	 -1.740441	 -0.241550
C	 0.074892	 -1.469301	 -0.381554
H	 0.812252	 0.542450	 -0.222909
H	 1.190827	 -0.462141	 1.151484
C	 -1.311023	 -1.277304	 0.237018
H	 -0.009134	 -1.443031	 -1.465287
H	 0.427768	 -2.465715	 -0.130347
C	 -2.041121	 -0.006551	 -0.194127
H	 -1.924098	 -2.134417	 -0.027602
H	 -1.224865	 -1.292199	 1.321228
C	 -3.489218	 0.042606	 0.286507
H	 -2.022185	 0.066287	 -1.279394
H	 -1.518764	 0.869305	 0.178730
C	 -4.219984	 1.311773	 -0.139038
H	 -4.022855	 -0.824300	 -0.093339
H	 -3.510372	 -0.038577	 1.370031
H	 -4.244251	 1.405725	 -1.219696
H	 -5.244345	 1.313233	 0.215630
H	 -3.732090	 2.196311	 0.257073

	symmetry c1
}
set optking {
	frozen_dihedral = ("
		10 13 16 20
	")
}

ee,wfn = optimize('scf', return_wfn=True)
oeprop( wfn, 'DIPOLE', 'QUADRUPOLE', 'MULLIKEN_CHARGES')
f=open( 'psi4out.xyz', 'w' )
f.write( "27  " )
f.write( str(ee) + "\n" )
f.write( MOL.save_string_xyz() )
f.close()
--------------------------------------------------------------------------

    Molecular point group: c1
  Charge       = 0
  Multiplicity = 1
  Basis Set: CC-PVTZ
  Basis Set:
  @DF-RHF Final Energy:  -388.42772399188442
    Total Energy =                       -388.4277239918844771
    Molecular point group: c1
  Basis Set: CC-PVTZ
  Basis Set:
  Basis Set: CC-PVTZ
  Basis Set:
  @DF-RHF Final Energy:  -388.42769730557870
    Total Energy =                       -388.4276973055785902
  Basis Set: CC-PVTZ
  Basis Set:
  Basis Set: CC-PVTZ
  Basis Set:
  @DF-RHF Final Energy:  -388.42773713110751
    Total Energy =                       -388.4277371311071647
  Basis Set: CC-PVTZ
  Basis Set:
  Basis Set: CC-PVTZ
  Basis Set:
  @DF-RHF Final Energy:  -388.42773915403558
    Total Energy =                       -388.4277391540355211
  Basis Set: CC-PVTZ
  Basis Set:
  Charge       = 0
  Multiplicity = 1
  Basis Set: CC-PVTZ
  Basis Set:

    Orbital Energies (a.u.)
    -----------------------

    Doubly Occupied:

       1A    -20.545310     2A    -11.264958     3A    -11.216722
       4A    -11.214673     5A    -11.213946     6A    -11.213224
       7A    -11.213205     8A    -11.211915     9A    -11.207276
      10A     -1.363203    11A     -1.096271    12A     -1.062560
      13A     -1.012578    14A     -0.949333    15A     -0.888744
      16A     -0.820568    17A     -0.802246    18A     -0.778006
      19A     -0.696174    20A     -0.653362    21A     -0.638338
      22A     -0.616175    23A     -0.602084    24A     -0.583905
      25A     -0.580752    26A     -0.553621    27A     -0.540767
      28A     -0.533060    29A     -0.505844    30A     -0.495518
      31A     -0.485226    32A     -0.474039    33A     -0.469844
      34A     -0.461136    35A     -0.452725    36A     -0.442735
      37A     -0.425551

  @DF-RHF Final Energy:  -388.42773983819740

   => Energetics <=

    Nuclear Repulsion Energy =            460.2474956229554550
    One-Electron Energy =               -1438.7792802607959857
    Two-Electron Energy =                 590.1040447996431340
    DFT Exchange-Correlation Energy =       0.0000000000000000
    Empirical Dispersion Energy =           0.0000000000000000
    PCM Polarization Energy =               0.0000000000000000
    EFP Energy =                            0.0000000000000000
    Total Energy =                       -388.4277398381973399
    Molecular point group: c1
  Basis Set: CC-PVTZ
  Basis Set:

  -Total Gradient:
     Atom            X                  Y                   Z
    ------   -----------------  -----------------  -----------------
       1        0.000003575629     0.000004950415     0.000000580450
       2        0.000004454989     0.000008904134    -0.000011972490
       3       -0.000011300351    -0.000007214460     0.000033825165
       4        0.000001948432    -0.000004778212    -0.000019221997
       5       -0.000007466140    -0.000006800233     0.000001013076
       6        0.000004986492     0.000003994327     0.000002663243
       7        0.000004795749     0.000018008160    -0.000001391644
       8       -0.000009819566     0.000000080936    -0.000002563445
       9       -0.000000934444     0.000000855937    -0.000005442364
      10       -0.000201513732    -0.000262676790    -0.000398221074
      11       -0.000004461120    -0.000007946048    -0.000000977804
      12        0.000002525508     0.000000216782    -0.000003581950
      13        0.000432634986     0.000431244813     0.000561063718
      14        0.000000681187     0.000000411846     0.000017025342
      15       -0.000011460260     0.000007115342    -0.000004136317
      16       -0.000819884496    -0.000537365073    -0.000186739012
      17        0.000000432586     0.000007088148     0.000007361339
      18        0.000001258041     0.000010212835    -0.000017809995
      19       -0.000011257260    -0.000025979448    -0.000023922752
      20        0.000594659861     0.000342041634     0.000061543260
      21       -0.000004745542     0.000001374273    -0.000002057306
      22        0.000010347419     0.000020480218     0.000003675258
      23        0.000012858217     0.000007593464     0.000008241569
      24        0.000008419926     0.000001220624    -0.000025115861
      25       -0.000000879343    -0.000004669235     0.000016174358
      26        0.000011196398     0.000001954409     0.000001075047
      27       -0.000011053161    -0.000010318797    -0.000011087813

  **** Optimization is complete! (in 5 steps) ****
    Final optimized geometry and variables:
    Molecular point group: c1

    Geometry (in Angstrom), charge = 0, multiplicity = 1:

    H            2.656359758418     1.997908287466     0.061642689083
    O            3.371504042312     1.598822514840    -0.397582920223
    C            3.580219751422     0.292140007526     0.069494487467
    C            2.506156838520    -0.689515732906    -0.374588405337
    H            4.537832212114    -0.014548628629    -0.329078587378
    H            3.666072940726     0.286253677025     1.154379144288
    C            1.120007684230    -0.404635942121     0.198982569413
    H            2.461140629107    -0.684562288061    -1.459485730970
    H            2.820884020967    -1.686632107619    -0.076177108258
    C            0.076870703247    -1.432649533877    -0.236439578402
    H            0.800443411676     0.585582582050    -0.108457039952
    H            1.175984555657    -0.391802997321     1.286125149321
    C           -1.312090833201    -1.241932542109     0.375053576326
    H           -0.004831803706    -1.420695409182    -1.320482492602
    H            0.435915949077    -2.423227237696     0.028554413473
    C           -2.036513108701     0.033536366717    -0.052785089669
    H           -1.923712097488    -2.096246443495     0.098173523094
    H           -1.235465472876    -1.265791089775     1.459632168321
    C           -3.484720606514     0.089012376873     0.425624133658
    H           -2.011418174325     0.114414326172    -1.137306510436
    H           -1.509604448014     0.904409685942     0.325972329831
    C           -4.202774476335     1.371330558292     0.018557278653
    H           -4.025459685632    -0.766934790345     0.031537449302
    H           -3.508602548763    -0.008748441365     1.507700960053
    H           -4.223580936620     1.482376982233    -1.060507615481
    H           -5.227881156386     1.376616175358     0.370850548170
    H           -3.707821797421     2.244995354690     0.429563732793

  Mulliken Charges: (a.u.)
   Center  Symbol    Alpha    Beta     Spin     Total
       1     H     0.39230  0.39230  0.00000  0.21540
       2     O     4.20553  4.20553  0.00000 -0.41105
       3     C     2.97991  2.97991  0.00000  0.04018
       4     C     3.08937  3.08937  0.00000 -0.17874
       5     H     0.44857  0.44857  0.00000  0.10287
       6     H     0.46975  0.46975  0.00000  0.06049
       7     C     3.10252  3.10252  0.00000 -0.20503
       8     H     0.45078  0.45078  0.00000  0.09843
       9     H     0.45514  0.45514  0.00000  0.08971
      10     C     3.09863  3.09863  0.00000 -0.19726
      11     H     0.45558  0.45558  0.00000  0.08885
      12     H     0.45377  0.45377  0.00000  0.09246
      13     C     3.09786  3.09786  0.00000 -0.19572
      14     H     0.45157  0.45157  0.00000  0.09687
      15     H     0.44803  0.44803  0.00000  0.10395
      16     C     3.08891  3.08891  0.00000 -0.17782
      17     H     0.44837  0.44837  0.00000  0.10326
      18     H     0.45342  0.45342  0.00000  0.09316
      19     C     3.08384  3.08384  0.00000 -0.16768
      20     H     0.45378  0.45378  0.00000  0.09245
      21     H     0.45545  0.45545  0.00000  0.08910
      22     C     3.14970  3.14970  0.00000 -0.29940
      23     H     0.45366  0.45366  0.00000  0.09267
      24     H     0.45472  0.45472  0.00000  0.09057
      25     H     0.45482  0.45482  0.00000  0.09036
      26     H     0.44829  0.44829  0.00000  0.10342
      27     H     0.45575  0.45575  0.00000  0.08849

   Total alpha = 37.00000, Total beta = 37.00000, Total charge = -0.00000

*** Psi4 exiting successfully. Buy a developer a beer!
