  ==> Input File <==

--------------------------------------------------------------------------
set {
	reference rhf
	basis 6-31G*
}

set_num_threads( 1 )
memory 2 gb

molecule MOL {
0 1

H	 1.752422	 -1.570622	 0.582151
O	 2.016064	 -0.864478	 0.000222
C	 1.050492	 0.053836	 0.000068
C	 -0.318135	 -0.576402	 0.000164
O	 1.285279	 1.218255	 -0.000078
C	 -1.454360	 0.441875	 -0.000474
H	 -0.374042	 -1.230163	 -0.866135
H	 -0.374274	 -1.229227	 0.867154
C	 -2.826123	 -0.230780	 0.000056
H	 -1.357605	 1.085198	 -0.868380
H	 -1.357504	 1.086451	 0.866496
H	 -2.959731	 -0.858053	 -0.876869
H	 -3.619374	 0.509403	 -0.000080
H	 -2.959371	 -0.857318	 0.877556

	symmetry c1
}
set optking {
	frozen_dihedral = ("
		7 4 6 10,
		2 3 4 7
	")
}

ee = energy('scf')
oeprop('DIPOLE', 'QUADRUPOLE', 'MULLIKEN_CHARGES')
f=open( 'psi4out.xyz', 'w' )
f.write( "14  " )
f.write( str(ee) + "\n" )
f.write( MOL.save_string_xyz() )
f.close()
--------------------------------------------------------------------------

    Molecular point group: c1

    Geometry (in Angstrom), charge = 0, multiplicity = 1:

       Center              X                  Y                   Z               Mass
    ------------   -----------------  -----------------  -----------------  -----------------
           H          1.765031749957    -1.557364801014     0.575489995841     1.007825032070
           O          2.028673749957    -0.851220801014    -0.006439004159    15.994914619560
           C          1.063101749957     0.067093198986    -0.006593004159    12.000000000000
           C         -0.305525250043    -0.563144801014    -0.006497004159    12.000000000000
           O          1.297888749957     1.231512198986    -0.006739004159    15.994914619560
           C         -1.441750250043     0.455132198986    -0.007135004159    12.000000000000
           H         -0.361432250043    -1.216905801014    -0.872796004159     1.007825032070
           H         -0.361664250043    -1.215969801014     0.860492995841     1.007825032070
           C         -2.813513250043    -0.217522801014    -0.006605004159    12.000000000000
           H         -1.344995250043     1.098455198986    -0.875041004159     1.007825032070
           H         -1.344894250043     1.099708198986     0.859834995841     1.007825032070
           H         -2.947121250043    -0.844795801014    -0.883530004159     1.007825032070
           H         -3.606764250043     0.522660198986    -0.006741004159     1.007825032070
           H         -2.946761250043    -0.844060801014     0.870894995841     1.007825032070

  Charge       = 0
  Multiplicity = 1
  Basis Set: 6-31G*
  Basis Set:

    Orbital Energies (a.u.)
    -----------------------

    Doubly Occupied:

       1A    -20.609588     2A    -20.554399     3A    -11.381226
       4A    -11.250505     5A    -11.230987     6A    -11.221829
       7A     -1.470406     8A     -1.371398     9A     -1.088531
      10A     -0.980060    11A     -0.851693    12A     -0.815326
      13A     -0.720141    14A     -0.676256    15A     -0.661580
      16A     -0.630098    17A     -0.584283    18A     -0.578021
      19A     -0.551651    20A     -0.507987    21A     -0.496625
      22A     -0.488829    23A     -0.478458    24A     -0.442484

  @DF-RHF Final Energy:  -305.86337748453809

   => Energetics <=

    Nuclear Repulsion Energy =            240.3163945517829632
    One-Electron Energy =                -893.0748061720410078
    Two-Electron Energy =                 346.8950341357194702
    DFT Exchange-Correlation Energy =       0.0000000000000000
    Empirical Dispersion Energy =           0.0000000000000000
    PCM Polarization Energy =               0.0000000000000000
    EFP Energy =                            0.0000000000000000
    Total Energy =                       -305.8633774845385460

  Mulliken Charges: (a.u.)
   Center  Symbol    Alpha    Beta     Spin     Total
       1     H     0.26888  0.26888  0.00000  0.46224
       2     O     4.35032  4.35032  0.00000 -0.70064
       3     C     2.61495  2.61495  0.00000  0.77010
       4     C     3.22780  3.22780  0.00000 -0.45560
       5     O     4.26148  4.26148  0.00000 -0.52296
       6     C     3.15193  3.15193  0.00000 -0.30385
       7     H     0.39664  0.39664  0.00000  0.20671
       8     H     0.41332  0.41332  0.00000  0.17337
       9     C     3.24341  3.24341  0.00000 -0.48681
      10     H     0.40674  0.40674  0.00000  0.18652
      11     H     0.40890  0.40890  0.00000  0.18220
      12     H     0.42060  0.42060  0.00000  0.15879
      13     H     0.41308  0.41308  0.00000  0.17384
      14     H     0.42195  0.42195  0.00000  0.15610

   Total alpha = 24.00000, Total beta = 24.00000, Total charge =  0.00000
