  ==> Input File <==

--------------------------------------------------------------------------
set {
	reference rhf
	basis 6-31G*
}

set_num_threads( 4 )
memory 2 gb

molecule MOL {
0 1

H	 0.727879	 0.069849	 -1.999832
C	 0.414394	 -0.484033	 -1.138537
C	 0.411660	 -1.867295	 -1.131025
C	 0.000000	 0.183220	 0.000000
H	 0.729835	 -2.404452	 -2.005206
C	 0.000000	 -2.555744	 0.000000
N	 0.000000	 1.642018	 0.000000
C	 -0.414394	 -0.484034	 1.138537
H	 0.000000	 -3.630640	 0.000000
C	 -0.411660	 -1.867295	 1.131025
O	 1.057097	 2.196749	 0.000000
O	 -1.057097	 2.196749	 0.000000
H	 -0.727879	 0.069849	 1.999832
H	 -0.729835	 -2.404452	 2.005206

	symmetry c1
}
set optking {
	frozen_dihedral = ("
		2 4 7 11
	")
}

ee = optimize('scf')
oeprop('DIPOLE', 'QUADRUPOLE', 'MULLIKEN_CHARGES')
f=open( 'psi4out.xyz', 'w' )
f.write( "14  " )
f.write( str(ee) + "\n" )
f.write( MOL.save_string_xyz() )
f.close()
--------------------------------------------------------------------------

    Molecular point group: c1
  Charge       = 0
  Multiplicity = 1
  Basis Set: 6-31G*
  Basis Set:
  @DF-RHF Final Energy:  -434.16403104597350
    Total Energy =                       -434.1640310459732746
    Molecular point group: c1
  Basis Set: 6-31G*
  Basis Set:
  Basis Set: 6-31G*
  Basis Set:
  @DF-RHF Final Energy:  -434.15850801189902
    Total Energy =                       -434.1585080118990163
  Basis Set: 6-31G*
  Basis Set:
  Basis Set: 6-31G*
  Basis Set:
  @DF-RHF Final Energy:  -434.16435504486952
    Total Energy =                       -434.1643550448696942
  Basis Set: 6-31G*
  Basis Set:
  Basis Set: 6-31G*
  Basis Set:
  @DF-RHF Final Energy:  -434.16455728913490
    Total Energy =                       -434.1645572891347911
  Basis Set: 6-31G*
  Basis Set:
  Basis Set: 6-31G*
  Basis Set:
  @DF-RHF Final Energy:  -434.16455886113391
    Total Energy =                       -434.1645588611335143
  Basis Set: 6-31G*
  Basis Set:
  Charge       = 0
  Multiplicity = 1
  Basis Set: 6-31G*
  Basis Set:

    Orbital Energies (a.u.)
    -----------------------

    Doubly Occupied:

       1A    -20.606483     2A    -20.606377     3A    -15.855642
       4A    -11.308780     5A    -11.271294     6A    -11.270987
       7A    -11.263915     8A    -11.263271     9A    -11.262105
      10A     -1.637837    11A     -1.421793    12A     -1.203146
      13A     -1.094980    14A     -1.054220    15A     -0.957365
      16A     -0.871520    17A     -0.827168    18A     -0.781113
      19A     -0.733837    20A     -0.730791    21A     -0.715245
      22A     -0.648998    23A     -0.647895    24A     -0.624045
      25A     -0.558868    26A     -0.546259    27A     -0.531965
      28A     -0.494287    29A     -0.483676    30A     -0.451928
      31A     -0.368497    32A     -0.366628

  @DF-RHF Final Energy:  -434.16455917657441

   => Energetics <=

    Nuclear Repulsion Energy =            416.3823057504770873
    One-Electron Energy =               -1416.1719006356429418
    Two-Electron Energy =                 565.6250357085912128
    DFT Exchange-Correlation Energy =       0.0000000000000000
    Empirical Dispersion Energy =           0.0000000000000000
    PCM Polarization Energy =               0.0000000000000000
    EFP Energy =                            0.0000000000000000
    Total Energy =                       -434.1645591765745849
    Molecular point group: c1
  Basis Set: 6-31G*
  Basis Set:

  -Total Gradient:
     Atom            X                  Y                   Z
    ------   -----------------  -----------------  -----------------
       1        0.000003312432     0.000011206827    -0.000009699166
       2       -0.004708383379    -0.000159703707    -0.001550925713
       3       -0.000016877949     0.000034941840    -0.000013345260
       4        0.006810952685     0.000203111775     0.004446839739
       5        0.000002312701    -0.000001462584     0.000004555352
       6       -0.000013969411    -0.000001113771     0.000033388956
       7       -0.002335584536    -0.000148952662    -0.008598026105
       8        0.000052927918     0.000040513931    -0.000046081692
       9       -0.000000219960    -0.000001876356    -0.000003348785
      10        0.000039461102    -0.000027296688    -0.000022539369
      11        0.000187770014     0.000052240563     0.005742574310
      12       -0.000015671825    -0.000014673819     0.000005072257
      13       -0.000003344110     0.000007447587     0.000014153321
      14       -0.000002685683     0.000005617057    -0.000002617847

  **** Optimization is complete! (in 6 steps) ****
    Final optimized geometry and variables:
    Molecular point group: c1

    Geometry (in Angstrom), charge = 0, multiplicity = 1:

    H            0.757804849117     0.071153440378    -1.997715100346
    C            0.431090516476    -0.480522008419    -1.136418483176
    C            0.408364360993    -1.865223128217    -1.133040999178
    C            0.033094029086     0.181324940965     0.005342637362
    H            0.711932844247    -2.403810925628    -2.011589134646
    C           -0.003726985412    -2.551366364434    -0.001493696163
    N           -0.002409972237     1.641685001399    -0.009316609243
    C           -0.413580531814    -0.474602630322     1.132940818371
    H           -0.013449576633    -3.625999152090    -0.002075016788
    C           -0.410185744089    -1.859006895422     1.128917996743
    O            1.044137914872     2.212310845499    -0.044600783995
    O           -1.073960395844     2.160292782309     0.056954849613
    H           -0.750465969998     0.081478461880     1.987195356064
    H           -0.735502582798    -2.393409440143     2.002235300619

  Mulliken Charges: (a.u.)
   Center  Symbol    Alpha    Beta     Spin     Total
       1     H     0.37565  0.37565  0.00000  0.24870
       2     C     3.08816  3.08816  0.00000 -0.17632
       3     C     3.10372  3.10372  0.00000 -0.20745
       4     C     2.89907  2.89907  0.00000  0.20185
       5     H     0.38857  0.38857  0.00000  0.22286
       6     C     3.09252  3.09252  0.00000 -0.18504
       7     N     3.25782  3.25782  0.00000  0.48436
       8     C     3.08708  3.08708  0.00000 -0.17417
       9     H     0.39003  0.39003  0.00000  0.21994
      10     C     3.10418  3.10418  0.00000 -0.20836
      11     O     4.22400  4.22400  0.00000 -0.44799
      12     O     4.22523  4.22523  0.00000 -0.45046
      13     H     0.37545  0.37545  0.00000  0.24911
      14     H     0.38852  0.38852  0.00000  0.22297

   Total alpha = 32.00000, Total beta = 32.00000, Total charge =  0.00000
