  ==> Input File <==

--------------------------------------------------------------------------
set {
	reference rhf
	basis 6-31G*
}

set_num_threads( 1 )
memory 2 gb

molecule MOL {
0 1

H	 -3.161837	 0.500524	 -0.000234
C	 -2.367097	 -0.232926	 -0.000000
O	 -1.158440	 0.455814	 -0.000122
H	 -2.468853	 -0.861886	 -0.882833
H	 -2.468942	 -0.861421	 0.883154
C	 -0.029776	 -0.365156	 0.000148
C	 1.024166	 0.250154	 -0.903877
H	 -0.292312	 -1.364376	 -0.349899
H	 0.356839	 -0.471466	 1.014611
C	 2.301812	 -0.585761	 -0.965120
H	 0.601924	 0.362911	 -1.897687
H	 1.246616	 1.249552	 -0.542744
H	 2.104871	 -1.583429	 -1.347606
H	 3.036093	 -0.123543	 -1.616297
H	 2.753858	 -0.691122	 0.017202

	symmetry c1
}
set optking {
	frozen_dihedral = ("
		6 3 2 4,
		11 7 6 8
	")
}

ee = energy('scf')
oeprop('DIPOLE', 'QUADRUPOLE', 'MULLIKEN_CHARGES')
f=open( 'psi4out.xyz', 'w' )
f.write( "15  " )
f.write( str(ee) + "\n" )
f.write( MOL.save_string_xyz() )
f.close()
--------------------------------------------------------------------------

    Molecular point group: c1

    Geometry (in Angstrom), charge = 0, multiplicity = 1:

       Center              X                  Y                   Z               Mass
    ------------   -----------------  -----------------  -----------------  -----------------
           H         -3.085449488671     0.605661932480     0.366800739351     1.007825032070
           C         -2.290709488671    -0.127788067520     0.367034739351    12.000000000000
           O         -1.082052488671     0.560951932480     0.366912739351    15.994914619560
           H         -2.392465488671    -0.756748067520    -0.515798260649     1.007825032070
           H         -2.392554488671    -0.756283067520     1.250188739351     1.007825032070
           C          0.046611511329    -0.260018067520     0.367182739351    12.000000000000
           C          1.100553511329     0.355291932480    -0.536842260649    12.000000000000
           H         -0.215924488671    -1.259238067520     0.017135739351     1.007825032070
           H          0.433226511329    -0.366328067520     1.381645739351     1.007825032070
           C          2.378199511329    -0.480623067520    -0.598085260649    12.000000000000
           H          0.678311511329     0.468048932480    -1.530652260649     1.007825032070
           H          1.323003511329     1.354689932480    -0.175709260649     1.007825032070
           H          2.181258511329    -1.478291067520    -0.980571260649     1.007825032070
           H          3.112480511329    -0.018405067520    -1.249262260649     1.007825032070
           H          2.830245511329    -0.585984067520     0.384236739351     1.007825032070

  Charge       = 0
  Multiplicity = 1
  Basis Set: 6-31G*
  Basis Set:

    Orbital Energies (a.u.)
    -----------------------

    Doubly Occupied:

       1A    -20.551769     2A    -11.265702     3A    -11.264748
       4A    -11.213375     5A    -11.212354     6A     -1.378003
       7A     -1.056521     8A     -0.955447     9A     -0.878455
      10A     -0.808934    11A     -0.673305    12A     -0.653125
      13A     -0.633593    14A     -0.603821    15A     -0.567321
      16A     -0.539134    17A     -0.503057    18A     -0.490752
      19A     -0.480506    20A     -0.463629    21A     -0.407801

  @DF-RHF Final Energy:  -232.13645384416577

   => Energetics <=

    Nuclear Repulsion Energy =            190.2134817229924693
    One-Electron Energy =                -691.4972037832908427
    Two-Electron Energy =                 269.1472682161323178
    DFT Exchange-Correlation Energy =       0.0000000000000000
    Empirical Dispersion Energy =           0.0000000000000000
    PCM Polarization Energy =               0.0000000000000000
    EFP Energy =                            0.0000000000000000
    Total Energy =                       -232.1364538441660557

  Mulliken Charges: (a.u.)
   Center  Symbol    Alpha    Beta     Spin     Total
       1     H     0.41293  0.41293  0.00000  0.17415
       2     C     3.08065  3.08065  0.00000 -0.16130
       3     O     4.30561  4.30561  0.00000 -0.61121
       4     H     0.42984  0.42984  0.00000  0.14031
       5     H     0.43006  0.43006  0.00000  0.13988
       6     C     2.98399  2.98399  0.00000  0.03202
       7     C     3.15763  3.15763  0.00000 -0.31526
       8     H     0.43334  0.43334  0.00000  0.13333
       9     H     0.42808  0.42808  0.00000  0.14385
      10     C     3.24867  3.24867  0.00000 -0.49735
      11     H     0.41751  0.41751  0.00000  0.16498
      12     H     0.41383  0.41383  0.00000  0.17234
      13     H     0.42162  0.42162  0.00000  0.15676
      14     H     0.41571  0.41571  0.00000  0.16857
      15     H     0.42054  0.42054  0.00000  0.15892

   Total alpha = 21.00000, Total beta = 21.00000, Total charge = -0.00000
