  ==> Input File <==

--------------------------------------------------------------------------
set {
	reference rhf
	basis 6-31G*
}

set_num_threads( 4 )
memory 2 gb

molecule MOL {
0 1

H	 -0.526506	 -1.609403	 0.300340
N	 -0.626943	 -0.667432	 -0.000092
C	 -1.936801	 -0.217709	 -0.413296
C	 0.469286	 0.129090	 0.000148
H	 -2.298578	 -0.797387	 -1.255968
H	 -1.860823	 0.816592	 -0.706855
H	 -2.650974	 -0.301613	 0.399077
C	 1.788933	 -0.616240	 -0.000037
O	 0.411098	 1.327768	 -0.000049
H	 1.872803	 -1.245775	 -0.880381
H	 2.595421	 0.101576	 0.003713
H	 1.870096	 -1.252171	 0.875943

	symmetry c1
}
set optking {
	frozen_dihedral = ("
		3 2 4 9
	")
}

ee = optimize('scf')
oeprop('DIPOLE', 'QUADRUPOLE', 'MULLIKEN_CHARGES')
f=open( 'psi4out.xyz', 'w' )
f.write( "12  " )
f.write( str(ee) + "\n" )
f.write( MOL.save_string_xyz() )
f.close()
--------------------------------------------------------------------------

    Molecular point group: c1
  Charge       = 0
  Multiplicity = 1
  Basis Set: 6-31G*
  Basis Set:
  @DF-RHF Final Energy:  -247.00104705645009
    Total Energy =                       -247.0010470564498064
    Molecular point group: c1
  Basis Set: 6-31G*
  Basis Set:
  Basis Set: 6-31G*
  Basis Set:
  @DF-RHF Final Energy:  -247.00234073007690
    Total Energy =                       -247.0023407300768667
  Basis Set: 6-31G*
  Basis Set:
  Basis Set: 6-31G*
  Basis Set:
  @DF-RHF Final Energy:  -247.00394425184845
    Total Energy =                       -247.0039442518486226
  Basis Set: 6-31G*
  Basis Set:
  Basis Set: 6-31G*
  Basis Set:
  @DF-RHF Final Energy:  -247.00414545157886
    Total Energy =                       -247.0041454515789496
  Basis Set: 6-31G*
  Basis Set:
  @DF-RHF Final Energy:  -247.00424259713878
    Total Energy =                       -247.0042425971387274
  @DF-RHF Final Energy:  -247.00450259361210
    Total Energy =                       -247.0045025936121306
  Basis Set: 6-31G*
  Basis Set:
  @DF-RHF Final Energy:  -247.00468777274065
    Total Energy =                       -247.0046877727406809
  Basis Set: 6-31G*
  Basis Set:
  Basis Set: 6-31G*
  Basis Set:
  @DF-RHF Final Energy:  -247.00478865139726
    Total Energy =                       -247.0047886513972912
  Basis Set: 6-31G*
  Basis Set:
  Basis Set: 6-31G*
  Basis Set:
  @DF-RHF Final Energy:  -247.00479262277699
    Total Energy =                       -247.0047926227770176
  Basis Set: 6-31G*
  Basis Set:
  Charge       = 0
  Multiplicity = 1
  Basis Set: 6-31G*
  Basis Set:

    Orbital Energies (a.u.)
    -----------------------

    Doubly Occupied:

       1A    -20.520172     2A    -15.581059     3A    -11.343426
       4A    -11.254679     5A    -11.231121     6A     -1.387741
       7A     -1.228376     8A     -1.015889     9A     -0.931083
      10A     -0.782901    11A     -0.689579    12A     -0.648716
      13A     -0.632909    14A     -0.586654    15A     -0.581217
      16A     -0.554303    17A     -0.545909    18A     -0.505671
      19A     -0.416595    20A     -0.388659

  @DF-RHF Final Energy:  -247.00479284277475

   => Energetics <=

    Nuclear Repulsion Energy =            181.4129380089927395
    One-Electron Energy =                -695.1821433492514188
    Two-Electron Energy =                 266.7644124974841020
    DFT Exchange-Correlation Energy =       0.0000000000000000
    Empirical Dispersion Energy =           0.0000000000000000
    PCM Polarization Energy =               0.0000000000000000
    EFP Energy =                            0.0000000000000000
    Total Energy =                       -247.0047928427745205
    Molecular point group: c1
  Basis Set: 6-31G*
  Basis Set:

  -Total Gradient:
     Atom            X                  Y                   Z
    ------   -----------------  -----------------  -----------------
       1       -0.000013100700    -0.000006848524    -0.000006608336
       2       -0.000463188690     0.003985912083     0.006121967470
       3        0.000379129878    -0.002119579839    -0.002736767345
       4       -0.000282132089    -0.003369072398    -0.007351446447
       5       -0.000015517943     0.000009259591    -0.000014197086
       6        0.000034717566    -0.000024579969     0.000010991083
       7        0.000001796113    -0.000010374446    -0.000000391943
       8        0.000004412860     0.000007652721    -0.000002357915
       9        0.000363850634     0.001535375287     0.003979749113
      10        0.000000144540    -0.000005874892     0.000004780601
      11        0.000002196805    -0.000001446031    -0.000005026868
      12       -0.000012308975    -0.000000423587    -0.000000692325

  **** Optimization is complete! (in 10 steps) ****
    Final optimized geometry and variables:
    Molecular point group: c1

    Geometry (in Angstrom), charge = 0, multiplicity = 1:

    H           -0.537189783195    -1.531807906783     0.556899811327
    N           -0.653255194790    -0.562020617299     0.365567888847
    C           -1.953465226252    -0.162203618750    -0.134518650977
    C            0.467014312055     0.122489524313     0.003144274154
    H           -2.069768239427    -0.375061442329    -1.193278599119
    H           -2.082173197841     0.898145349369     0.017643223550
    H           -2.719524769192    -0.691187531102     0.417524371097
    C            1.771157437859    -0.615260163397     0.222781897351
    O            0.429219719179     1.241025043187    -0.425610361198
    H            1.954212214671    -1.281381608993    -0.615552729241
    H            2.576615747944     0.102572087280     0.274211075316
    H            1.752404295253    -1.209669377461     1.129596155281

  Mulliken Charges: (a.u.)
   Center  Symbol    Alpha    Beta     Spin     Total
       1     H     0.31399  0.31399  0.00000  0.37201
       2     N     3.88253  3.88253  0.00000 -0.76507
       3     C     3.14324  3.14324  0.00000 -0.28647
       4     C     2.63440  2.63440  0.00000  0.73119
       5     H     0.41651  0.41651  0.00000  0.16698
       6     H     0.39347  0.39347  0.00000  0.21305
       7     H     0.41537  0.41537  0.00000  0.16926
       8     C     3.29558  3.29558  0.00000 -0.59116
       9     O     4.29774  4.29774  0.00000 -0.59548
      10     H     0.40435  0.40435  0.00000  0.19129
      11     H     0.39238  0.39238  0.00000  0.21524
      12     H     0.41043  0.41043  0.00000  0.17914

   Total alpha = 20.00000, Total beta = 20.00000, Total charge = -0.00000
