  ==> Input File <==

--------------------------------------------------------------------------
set {
	reference rhf
	basis 6-31G*
}

set_num_threads( 1 )
memory 2 gb

molecule MOL {
0 1

O	 1.495567	 1.909057	 -0.431871
C	 0.671536	 1.919224	 -1.288602
C	 -0.630374	 1.156135	 -1.264211
O	 0.793446	 2.626166	 -2.405073
C	 -0.823008	 0.326187	 0.001381
H	 -1.432559	 1.878701	 -1.387140
H	 -0.657105	 0.531228	 -2.152746
C	 -2.149452	 -0.435131	 -0.000098
H	 -0.772801	 0.978257	 0.867679
H	 0.002753	 -0.371345	 0.100759
C	 -3.368779	 0.488503	 -0.000883
H	 -2.193746	 -1.087250	 -0.871175
H	 -2.195311	 -1.087803	 0.870418
C	 -4.693822	 -0.272754	 -0.001129
H	 -3.325798	 1.139422	 -0.871284
H	 -3.326423	 1.139959	 0.869145
H	 -4.781274	 -0.907928	 -0.878124
H	 -5.538651	 0.408946	 -0.001420
H	 -4.781694	 -0.907783	 0.875984
C	 1.974215	 3.393289	 -2.554278
H	 2.056247	 4.122702	 -1.761337
H	 1.886453	 3.887349	 -3.509306
H	 2.846143	 2.755259	 -2.541438

	symmetry c1
}
set optking {
	frozen_dihedral = ("
		15 11 8 12,
		1 2 3 6,
		9 5 3 6,
		1 2 4 20
	")
}

ee = energy('scf')
oeprop('DIPOLE', 'QUADRUPOLE', 'MULLIKEN_CHARGES')
f=open( 'psi4out.xyz', 'w' )
f.write( "23  " )
f.write( str(ee) + "\n" )
f.write( MOL.save_string_xyz() )
f.close()
--------------------------------------------------------------------------

    Molecular point group: c1

    Geometry (in Angstrom), charge = 0, multiplicity = 1:

       Center              X                  Y                   Z               Mass
    ------------   -----------------  -----------------  -----------------  -----------------
           O          2.218177900672     0.648303034676     0.468531479298    15.994914619560
           C          1.394146900672     0.658470034676    -0.388199520702    12.000000000000
           C          0.092236900672    -0.104618965324    -0.363808520702    12.000000000000
           O          1.516056900672     1.365412034676    -1.504670520702    15.994914619560
           C         -0.100397099328    -0.934566965324     0.901783479298    12.000000000000
           H         -0.709948099328     0.617947034676    -0.486737520702     1.007825032070
           H          0.065505900672    -0.729525965324    -1.252343520702     1.007825032070
           C         -1.426841099328    -1.695884965324     0.900304479298    12.000000000000
           H         -0.050190099328    -0.282496965324     1.768081479298     1.007825032070
           H          0.725363900672    -1.632098965324     1.001161479298     1.007825032070
           C         -2.646168099328    -0.772250965324     0.899519479298    12.000000000000
           H         -1.471135099328    -2.348003965324     0.029227479298     1.007825032070
           H         -1.472700099328    -2.348556965324     1.770820479298     1.007825032070
           C         -3.971211099328    -1.533507965324     0.899273479298    12.000000000000
           H         -2.603187099328    -0.121331965324     0.029118479298     1.007825032070
           H         -2.603812099328    -0.120794965324     1.769547479298     1.007825032070
           H         -4.058663099328    -2.168681965324     0.022278479298     1.007825032070
           H         -4.816040099328    -0.851807965324     0.898982479298     1.007825032070
           H         -4.059083099328    -2.168536965324     1.776386479298     1.007825032070
           C          2.696825900672     2.132535034676    -1.653875520702    12.000000000000
           H          2.778857900672     2.861948034676    -0.860934520702     1.007825032070
           H          2.609063900672     2.626595034676    -2.608903520702     1.007825032070
           H          3.568753900672     1.494505034676    -1.641035520702     1.007825032070

  Charge       = 0
  Multiplicity = 1
  Basis Set: 6-31G*
  Basis Set:

    Orbital Energies (a.u.)
    -----------------------

    Doubly Occupied:

       1A    -20.603518     2A    -20.545185     3A    -11.372085
       4A    -11.280767     5A    -11.234733     6A    -11.219204
       7A    -11.218381     8A    -11.217675     9A    -11.211040
      10A     -1.469165    11A     -1.362572    12A     -1.095989
      13A     -1.041263    14A     -0.987148    15A     -0.932780
      16A     -0.850437    17A     -0.793131    18A     -0.763986
      19A     -0.702333    20A     -0.682264    21A     -0.672201
      22A     -0.635870    23A     -0.623312    24A     -0.599444
      25A     -0.576859    26A     -0.557555    27A     -0.555960
      28A     -0.527784    29A     -0.520215    30A     -0.509403
      31A     -0.491154    32A     -0.468600    33A     -0.465549
      34A     -0.457379    35A     -0.452198    36A     -0.437272

  @DF-RHF Final Energy:  -422.97386624107435

   => Energetics <=

    Nuclear Repulsion Energy =            459.0357368468245340
    One-Electron Energy =               -1485.7505130197664585
    Two-Electron Energy =                 603.7409099318699646
    DFT Exchange-Correlation Energy =       0.0000000000000000
    Empirical Dispersion Energy =           0.0000000000000000
    PCM Polarization Energy =               0.0000000000000000
    EFP Energy =                            0.0000000000000000
    Total Energy =                       -422.9738662410720735

  Mulliken Charges: (a.u.)
   Center  Symbol    Alpha    Beta     Spin     Total
       1     O     4.28600  4.28600  0.00000 -0.57199
       2     C     2.60418  2.60418  0.00000  0.79163
       3     C     3.21143  3.21143  0.00000 -0.42286
       4     O     4.30725  4.30725  0.00000 -0.61450
       5     C     3.15361  3.15361  0.00000 -0.30723
       6     H     0.39862  0.39862  0.00000  0.20276
       7     H     0.40102  0.40102  0.00000  0.19796
       8     C     3.15535  3.15535  0.00000 -0.31070
       9     H     0.41186  0.41186  0.00000  0.17629
      10     H     0.40965  0.40965  0.00000  0.18069
      11     C     3.15606  3.15606  0.00000 -0.31211
      12     H     0.42416  0.42416  0.00000  0.15168
      13     H     0.41790  0.41790  0.00000  0.16421
      14     C     3.23853  3.23853  0.00000 -0.47705
      15     H     0.42269  0.42269  0.00000  0.15461
      16     H     0.42126  0.42126  0.00000  0.15747
      17     H     0.42160  0.42160  0.00000  0.15679
      18     H     0.41884  0.41884  0.00000  0.16232
      19     H     0.42092  0.42092  0.00000  0.15816
      20     C     3.09243  3.09243  0.00000 -0.18486
      21     H     0.40906  0.40906  0.00000  0.18187
      22     H     0.40848  0.40848  0.00000  0.18304
      23     H     0.40909  0.40909  0.00000  0.18182

   Total alpha = 36.00000, Total beta = 36.00000, Total charge =  0.00000
