  ==> Input File <==

--------------------------------------------------------------------------
set {
	reference rhf
	basis 6-31G*
}

set_num_threads( 4 )
memory 2 gb

molecule MOL {
0 1

H	 -0.944757	 -0.000069	 1.678017
O	 -0.042387	 -0.000390	 1.388199
C	 -0.001487	 0.000018	 -0.026623
C	 -0.706669	 1.249036	 -0.558895
C	 1.453646	 -0.045874	 -0.496864
C	 -0.745978	 -1.262168	 -0.447385
H	 -0.729557	 1.258870	 -1.643919
H	 -0.194671	 2.150921	 -0.231225
H	 -1.726213	 1.289499	 -0.191593
H	 1.518886	 -0.086651	 -1.579532
H	 1.994346	 0.838120	 -0.166518
H	 1.952861	 -0.917267	 -0.087796
H	 -0.771973	 -1.356262	 -1.528225
H	 -1.764851	 -1.236899	 -0.077593
H	 -0.259359	 -2.138967	 -0.035294

	symmetry c1
}
set optking {
	frozen_dihedral = ("
		4 3 2 1
	")
}

ee = optimize('scf')
oeprop('DIPOLE', 'QUADRUPOLE', 'MULLIKEN_CHARGES')
f=open( 'psi4out.xyz', 'w' )
f.write( "15  " )
f.write( str(ee) + "\n" )
f.write( MOL.save_string_xyz() )
f.close()
--------------------------------------------------------------------------

    Molecular point group: c1
  Charge       = 0
  Multiplicity = 1
  Basis Set: 6-31G*
  Basis Set:
  @DF-RHF Final Energy:  -232.15103739659969
    Total Energy =                       -232.1510373965996337
    Molecular point group: c1
  Basis Set: 6-31G*
  Basis Set:
  Basis Set: 6-31G*
  Basis Set:
  @DF-RHF Final Energy:  -232.15290700491045
    Total Energy =                       -232.1529070049105030
  Basis Set: 6-31G*
  Basis Set:
  Basis Set: 6-31G*
  Basis Set:
  @DF-RHF Final Energy:  -232.15335161719258
    Total Energy =                       -232.1533516171925839
  Basis Set: 6-31G*
  Basis Set:
  Basis Set: 6-31G*
  Basis Set:
  @DF-RHF Final Energy:  -232.15333194274947
    Total Energy =                       -232.1533319427496167
  Basis Set: 6-31G*
  Basis Set:
  Basis Set: 6-31G*
  Basis Set:
  @DF-RHF Final Energy:  -232.15336259371634
    Total Energy =                       -232.1533625937162242
  Basis Set: 6-31G*
  Basis Set:
  Charge       = 0
  Multiplicity = 1
  Basis Set: 6-31G*
  Basis Set:

    Orbital Energies (a.u.)
    -----------------------

    Doubly Occupied:

       1A    -20.549177     2A    -11.281791     3A    -11.211245
       4A    -11.210878     5A    -11.205235     6A     -1.360748
       7A     -1.063277     8A     -0.941328     9A     -0.939462
      10A     -0.775605    11A     -0.670233    12A     -0.622511
      13A     -0.621104    14A     -0.574702    15A     -0.556792
      16A     -0.531421    17A     -0.516811    18A     -0.508981
      19A     -0.503016    20A     -0.457296    21A     -0.425239

  @DF-RHF Final Energy:  -232.15336273560683

   => Energetics <=

    Nuclear Repulsion Energy =            200.3683790717307147
    One-Electron Energy =                -711.9897790673824147
    Two-Electron Energy =                 279.4680372600448663
    DFT Exchange-Correlation Energy =       0.0000000000000000
    Empirical Dispersion Energy =           0.0000000000000000
    PCM Polarization Energy =               0.0000000000000000
    EFP Energy =                            0.0000000000000000
    Total Energy =                       -232.1533627356068337
    Molecular point group: c1
  Basis Set: 6-31G*
  Basis Set:

  -Total Gradient:
     Atom            X                  Y                   Z
    ------   -----------------  -----------------  -----------------
       1        0.000011170431     0.000091574027    -0.000024778694
       2       -0.000029126691    -0.000174028148     0.000018922769
       3        0.000041035393     0.000086230057     0.000060551531
       4       -0.000042092405    -0.000041796029    -0.000007429496
       5       -0.000006563453    -0.000030109161    -0.000062934381
       6        0.000022515104     0.000022101873     0.000024844924
       7       -0.000004784822     0.000015315973    -0.000002357759
       8        0.000003202284     0.000004628151    -0.000002871471
       9        0.000012725044    -0.000013173882     0.000011464162
      10        0.000010943609    -0.000030385131     0.000008526335
      11       -0.000052229937     0.000034482488    -0.000011090674
      12        0.000022409549     0.000005423989     0.000022054392
      13        0.000011639217    -0.000013650951    -0.000037132640
      14        0.000032038600     0.000027557287    -0.000003821081
      15       -0.000032881922     0.000015829456     0.000006052082

  **** Optimization is complete! (in 6 steps) ****
    Final optimized geometry and variables:
    Molecular point group: c1

    Geometry (in Angstrom), charge = 0, multiplicity = 1:

    H           -0.837328522320     0.084379613933     1.732073156726
    O            0.044746520490     0.045402300699     1.387436824750
    C           -0.003016122367    -0.000885176937    -0.026374950139
    C           -0.701639184390     1.252476079525    -0.556981207428
    C            1.453914264342    -0.038592214365    -0.473920246382
    C           -0.740665892058    -1.264861929116    -0.472163455071
    H           -0.719907709539     1.266458327614    -1.642119588580
    H           -0.190224187980     2.143134455750    -0.208845731871
    H           -1.731105908537     1.297274999588    -0.208869674194
    H            1.527553653746    -0.083227793626    -1.555732707426
    H            1.974962289148     0.846966107507    -0.127750220534
    H            1.951286199322    -0.907155894180    -0.057072407914
    H           -0.759538296637    -1.352028839539    -1.553954650087
    H           -1.770767835798    -1.253647708290    -0.123493053739
    H           -0.257405592421    -2.145194004196    -0.063085985895

  Mulliken Charges: (a.u.)
   Center  Symbol    Alpha    Beta     Spin     Total
       1     H     0.28397  0.28397  0.00000  0.43205
       2     O     4.37570  4.37570  0.00000 -0.75140
       3     C     2.85370  2.85370  0.00000  0.29259
       4     C     3.24156  3.24156  0.00000 -0.48312
       5     C     3.23371  3.23371  0.00000 -0.46742
       6     C     3.24091  3.24091  0.00000 -0.48182
       7     H     0.42082  0.42082  0.00000  0.15836
       8     H     0.41221  0.41221  0.00000  0.17558
       9     H     0.42669  0.42669  0.00000  0.14663
      10     H     0.42401  0.42401  0.00000  0.15198
      11     H     0.41348  0.41348  0.00000  0.17303
      12     H     0.41323  0.41323  0.00000  0.17354
      13     H     0.42112  0.42112  0.00000  0.15776
      14     H     0.42668  0.42668  0.00000  0.14664
      15     H     0.41221  0.41221  0.00000  0.17558

   Total alpha = 21.00000, Total beta = 21.00000, Total charge = -0.00000
