  ==> Input File <==

--------------------------------------------------------------------------
set {
	reference rhf
	basis 6-31G*
}

set_num_threads( 4 )
memory 2 gb

molecule MOL {
0 1

H	 2.591676	 2.013956	 0.335017
O	 3.341076	 1.666752	 -0.126416
C	 3.569581	 0.339145	 0.272707
C	 2.539767	 -0.640285	 -0.279495
H	 4.553106	 0.084646	 -0.100901
H	 3.608576	 0.269204	 1.359154
C	 1.630625	 -1.254835	 0.787584
H	 1.935280	 -0.123722	 -1.020524
H	 3.072219	 -1.433617	 -0.801497
C	 0.644650	 -2.273622	 0.209011
H	 1.081432	 -0.462340	 1.288287
H	 2.242056	 -1.741423	 1.547666
C	 -0.232350	 -2.982525	 1.247600
H	 0.007887	 -1.779833	 -0.522803
H	 1.206992	 -3.027069	 -0.338518
C	 -1.231510	 -2.077148	 1.973170
H	 -0.783690	 -3.774885	 0.745599
H	 0.405183	 -3.475809	 1.979761
C	 -2.154106	 -2.846652	 2.920859
H	 -1.834979	 -1.546746	 1.237908
H	 -0.702601	 -1.314904	 2.540217
C	 -3.148201	 -1.944426	 3.651221
H	 -2.698661	 -3.602062	 2.358450
H	 -1.552500	 -3.385060	 3.650293
H	 -3.787202	 -1.416126	 2.949225
H	 -3.788689	 -2.519037	 4.313212
H	 -2.634029	 -1.200145	 4.252916

	symmetry c1
}
set optking {
	frozen_dihedral = ("
		8 4 3 2
	")
}

ee = optimize('scf')
oeprop('DIPOLE', 'QUADRUPOLE', 'MULLIKEN_CHARGES')
f=open( 'psi4out.xyz', 'w' )
f.write( "27  " )
f.write( str(ee) + "\n" )
f.write( MOL.save_string_xyz() )
f.close()
--------------------------------------------------------------------------

    Molecular point group: c1
  Charge       = 0
  Multiplicity = 1
  Basis Set: 6-31G*
  Basis Set:
  @DF-RHF Final Energy:  -388.27565907966681
    Total Energy =                       -388.2756590796666387
    Molecular point group: c1
  Basis Set: 6-31G*
  Basis Set:
  Basis Set: 6-31G*
  Basis Set:
  @DF-RHF Final Energy:  -388.27607136340987
    Total Energy =                       -388.2760713634104377
  Basis Set: 6-31G*
  Basis Set:
  Basis Set: 6-31G*
  Basis Set:
  @DF-RHF Final Energy:  -388.27616929559747
    Total Energy =                       -388.2761692955970148
  Basis Set: 6-31G*
  Basis Set:
  Basis Set: 6-31G*
  Basis Set:
  @DF-RHF Final Energy:  -388.27616048045400
    Total Energy =                       -388.2761604804534272
  Basis Set: 6-31G*
  Basis Set:
  Basis Set: 6-31G*
  Basis Set:
  @DF-RHF Final Energy:  -388.27617953673001
    Total Energy =                       -388.2761795367300692
  Basis Set: 6-31G*
  Basis Set:
  Basis Set: 6-31G*
  Basis Set:
  @DF-RHF Final Energy:  -388.27617059440490
    Total Energy =                       -388.2761705944050163
  Basis Set: 6-31G*
  Basis Set:
  Basis Set: 6-31G*
  Basis Set:
  @DF-RHF Final Energy:  -388.27618062122878
    Total Energy =                       -388.2761806212289457
  Basis Set: 6-31G*
  Basis Set:
  Charge       = 0
  Multiplicity = 1
  Basis Set: 6-31G*
  Basis Set:

    Orbital Energies (a.u.)
    -----------------------

    Doubly Occupied:

       1A    -20.551414     2A    -11.266714     3A    -11.219959
       4A    -11.217240     5A    -11.216518     6A    -11.215919
       7A    -11.215438     8A    -11.214806     9A    -11.209981
      10A     -1.357583    11A     -1.095486    12A     -1.061587
      13A     -1.010530    14A     -0.945884    15A     -0.885847
      16A     -0.823000    17A     -0.804763    18A     -0.779229
      19A     -0.686540    20A     -0.653994    21A     -0.642605
      22A     -0.608299    23A     -0.601476    24A     -0.584658
      25A     -0.575426    26A     -0.552843    27A     -0.542334
      28A     -0.529764    29A     -0.507275    30A     -0.500589
      31A     -0.484611    32A     -0.474704    33A     -0.465107
      34A     -0.460673    35A     -0.451044    36A     -0.441199
      37A     -0.422476

  @DF-RHF Final Energy:  -388.27618059711955

   => Energetics <=

    Nuclear Repulsion Energy =            455.5776521184638455
    One-Electron Energy =               -1429.1526417920631502
    Two-Electron Energy =                 585.2988090764793014
    DFT Exchange-Correlation Energy =       0.0000000000000000
    Empirical Dispersion Energy =           0.0000000000000000
    PCM Polarization Energy =               0.0000000000000000
    EFP Energy =                            0.0000000000000000
    Total Energy =                       -388.2761805971199465
    Molecular point group: c1
  Basis Set: 6-31G*
  Basis Set:

  -Total Gradient:
     Atom            X                  Y                   Z
    ------   -----------------  -----------------  -----------------
       1       -0.000003310420     0.000006995243    -0.000001680827
       2        0.001194207102    -0.000259814706    -0.001598503169
       3       -0.001984014565     0.000507939992     0.002558733975
       4        0.002487195418    -0.000901586734    -0.002716311834
       5        0.000001304588    -0.000002906346     0.000004589858
       6        0.000001911759    -0.000000402605    -0.000001138881
       7       -0.000003714573    -0.000001636433     0.000001953334
       8       -0.001688659261     0.000652189763     0.001754911351
       9       -0.000008958108    -0.000002945251    -0.000002175473
      10        0.000004549973    -0.000007559751     0.000004213719
      11       -0.000005170147     0.000001175182     0.000006529882
      12        0.000001052890     0.000004152945    -0.000000453154
      13        0.000004998762     0.000003962552     0.000002085316
      14        0.000001400763     0.000001267798     0.000001055378
      15       -0.000003430179    -0.000006183804     0.000000418091
      16       -0.000003369603     0.000000419383    -0.000005040490
      17        0.000002671013     0.000003118482    -0.000004159364
      18        0.000001624915    -0.000000950231    -0.000000783771
      19       -0.000002829653    -0.000000880939    -0.000003357116
      20       -0.000002692467    -0.000002497095    -0.000003242901
      21        0.000001057224     0.000005081672    -0.000001965385
      22        0.000006410103     0.000001370223     0.000006219729
      23       -0.000003301820     0.000003174505    -0.000000955365
      24       -0.000000473737    -0.000003473286    -0.000002270854
      25        0.000000571569    -0.000002678193    -0.000000556645
      26        0.000001903553     0.000000065982     0.000001702722
      27       -0.000000935102     0.000002601643     0.000000181873

  **** Optimization is complete! (in 8 steps) ****
    Final optimized geometry and variables:
    Molecular point group: c1

    Geometry (in Angstrom), charge = 0, multiplicity = 1:

    H            1.880810315569     3.236857885559    -0.947909269358
    O            2.711675998757     2.954040362962    -1.304076112943
    C            2.980800646737     1.640892699489    -0.880029600558
    C            1.995066933985     0.601918448725    -1.446297778517
    H            3.985217149237     1.436887202176    -1.225304513283
    H            3.002328043361     1.591982236455     0.207124200673
    C            1.064324275725    -0.004000912058    -0.390053912899
    H            1.396032531110     1.094560257628    -2.206985525344
    H            2.538819848736    -0.196436709357    -1.943721273772
    C            0.059006862176    -0.994597086035    -0.982001889669
    H            0.538209403330     0.799456708915     0.121807518155
    H            1.660210583863    -0.508108927029     0.369467009426
    C           -0.827212121530    -1.706336744176     0.046802343521
    H           -0.571421300378    -0.478556214584    -1.704336176713
    H            0.606541506465    -1.748268954858    -1.544327398691
    C           -1.805078539485    -0.795498506033     0.794104375433
    H           -1.395882758831    -2.478427102699    -0.467259216502
    H           -0.196030649175    -2.225043405669     0.766650002904
    C           -2.738018161733    -1.564352161346     1.732149964447
    H           -2.401952557440    -0.240096931491     0.071767663267
    H           -1.258244016094    -0.054688238873     1.372429204053
    C           -3.710206288450    -0.656613928652     2.484810344937
    H           -3.300316164300    -2.298118141366     1.158669835241
    H           -2.143446632888    -2.128045602017     2.448052162057
    H           -4.342597707051    -0.102993799030     1.796405891557
    H           -4.358321588184    -1.230798175098     3.139676039991
    H           -3.178198384108     0.066027297351     3.097286842616

  Mulliken Charges: (a.u.)
   Center  Symbol    Alpha    Beta     Spin     Total
       1     H     0.28397  0.28397  0.00000  0.43207
       2     O     4.36975  4.36975  0.00000 -0.73950
       3     C     2.99557  2.99557  0.00000  0.00886
       4     C     3.17484  3.17484  0.00000 -0.34967
       5     H     0.41416  0.41416  0.00000  0.17168
       6     H     0.42851  0.42851  0.00000  0.14297
       7     C     3.15885  3.15885  0.00000 -0.31771
       8     H     0.41238  0.41238  0.00000  0.17523
       9     H     0.41799  0.41799  0.00000  0.16402
      10     C     3.15323  3.15323  0.00000 -0.30646
      11     H     0.42585  0.42585  0.00000  0.14830
      12     H     0.42269  0.42269  0.00000  0.15461
      13     C     3.15331  3.15331  0.00000 -0.30662
      14     H     0.42314  0.42314  0.00000  0.15373
      15     H     0.42104  0.42104  0.00000  0.15792
      16     C     3.15263  3.15263  0.00000 -0.30525
      17     H     0.42127  0.42127  0.00000  0.15746
      18     H     0.42377  0.42377  0.00000  0.15245
      19     C     3.15120  3.15120  0.00000 -0.30240
      20     H     0.42468  0.42468  0.00000  0.15064
      21     H     0.42305  0.42305  0.00000  0.15389
      22     C     3.23921  3.23921  0.00000 -0.47842
      23     H     0.42281  0.42281  0.00000  0.15437
      24     H     0.42295  0.42295  0.00000  0.15409
      25     H     0.42184  0.42184  0.00000  0.15632
      26     H     0.41907  0.41907  0.00000  0.16187
      27     H     0.42223  0.42223  0.00000  0.15553

   Total alpha = 37.00000, Total beta = 37.00000, Total charge =  0.00000
