  ==> Input File <==

--------------------------------------------------------------------------
set {
	reference rhf
	basis 6-31G*
}

set_num_threads( 4 )
memory 2 gb

molecule MOL {
0 1

H	 1.809159	 -1.310850	 0.304640
C	 1.951159	 -0.223429	 0.317018
C	 0.692068	 0.589600	 0.160137
O	 3.039800	 0.234781	 0.447532
C	 -0.558097	 -0.297372	 0.091132
H	 0.791645	 1.202255	 -0.728243
H	 0.616171	 1.253469	 1.020572
C	 -1.850991	 0.512573	 -0.019058
H	 -0.476753	 -0.965681	 -0.762987
H	 -0.604799	 -0.930658	 0.975228
C	 -3.096943	 -0.368295	 -0.099594
H	 -1.800724	 1.150330	 -0.898172
H	 -1.931651	 1.177355	 0.838044
H	 -3.060452	 -1.020287	 -0.967456
H	 -3.996858	 0.233488	 -0.175704
H	 -3.191959	 -0.995686	 0.782074

	symmetry c1
}
set optking {
	frozen_dihedral = ("
		4 2 3 6
	")
}

ee = optimize('scf')
oeprop('DIPOLE', 'QUADRUPOLE', 'MULLIKEN_CHARGES')
f=open( 'psi4out.xyz', 'w' )
f.write( "16  " )
f.write( str(ee) + "\n" )
f.write( MOL.save_string_xyz() )
f.close()
--------------------------------------------------------------------------

    Molecular point group: c1
  Charge       = 0
  Multiplicity = 1
  Basis Set: 6-31G*
  Basis Set:
  @DF-RHF Final Energy:  -270.01837126944633
    Total Energy =                       -270.0183712694463338
    Molecular point group: c1
  Basis Set: 6-31G*
  Basis Set:
  Basis Set: 6-31G*
  Basis Set:
  @DF-RHF Final Energy:  -270.01875536562130
    Total Energy =                       -270.0187553656213595
  Basis Set: 6-31G*
  Basis Set:
  Basis Set: 6-31G*
  Basis Set:
  @DF-RHF Final Energy:  -270.01848415297547
    Total Energy =                       -270.0184841529753612
  Basis Set: 6-31G*
  Basis Set:
  Basis Set: 6-31G*
  Basis Set:
  @DF-RHF Final Energy:  -270.01875710460399
    Total Energy =                       -270.0187571046038784
  Basis Set: 6-31G*
  Basis Set:
  Basis Set: 6-31G*
  Basis Set:
  @DF-RHF Final Energy:  -270.01876586995184
    Total Energy =                       -270.0187658699517783
  Basis Set: 6-31G*
  Basis Set:
  Basis Set: 6-31G*
  Basis Set:
  @DF-RHF Final Energy:  -270.01879139395533
    Total Energy =                       -270.0187913939557234
  Basis Set: 6-31G*
  Basis Set:
  Basis Set: 6-31G*
  Basis Set:
  @DF-RHF Final Energy:  -270.01879744279336
    Total Energy =                       -270.0187974427934705
  Basis Set: 6-31G*
  Basis Set:
  Charge       = 0
  Multiplicity = 1
  Basis Set: 6-31G*
  Basis Set:

    Orbital Energies (a.u.)
    -----------------------

    Doubly Occupied:

       1A    -20.561437     2A    -11.327852     3A    -11.235661
       4A    -11.234239     5A    -11.229236     6A    -11.218601
       7A     -1.402520     8A     -1.096564     9A     -1.018255
      10A     -0.904379    11A     -0.812046    12A     -0.797024
      13A     -0.663238    14A     -0.659370    15A     -0.631049
      16A     -0.601672    17A     -0.590410    18A     -0.541270
      19A     -0.537735    20A     -0.494229    21A     -0.491007
      22A     -0.486284    23A     -0.477338    24A     -0.409409

  @DF-RHF Final Energy:  -270.01879750231910

   => Energetics <=

    Nuclear Repulsion Energy =            228.0265449626744498
    One-Electron Energy =                -817.2490344226753223
    Two-Electron Energy =                 319.2036919576819969
    DFT Exchange-Correlation Energy =       0.0000000000000000
    Empirical Dispersion Energy =           0.0000000000000000
    PCM Polarization Energy =               0.0000000000000000
    EFP Energy =                            0.0000000000000000
    Total Energy =                       -270.0187975023188187
    Molecular point group: c1
  Basis Set: 6-31G*
  Basis Set:

  -Total Gradient:
     Atom            X                  Y                   Z
    ------   -----------------  -----------------  -----------------
       1       -0.000016877821     0.000002282252     0.000019445598
       2        0.000023820611    -0.000039947538     0.000192590709
       3       -0.000172647906    -0.000201689508    -0.000139151308
       4       -0.000049743598     0.000054371889    -0.000145717836
       5        0.000016759131     0.000016041785     0.000094783373
       6        0.000130162992     0.000165150641     0.000066421890
       7        0.000007128392     0.000009355263    -0.000052107904
       8        0.000024865465     0.000017507386    -0.000022973052
       9        0.000029935693     0.000049474913    -0.000014829342
      10       -0.000034189866    -0.000069006083    -0.000005412935
      11        0.000026631452    -0.000017316106     0.000035955045
      12       -0.000009314898    -0.000003922921    -0.000020620857
      13        0.000010433537     0.000014271073    -0.000011833061
      14       -0.000002660256     0.000005940316    -0.000006106870
      15        0.000017020183     0.000009588483     0.000011156650
      16       -0.000001323118    -0.000012101846    -0.000001600101

  **** Optimization is complete! (in 8 steps) ****
    Final optimized geometry and variables:
    Molecular point group: c1

    Geometry (in Angstrom), charge = 0, multiplicity = 1:

    H            1.850464055110    -1.390942598858     0.120961251351
    C            1.944507070348    -0.299161580586     0.158284895669
    C            0.659175952296     0.490205206531     0.032398568867
    O            3.013346698107     0.203025760475     0.287305066674
    C           -0.593215223029    -0.380685940593    -0.050486607504
    H            0.753474838520     1.119720037262    -0.849264247708
    H            0.609840263598     1.166549103187     0.881503193420
    C           -1.879591935306     0.436329999055    -0.176019131766
    H           -0.510682697679    -1.053716184633    -0.902190618592
    H           -0.654426003400    -1.013844043319     0.833079157820
    C           -3.131888612091    -0.435530890236    -0.252835584764
    H           -1.820745535040     1.064717633915    -1.061856142915
    H           -1.960055395624     1.111797366399     0.672614429340
    H           -3.096901129752    -1.097701997340    -1.113171011488
    H           -4.026791900331     0.172181723314    -0.339587044685
    H           -3.235630660761    -1.052403490946     0.635170814429

  Mulliken Charges: (a.u.)
   Center  Symbol    Alpha    Beta     Spin     Total
       1     H     0.42839  0.42839  0.00000  0.14321
       2     C     2.83550  2.83550  0.00000  0.32900
       3     C     3.20644  3.20644  0.00000 -0.41289
       4     O     4.24070  4.24070  0.00000 -0.48139
       5     C     3.16415  3.16415  0.00000 -0.32829
       6     H     0.39936  0.39936  0.00000  0.20127
       7     H     0.39892  0.39892  0.00000  0.20215
       8     C     3.15202  3.15202  0.00000 -0.30405
       9     H     0.41906  0.41906  0.00000  0.16189
      10     H     0.41871  0.41871  0.00000  0.16258
      11     C     3.24013  3.24013  0.00000 -0.48026
      12     H     0.41994  0.41994  0.00000  0.16012
      13     H     0.41978  0.41978  0.00000  0.16044
      14     H     0.42029  0.42029  0.00000  0.15942
      15     H     0.41639  0.41639  0.00000  0.16722
      16     H     0.42022  0.42022  0.00000  0.15956

   Total alpha = 24.00000, Total beta = 24.00000, Total charge =  0.00000
