                              Psi4 1.0.54 Driver

  ==> Input File <==

--------------------------------------------------------------------------
set {
	reference rhf
	basis cc-pvtz
}

set_num_threads( 4 )
memory 2 gb

molecule MOL {
0 1

H	 -3.456139	 -0.529964	 0.727103
O	 -3.107740	 -0.196887	 -0.080383
C	 -1.773395	 -0.074491	 -0.022605
C	 -1.049772	 -0.412799	 1.114213
C	 -1.125498	 0.407167	 -1.147957
H	 -1.559532	 -0.785811	 1.983370
C	 0.317208	 -0.267792	 1.119816
H	 -1.702282	 0.662206	 -2.014153
C	 0.243860	 0.546474	 -1.126084
H	 0.886896	 -0.525275	 1.990602
C	 0.981121	 0.213562	 0.000000
H	 0.747541	 0.920057	 -1.998586
C	 2.447402	 0.371303	 0.000000
O	 3.227427	 -0.521847	 0.000000
H	 2.796538	 1.409525	 0.000000

	symmetry c1
}
set optking {
	frozen_dihedral = ("
		7 11 13 14
	")
}

ee,wfn = optimize('scf', return_wfn=True)
oeprop( wfn, 'DIPOLE', 'QUADRUPOLE', 'MULLIKEN_CHARGES')
f=open( 'psi4out.xyz', 'w' )
f.write( "15  " )
f.write( str(ee) + "\n" )
f.write( MOL.save_string_xyz() )
f.close()
--------------------------------------------------------------------------

    Molecular point group: c1
  Charge       = 0
  Multiplicity = 1
  Basis Set: CC-PVTZ
  Basis Set:
  @DF-RHF Final Energy:  -418.42848866697864
    Total Energy =                       -418.4284886669788648
    Molecular point group: c1
  Basis Set: CC-PVTZ
  Basis Set:
  Basis Set: CC-PVTZ
  Basis Set:
  @DF-RHF Final Energy:  -418.42854168851449
    Total Energy =                       -418.4285416885148834
  Basis Set: CC-PVTZ
  Basis Set:
  Basis Set: CC-PVTZ
  Basis Set:
  @DF-RHF Final Energy:  -418.42928712882684
    Total Energy =                       -418.4292871288268998
  Basis Set: CC-PVTZ
  Basis Set:
  Basis Set: CC-PVTZ
  Basis Set:
  @DF-RHF Final Energy:  -418.42942530435079
    Total Energy =                       -418.4294253043508434
  Basis Set: CC-PVTZ
  Basis Set:
  Basis Set: CC-PVTZ
  Basis Set:
  @DF-RHF Final Energy:  -418.42942830324387
    Total Energy =                       -418.4294283032438670
  Basis Set: CC-PVTZ
  Basis Set:
  Basis Set: CC-PVTZ
  Basis Set:
  @DF-RHF Final Energy:  -418.42942934886628
    Total Energy =                       -418.4294293488665062
  Basis Set: CC-PVTZ
  Basis Set:
  Charge       = 0
  Multiplicity = 1
  Basis Set: CC-PVTZ
  Basis Set:

    Orbital Energies (a.u.)
    -----------------------

    Doubly Occupied:

       1A    -20.597792     2A    -20.559253     3A    -11.329477
       4A    -11.313168     5A    -11.252989     6A    -11.252620
       7A    -11.241789     8A    -11.240371     9A    -11.236040
      10A     -1.429710    11A     -1.413392    12A     -1.173258
      13A     -1.041792    14A     -1.039871    15A     -0.889999
      16A     -0.865960    17A     -0.801608    18A     -0.757513
      19A     -0.713970    20A     -0.676387    21A     -0.658592
      22A     -0.631354    23A     -0.608976    24A     -0.608098
      25A     -0.594171    26A     -0.565676    27A     -0.536469
      28A     -0.506178    29A     -0.497377    30A     -0.425111
      31A     -0.359189    32A     -0.328845

  @DF-RHF Final Energy:  -418.42942952705670

   => Energetics <=

    Nuclear Repulsion Energy =            401.1232965438617271
    One-Electron Energy =               -1364.8114531476567208
    Two-Electron Energy =                 545.2587270767381824
    DFT Exchange-Correlation Energy =       0.0000000000000000
    Empirical Dispersion Energy =           0.0000000000000000
    PCM Polarization Energy =               0.0000000000000000
    EFP Energy =                            0.0000000000000000
    Total Energy =                       -418.4294295270568682
    Molecular point group: c1
  Basis Set: CC-PVTZ
  Basis Set:

  -Total Gradient:
     Atom            X                  Y                   Z
    ------   -----------------  -----------------  -----------------
       1        0.000006682588     0.000003474976     0.000000153663
       2       -0.000011624253     0.000007461953    -0.000007320904
       3        0.000020135312    -0.000023168118    -0.000003912073
       4       -0.000002850698    -0.000002311060     0.000005813435
       5       -0.000014273038     0.000023804310     0.000014341018
       6        0.000003270442     0.000003028879     0.000001712456
       7       -0.000741917307     0.004996215578     0.001569577595
       8        0.000007524699     0.000004498490    -0.000003446001
       9        0.000001961151    -0.000054377875    -0.000003147675
      10       -0.000000369229    -0.000006371135     0.000001222395
      11        0.001163255531    -0.007464987329    -0.005206877693
      12       -0.000004579513     0.000003351114    -0.000005056961
      13       -0.000545981469     0.002847011060     0.010086243521
      14        0.000127508306    -0.000324047226    -0.006446049721
      15       -0.000008742520    -0.000013583617    -0.000003253052

  **** Optimization is complete! (in 7 steps) ****
    Final optimized geometry and variables:
    Molecular point group: c1

    Geometry (in Angstrom), charge = 0, multiplicity = 1:

    H           -3.474411851401    -0.515731505150     0.727084863893
    O           -3.123301294701    -0.182603469118    -0.079039443521
    C           -1.783738341252    -0.071480207438    -0.016618432527
    C           -1.062729637195    -0.397140072983     1.116708291717
    C           -1.127797050370     0.398883451573    -1.143499533238
    H           -1.569399989879    -0.749766620709     1.996270719429
    C            0.313361188110    -0.268929733828     1.116165382869
    H           -1.700820194056     0.653943603353    -2.012638226059
    C            0.240452048131     0.540932528418    -1.124231632452
    H            0.868124730225    -0.533055466533     1.996172525736
    C            0.979386891140     0.179759908573    -0.006895428289
    H            0.738349448602     0.924892919720    -1.995559277975
    C            2.458470235002     0.392815917625     0.014148357569
    O            3.258528662992    -0.475238908391     0.072431442559
    H            2.784759064682     1.434244511242    -0.079901216831

  Mulliken Charges: (a.u.)
   Center  Symbol    Alpha    Beta     Spin     Total
       1     H     0.38636  0.38636  0.00000  0.22728
       2     O     4.16997  4.16997  0.00000 -0.33994
       3     C     2.85583  2.85583  0.00000  0.28834
       4     C     3.12391  3.12391  0.00000 -0.24782
       5     C     3.09902  3.09902  0.00000 -0.19803
       6     H     0.43212  0.43212  0.00000  0.13576
       7     C     3.08918  3.08918  0.00000 -0.17836
       8     H     0.41684  0.41684  0.00000  0.16633
       9     C     3.07806  3.07806  0.00000 -0.15613
      10     H     0.41692  0.41692  0.00000  0.16615
      11     C     2.95828  2.95828  0.00000  0.08343
      12     H     0.42257  0.42257  0.00000  0.15486
      13     C     2.93070  2.93070  0.00000  0.13859
      14     O     4.15995  4.15995  0.00000 -0.31990
      15     H     0.46029  0.46029  0.00000  0.07943

   Total alpha = 32.00000, Total beta = 32.00000, Total charge =  0.00000

*** Psi4 exiting successfully. Buy a developer a beer!
