                              Psi4 1.0.54 Driver

  ==> Input File <==

--------------------------------------------------------------------------
set {
	reference rhf
	basis cc-pvtz
}

set_num_threads( 4 )
memory 2 gb

molecule MOL {
0 1

O	 1.847685	 1.294399	 -0.000190
C	 1.704209	 0.119472	 -0.000093
C	 0.380337	 -0.600947	 -0.000234
O	 2.715427	 -0.733672	 0.000025
C	 -0.824290	 0.329213	 -0.000115
H	 0.371455	 -1.255476	 -0.865660
H	 0.371410	 -1.255787	 0.864952
C	 -1.483085	 0.426070	 -1.372932
H	 -0.515008	 1.314337	 0.330262
H	 -1.545178	 -0.019892	 0.730458
C	 -2.693939	 1.354467	 -1.392530
H	 -0.754154	 0.774311	 -2.101381
H	 -1.788004	 -0.565606	 -1.699795
C	 -3.352114	 1.451693	 -2.764668
H	 -2.390347	 2.345485	 -1.067151
H	 -3.423357	 1.006660	 -0.666486
H	 -2.656781	 1.829915	 -3.506756
H	 -4.206863	 2.117794	 -2.743505
H	 -3.698317	 0.480573	 -3.102756
C	 4.020999	 -0.192556	 0.000019
H	 4.182809	 0.412891	 -0.879449
H	 4.692590	 -1.035653	 0.000152
H	 4.182726	 0.413087	 0.879368

	symmetry c1
}
set optking {
	frozen_dihedral = ("
		9 5 3 6
	")
}

ee,wfn = optimize('scf', return_wfn=True)
oeprop( wfn, 'DIPOLE', 'QUADRUPOLE', 'MULLIKEN_CHARGES')
f=open( 'psi4out.xyz', 'w' )
f.write( "23  " )
f.write( str(ee) + "\n" )
f.write( MOL.save_string_xyz() )
f.close()
--------------------------------------------------------------------------

    Molecular point group: c1
  Charge       = 0
  Multiplicity = 1
  Basis Set: CC-PVTZ
  Basis Set:
  @DF-RHF Final Energy:  -423.12733384484432
    Total Energy =                       -423.1273338448440882
    Molecular point group: c1
  Basis Set: CC-PVTZ
  Basis Set:
  Basis Set: CC-PVTZ
  Basis Set:
  @DF-RHF Final Energy:  -423.12771225302737
    Total Energy =                       -423.1277122530270844
  Basis Set: CC-PVTZ
  Basis Set:
  Basis Set: CC-PVTZ
  Basis Set:
  @DF-RHF Final Energy:  -423.12765466842995
    Total Energy =                       -423.1276546684302957
  Basis Set: CC-PVTZ
  Basis Set:
  Basis Set: CC-PVTZ
  Basis Set:
  @DF-RHF Final Energy:  -423.12776075642182
    Total Energy =                       -423.1277607564218215
  Basis Set: CC-PVTZ
  Basis Set:
  Basis Set: CC-PVTZ
  Basis Set:
  @DF-RHF Final Energy:  -423.12779550455753
    Total Energy =                       -423.1277955045568433
  Basis Set: CC-PVTZ
  Basis Set:
  Basis Set: CC-PVTZ
  Basis Set:
  @DF-RHF Final Energy:  -423.12779854453476
    Total Energy =                       -423.1277985445344711
  Basis Set: CC-PVTZ
  Basis Set:
  Basis Set: CC-PVTZ
  Basis Set:
  @DF-RHF Final Energy:  -423.12780139509846
    Total Energy =                       -423.1278013950987997
  Basis Set: CC-PVTZ
  Basis Set:
  Charge       = 0
  Multiplicity = 1
  Basis Set: CC-PVTZ
  Basis Set:

    Orbital Energies (a.u.)
    -----------------------

    Doubly Occupied:

       1A    -20.596855     2A    -20.535037     3A    -11.365392
       4A    -11.278934     5A    -11.233921     6A    -11.215898
       7A    -11.212534     8A    -11.211728     9A    -11.205404
      10A     -1.472976    11A     -1.366444    12A     -1.091806
      13A     -1.042886    14A     -0.987190    15A     -0.931216
      16A     -0.844088    17A     -0.794155    18A     -0.768694
      19A     -0.704072    20A     -0.684308    21A     -0.676031
      22A     -0.642021    23A     -0.613685    24A     -0.600294
      25A     -0.570756    26A     -0.557700    27A     -0.554995
      28A     -0.532699    29A     -0.524389    30A     -0.499335
      31A     -0.490353    32A     -0.466455    33A     -0.465147
      34A     -0.459661    35A     -0.452926    36A     -0.441625

  @DF-RHF Final Energy:  -423.12780212252295

   => Energetics <=

    Nuclear Repulsion Energy =            458.8982926724531239
    One-Electron Energy =               -1485.8689687476642121
    Two-Electron Energy =                 603.8428739526884783
    DFT Exchange-Correlation Energy =       0.0000000000000000
    Empirical Dispersion Energy =           0.0000000000000000
    PCM Polarization Energy =               0.0000000000000000
    EFP Energy =                            0.0000000000000000
    Total Energy =                       -423.1278021225225530
    Molecular point group: c1
  Basis Set: CC-PVTZ
  Basis Set:

  -Total Gradient:
     Atom            X                  Y                   Z
    ------   -----------------  -----------------  -----------------
       1        0.000076780551     0.000093726147     0.000002790546
       2       -0.000082774738    -0.000014306525    -0.000043623862
       3       -0.002106310101    -0.002681319549     0.001485668539
       4        0.000043638086    -0.000036261917     0.000016381686
       5       -0.000338772408    -0.000442367313     0.003425295377
       6        0.001736398778     0.002269530410    -0.001731041830
       7       -0.000004926035    -0.000004352109    -0.000003032434
       8       -0.000005556838    -0.000008270130    -0.000052229164
       9        0.000666952186     0.000824846203    -0.003126226636
      10       -0.000004567838    -0.000009275386     0.000001407840
      11        0.000006230380     0.000002574098     0.000005924400
      12       -0.000011475629     0.000000549103     0.000013279285
      13        0.000002864639     0.000007595844     0.000000387996
      14        0.000006505097    -0.000010641030     0.000002032919
      15        0.000000700155    -0.000000602643    -0.000002782811
      16       -0.000000689054     0.000000195620    -0.000001720163
      17       -0.000002114846    -0.000000613411     0.000003164107
      18        0.000004512003    -0.000002167792     0.000006401663
      19        0.000000726511     0.000002231282    -0.000001393629
      20       -0.000069290574    -0.000042729487     0.000001121306
      21        0.000013434097     0.000042352584    -0.000072792918
      22        0.000051298096    -0.000047127425     0.000006612734
      23        0.000016437488     0.000056433426     0.000064375048

  **** Optimization is complete! (in 8 steps) ****
    Final optimized geometry and variables:
    Molecular point group: c1

    Geometry (in Angstrom), charge = 0, multiplicity = 1:

    O            1.548207835566     0.884726882947     0.479397725028
    C            1.398322479919    -0.283731365636     0.597047369946
    C            0.072912169611    -1.006606533695     0.654775347307
    O            2.406744709600    -1.135773428102     0.681792694379
    C           -1.145685965573    -0.078815230464     0.643658872870
    H            0.073277077057    -1.666538733909    -0.206699233048
    H            0.096974012657    -1.644676436815     1.528909743204
    C           -1.783544097713     0.052620121410    -0.738733565484
    H           -0.840307312440     0.906148192099     0.969603909913
    H           -1.884424315082    -0.446377575491     1.346890117953
    C           -2.972654470817     1.007467895299    -0.762182001552
    H           -1.032530496655     0.398964430625    -1.444192602072
    H           -2.103547937576    -0.927712807784    -1.085288690666
    C           -3.611020114201     1.134978719936    -2.141258211849
    H           -2.650107191829     1.987325512037    -0.422314890855
    H           -3.719835319160     0.668034933657    -0.049556740436
    H           -2.897273482201     1.505665893439    -2.869310939118
    H           -4.450639578130     1.820257785568    -2.123352601376
    H           -3.974774543305     0.175876118989    -2.495119169010
    C            3.714353787581    -0.602976712021     0.621236931269
    H            3.875084708129    -0.092374455432    -0.316826375828
    H            4.382810122407    -1.444418852966     0.706157301835
    H            3.881940112856     0.089645433576     1.432768500504

  Mulliken Charges: (a.u.)
   Center  Symbol    Alpha    Beta     Spin     Total
       1     O     4.19824  4.19824  0.00000 -0.39649
       2     C     2.80130  2.80130  0.00000  0.39739
       3     C     3.11314  3.11314  0.00000 -0.22628
       4     O     4.14661  4.14661  0.00000 -0.29321
       5     C     3.09766  3.09766  0.00000 -0.19531
       6     H     0.43972  0.43972  0.00000  0.12057
       7     H     0.42967  0.42967  0.00000  0.14066
       8     C     3.08586  3.08586  0.00000 -0.17172
       9     H     0.44031  0.44031  0.00000  0.11939
      10     H     0.44607  0.44607  0.00000  0.10786
      11     C     3.08639  3.08639  0.00000 -0.17278
      12     H     0.45146  0.45146  0.00000  0.09709
      13     H     0.45692  0.45692  0.00000  0.08615
      14     C     3.15015  3.15015  0.00000 -0.30029
      15     H     0.45121  0.45121  0.00000  0.09757
      16     H     0.45582  0.45582  0.00000  0.08836
      17     H     0.45418  0.45418  0.00000  0.09164
      18     H     0.44837  0.44837  0.00000  0.10325
      19     H     0.45611  0.45611  0.00000  0.08778
      20     C     3.03652  3.03652  0.00000 -0.07304
      21     H     0.45453  0.45453  0.00000  0.09094
      22     H     0.44551  0.44551  0.00000  0.10898
      23     H     0.45426  0.45426  0.00000  0.09149

   Total alpha = 36.00000, Total beta = 36.00000, Total charge = -0.00000

*** Psi4 exiting successfully. Buy a developer a beer!
