  ==> Input File <==

--------------------------------------------------------------------------
set {
	reference rhf
	basis cc-pvtz
}

set_num_threads( 4 )
memory 2 gb

molecule MOL {
0 1

H	 -0.000105	 1.988529	 0.748933
O	 -0.000098	 1.879786	 -0.188206
C	 -0.000014	 0.545691	 -0.532416
C	 -1.286000	 -0.125171	 -0.046657
C	 1.286016	 -0.125031	 -0.046584
H	 0.000021	 0.481103	 -1.610604
F	 -1.745125	 -0.913638	 -0.987074
F	 -1.094692	 -0.849226	 1.027055
F	 -2.218791	 0.763933	 0.219371
F	 2.317750	 0.468717	 -0.594166
F	 1.336617	 -1.393765	 -0.365123
F	 1.414467	 -0.024806	 1.259108

	symmetry c1
}
set optking {
	frozen_dihedral = ("
		7 4 3 6
	")
}

ee = optimize('scf')
oeprop('DIPOLE', 'QUADRUPOLE', 'MULLIKEN_CHARGES')
f=open( 'psi4out.xyz', 'w' )
f.write( "12  " )
f.write( str(ee) + "\n" )
f.write( MOL.save_string_xyz() )
f.close()
--------------------------------------------------------------------------

    Molecular point group: c1
  Charge       = 0
  Multiplicity = 1
  Basis Set: CC-PVTZ
  Basis Set:
  @DF-RHF Final Energy:  -786.58360137162856
    Total Energy =                       -786.5836013716277648
    Molecular point group: c1
  Basis Set: CC-PVTZ
  Basis Set:
  Basis Set: CC-PVTZ
  Basis Set:
  @DF-RHF Final Energy:  -786.58483481338430
    Total Energy =                       -786.5848348133847594
  Basis Set: CC-PVTZ
  Basis Set:
  Basis Set: CC-PVTZ
  Basis Set:
  @DF-RHF Final Energy:  -786.58522251676573
    Total Energy =                       -786.5852225167654979
  Basis Set: CC-PVTZ
  Basis Set:
  Basis Set: CC-PVTZ
  Basis Set:
  @DF-RHF Final Energy:  -786.58525667987772
    Total Energy =                       -786.5852566798780572
  Basis Set: CC-PVTZ
  Basis Set:
  Basis Set: CC-PVTZ
  Basis Set:
  @DF-RHF Final Energy:  -786.58528885953456
    Total Energy =                       -786.5852888595346712
  Basis Set: CC-PVTZ
  Basis Set:
  Basis Set: CC-PVTZ
  Basis Set:
  @DF-RHF Final Energy:  -786.58529678169089
    Total Energy =                       -786.5852967816911132
  Basis Set: CC-PVTZ
  Basis Set:
  Basis Set: CC-PVTZ
  Basis Set:
  @DF-RHF Final Energy:  -786.58529779294770
    Total Energy =                       -786.5852977929475855
  Basis Set: CC-PVTZ
  Basis Set:
  Charge       = 0
  Multiplicity = 1
  Basis Set: CC-PVTZ
  Basis Set:

    Orbital Energies (a.u.)
    -----------------------

    Doubly Occupied:

       1A    -26.358035     2A    -26.357733     3A    -26.356776
       4A    -26.354869     5A    -26.353635     6A    -26.353537
       7A    -20.610575     8A    -11.519975     9A    -11.518508
      10A    -11.351572    11A     -1.771511    12A     -1.765517
      13A     -1.665769    14A     -1.664628    15A     -1.661567
      16A     -1.660057    17A     -1.440516    18A     -1.102355
      19A     -1.000172    20A     -0.944155    21A     -0.871063
      22A     -0.867272    23A     -0.857511    24A     -0.853127
      25A     -0.840035    26A     -0.819854    27A     -0.742155
      28A     -0.736342    29A     -0.734228    30A     -0.729199
      31A     -0.695359    32A     -0.691413    33A     -0.689986
      34A     -0.682749    35A     -0.676038    36A     -0.667474
      37A     -0.663592    38A     -0.656756    39A     -0.622936
      40A     -0.551655    41A     -0.509725

  @DF-RHF Final Energy:  -786.58529788329542

   => Energetics <=

    Nuclear Repulsion Energy =            670.6933263831763270
    One-Electron Energy =               -2428.6173884426384575
    Two-Electron Energy =                 971.3387641761672739
    DFT Exchange-Correlation Energy =       0.0000000000000000
    Empirical Dispersion Energy =           0.0000000000000000
    PCM Polarization Energy =               0.0000000000000000
    EFP Energy =                            0.0000000000000000
    Total Energy =                       -786.5852978832948565
    Molecular point group: c1
  Basis Set: CC-PVTZ
  Basis Set:

  -Total Gradient:
     Atom            X                  Y                   Z
    ------   -----------------  -----------------  -----------------
       1       -0.000003231469     0.000002168953    -0.000002318476
       2        0.000002318611     0.000019785964     0.000012949604
       3       -0.003415759600     0.005477648081    -0.000740258770
       4        0.003222511010    -0.004441613197     0.001881154198
       5        0.000000223813     0.000006329717     0.000051830016
       6        0.002330191547    -0.003891236402     0.000262340948
       7       -0.002120194837     0.002798128213    -0.001450346029
       8       -0.000004346294     0.000015320850     0.000003428268
       9        0.000003144217     0.000030895150     0.000027395198
      10       -0.000017166679    -0.000002332397     0.000000183759
      11        0.000000335305    -0.000038440148    -0.000033694761
      12        0.000001974378     0.000023345227    -0.000012663952

  **** Optimization is complete! (in 8 steps) ****
    Final optimized geometry and variables:
    Molecular point group: c1

    Geometry (in Angstrom), charge = 0, multiplicity = 1:

    H            0.022726503152     2.029320844354     0.799383547405
    O            0.022029363594     1.926411317240    -0.137979779855
    C            0.000988816630     0.602114702313    -0.501390417328
    C           -1.279241800447    -0.137124722417    -0.048271175348
    C            1.276935674175    -0.100841371774    -0.037169713536
    H            0.022241528666     0.541884365912    -1.578659464786
    F           -1.694844702317    -0.944006932802    -0.996513032819
    F           -1.111793771189    -0.844038730446     1.044923151833
    F           -2.239390433686     0.722922567830     0.186071531884
    F            2.312642084797     0.412326193888    -0.654520886060
    F            1.241294483344    -1.383872942619    -0.306205076565
    F            1.471992229705     0.048403126836     1.254411028196

  Mulliken Charges: (a.u.)
   Center  Symbol    Alpha    Beta     Spin     Total
       1     H     0.38376  0.38376  0.00000  0.23247
       2     O     4.18271  4.18271  0.00000 -0.36542
       3     C     3.01411  3.01411  0.00000 -0.02822
       4     C     2.67834  2.67834  0.00000  0.64332
       5     C     2.68006  2.68006  0.00000  0.63989
       6     H     0.42834  0.42834  0.00000  0.14332
       7     F     4.60638  4.60638  0.00000 -0.21275
       8     F     4.60480  4.60480  0.00000 -0.20961
       9     F     4.60232  4.60232  0.00000 -0.20465
      10     F     4.60233  4.60233  0.00000 -0.20465
      11     F     4.60588  4.60588  0.00000 -0.21176
      12     F     4.61097  4.61097  0.00000 -0.22194

   Total alpha = 41.00000, Total beta = 41.00000, Total charge = -0.00000
