  ==> Input File <==

--------------------------------------------------------------------------
set {
	reference rhf
	basis cc-pvtz
}

set_num_threads( 4 )
memory 2 gb

molecule MOL {
0 1

H	 -2.498963	 -0.741158	 -0.729149
O	 -2.346257	 -0.289210	 0.080372
C	 -1.183935	 0.486039	 -0.009831
C	 0.062853	 -0.375310	 0.027457
H	 -1.178881	 1.094526	 -0.908634
H	 -1.184406	 1.155156	 0.838676
O	 1.172093	 0.457955	 -0.054438
H	 0.052476	 -1.081302	 -0.804627
H	 0.076323	 -0.955658	 0.947560
C	 0.966484	 1.626884	 -0.777316
H	 0.184174	 2.237349	 -0.331673
H	 1.890281	 2.186572	 -0.771498
H	 0.691755	 1.413689	 -1.807652

	symmetry c1
}
set optking {
	frozen_dihedral = ("
		10 7 4 8
	")
}

ee = optimize('scf')
oeprop('DIPOLE', 'QUADRUPOLE', 'MULLIKEN_CHARGES')
f=open( 'psi4out.xyz', 'w' )
f.write( "13  " )
f.write( str(ee) + "\n" )
f.write( MOL.save_string_xyz() )
f.close()
--------------------------------------------------------------------------

    Molecular point group: c1
  Charge       = 0
  Multiplicity = 1
  Basis Set: CC-PVTZ
  Basis Set:
  @DF-RHF Final Energy:  -268.04166783427593
    Total Energy =                       -268.0416678342757564
    Molecular point group: c1
  Basis Set: CC-PVTZ
  Basis Set:
  Basis Set: CC-PVTZ
  Basis Set:
  @DF-RHF Final Energy:  -268.04324035440567
    Total Energy =                       -268.0432403544058957
  Basis Set: CC-PVTZ
  Basis Set:
  Basis Set: CC-PVTZ
  Basis Set:
  @DF-RHF Final Energy:  -268.05033763764663
    Total Energy =                       -268.0503376376466917
  Basis Set: CC-PVTZ
  Basis Set:
  Basis Set: CC-PVTZ
  Basis Set:
  @DF-RHF Final Energy:  -268.05326864332608
    Total Energy =                       -268.0532686433259641
  Basis Set: CC-PVTZ
  Basis Set:
  @DF-RHF Final Energy:  -268.05382663710395
    Total Energy =                       -268.0538266371037253
  Basis Set: CC-PVTZ
  Basis Set:
  @DF-RHF Final Energy:  -268.05406087933841
    Total Energy =                       -268.0540608793386355
  Basis Set: CC-PVTZ
  Basis Set:
  Basis Set: CC-PVTZ
  Basis Set:
  @DF-RHF Final Energy:  -268.05409198624545
    Total Energy =                       -268.0540919862451688
  Basis Set: CC-PVTZ
  Basis Set:
  Basis Set: CC-PVTZ
  Basis Set:
  @DF-RHF Final Energy:  -268.05409496524328
    Total Energy =                       -268.0540949652432232
  Basis Set: CC-PVTZ
  Basis Set:
  Charge       = 0
  Multiplicity = 1
  Basis Set: CC-PVTZ
  Basis Set:

    Orbital Energies (a.u.)
    -----------------------

    Doubly Occupied:

       1A    -20.557858     2A    -20.552625     3A    -11.274766
       4A    -11.269656     5A    -11.268435     6A     -1.386596
       7A     -1.372727     8A     -1.014225     9A     -0.938702
      10A     -0.830610    11A     -0.713437    12A     -0.677813
      13A     -0.666468    14A     -0.635215    15A     -0.600617
      16A     -0.573942    17A     -0.536828    18A     -0.510974
      19A     -0.496030    20A     -0.437934    21A     -0.413565

  @DF-RHF Final Energy:  -268.05409533459078

   => Energetics <=

    Nuclear Repulsion Energy =            193.0128749282243632
    One-Electron Energy =                -748.6758961922434992
    Two-Electron Energy =                 287.6089259294282101
    DFT Exchange-Correlation Energy =       0.0000000000000000
    Empirical Dispersion Energy =           0.0000000000000000
    PCM Polarization Energy =               0.0000000000000000
    EFP Energy =                            0.0000000000000000
    Total Energy =                       -268.0540953345908974
    Molecular point group: c1
  Basis Set: CC-PVTZ
  Basis Set:

  -Total Gradient:
     Atom            X                  Y                   Z
    ------   -----------------  -----------------  -----------------
       1       -0.000009313900     0.000001640960     0.000001300209
       2        0.000009479096    -0.000009027964    -0.000015756028
       3       -0.000005672221     0.000014958794     0.000033517938
       4       -0.003687651619     0.005240140482    -0.002090564628
       5        0.000010947170    -0.000011200135     0.000003113113
       6       -0.000006766880     0.000015058341    -0.000000494784
       7        0.002640186990    -0.004003744286    -0.004361040823
       8        0.002395377411    -0.003380290000     0.002969701368
       9       -0.000005501434     0.000012385821    -0.000006284257
      10       -0.001338175642     0.002111966568     0.003469948189
      11       -0.000000666226    -0.000006994975     0.000000672832
      12       -0.000001613706     0.000010549384    -0.000004825649
      13       -0.000000629044     0.000004557008     0.000000712520

  **** Optimization is complete! (in 9 steps) ****
    Final optimized geometry and variables:
    Molecular point group: c1

    Geometry (in Angstrom), charge = 0, multiplicity = 1:

    H           -2.178029804746    -1.354321800773    -0.436533256058
    O           -2.068172301140    -0.824461977062     0.332164264497
    C           -1.016707611896     0.081517017022     0.148749538371
    C            0.311799467102    -0.660951047550     0.118331015295
    H           -1.171417844727     0.667903088703    -0.750924572449
    H           -1.042053118741     0.758409287073     0.992068273377
    O            1.465810400908     0.125294053509     0.091807302361
    H            0.331385964066    -1.372936726184    -0.708570636720
    H            0.372730827347    -1.252761098899     1.021975746124
    C            1.448071757510     1.313050072814    -0.633378096587
    H            0.776713967733     2.049186459378    -0.204011477581
    H            2.451325973093     1.712643305643    -0.607980630298
    H            1.170542695361     1.153139270375    -1.673317790197

  Mulliken Charges: (a.u.)
   Center  Symbol    Alpha    Beta     Spin     Total
       1     H     0.39323  0.39323  0.00000  0.21354
       2     O     4.20025  4.20025  0.00000 -0.40050
       3     C     2.98850  2.98850  0.00000  0.02299
       4     C     2.97878  2.97878  0.00000  0.04243
       5     H     0.46806  0.46806  0.00000  0.06387
       6     H     0.44720  0.44720  0.00000  0.10560
       7     O     4.17683  4.17683  0.00000 -0.35366
       8     H     0.47614  0.47614  0.00000  0.04772
       9     H     0.45154  0.45154  0.00000  0.09691
      10     C     3.03665  3.03665  0.00000 -0.07330
      11     H     0.46843  0.46843  0.00000  0.06314
      12     H     0.44183  0.44183  0.00000  0.11634
      13     H     0.47255  0.47255  0.00000  0.05490

   Total alpha = 21.00000, Total beta = 21.00000, Total charge =  0.00000
