                              Psi4 1.0.54 Driver

  ==> Input File <==

--------------------------------------------------------------------------
set {
	reference rhf
	basis cc-pvtz
}

set_num_threads( 4 )
memory 2 gb

molecule MOL {
0 1

O	 -2.817697	 1.304178	 0.001046
C	 -2.664672	 0.129869	 0.003507
C	 -3.797908	 -0.860100	 -0.001145
O	 -1.481217	 -0.452708	 0.001092
H	 -4.408836	 -0.679689	 -0.875387
H	 -3.443486	 -1.878443	 -0.002770
H	 -4.412123	 -0.683688	 0.871605
C	 -0.332055	 0.384012	 -0.000250
C	 0.892252	 -0.506059	 -0.000295
H	 -0.360822	 1.020205	 -0.874146
H	 -0.359817	 1.021310	 0.872861
C	 2.188199	 0.299473	 -0.001416
H	 0.857046	 -1.152781	 -0.871031
H	 0.857910	 -1.151798	 0.871202
C	 3.289687	 -0.341522	 -0.841043
H	 1.991967	 1.301472	 -0.374872
H	 2.541577	 0.419100	 1.019753
C	 4.585267	 0.462520	 -0.841469
H	 2.938381	 -0.459979	 -1.862125
H	 3.486766	 -1.342819	 -0.468684
H	 4.427593	 1.458702	 -1.240976
H	 5.345321	 -0.019103	 -1.445509
H	 4.980054	 0.569297	 0.163317

	symmetry c1
}
set optking {
	frozen_dihedral = ("
		16 12 9 13
	")
}

ee,wfn = optimize('scf', return_wfn=True)
oeprop( wfn, 'DIPOLE', 'QUADRUPOLE', 'MULLIKEN_CHARGES')
f=open( 'psi4out.xyz', 'w' )
f.write( "23  " )
f.write( str(ee) + "\n" )
f.write( MOL.save_string_xyz() )
f.close()
--------------------------------------------------------------------------

    Molecular point group: c1
  Charge       = 0
  Multiplicity = 1
  Basis Set: CC-PVTZ
  Basis Set:
  @DF-RHF Final Energy:  -423.13140687559473
    Total Energy =                       -423.1314068755953031
    Molecular point group: c1
  Basis Set: CC-PVTZ
  Basis Set:
  Basis Set: CC-PVTZ
  Basis Set:
  @DF-RHF Final Energy:  -423.13145200224790
    Total Energy =                       -423.1314520022481247
  Basis Set: CC-PVTZ
  Basis Set:
  Basis Set: CC-PVTZ
  Basis Set:
  @DF-RHF Final Energy:  -423.13158820676824
    Total Energy =                       -423.1315882067680150
  Basis Set: CC-PVTZ
  Basis Set:
  Basis Set: CC-PVTZ
  Basis Set:
  @DF-RHF Final Energy:  -423.13169590710703
    Total Energy =                       -423.1316959071073143
  Basis Set: CC-PVTZ
  Basis Set:
  Basis Set: CC-PVTZ
  Basis Set:
  @DF-RHF Final Energy:  -423.13172219495641
    Total Energy =                       -423.1317221949564100
  Basis Set: CC-PVTZ
  Basis Set:
  Charge       = 0
  Multiplicity = 1
  Basis Set: CC-PVTZ
  Basis Set:

    Orbital Energies (a.u.)
    -----------------------

    Doubly Occupied:

       1A    -20.596048     2A    -20.529686     3A    -11.366574
       4A    -11.280035     5A    -11.230760     6A    -11.222003
       7A    -11.221237     8A    -11.219915     9A    -11.210866
      10A     -1.471369    11A     -1.364205    12A     -1.094061
      13A     -1.043401    14A     -1.004027    15A     -0.931479
      16A     -0.843536    17A     -0.803292    18A     -0.777462
      19A     -0.692957    20A     -0.688389    21A     -0.673171
      22A     -0.642620    23A     -0.609919    24A     -0.588320
      25A     -0.583688    26A     -0.569195    27A     -0.559483
      28A     -0.537536    29A     -0.525260    30A     -0.504598
      31A     -0.493291    32A     -0.478666    33A     -0.468625
      34A     -0.465994    35A     -0.454544    36A     -0.439000

  @DF-RHF Final Energy:  -423.13172311061959

   => Energetics <=

    Nuclear Repulsion Energy =            450.6938807153740640
    One-Electron Energy =               -1469.2807692112196492
    Two-Electron Energy =                 595.4551653852258823
    DFT Exchange-Correlation Energy =       0.0000000000000000
    Empirical Dispersion Energy =           0.0000000000000000
    PCM Polarization Energy =               0.0000000000000000
    EFP Energy =                            0.0000000000000000
    Total Energy =                       -423.1317231106197596
    Molecular point group: c1
  Basis Set: CC-PVTZ
  Basis Set:

  -Total Gradient:
     Atom            X                  Y                   Z
    ------   -----------------  -----------------  -----------------
       1       -0.000019008952     0.000019249232     0.000054107150
       2        0.000030097705    -0.000002718139    -0.000150008208
       3        0.000010179037    -0.000008504484     0.000065778538
       4        0.000001954594    -0.000015215964     0.000014018049
       5       -0.000014920496     0.000003055277    -0.000025306831
       6       -0.000002173521     0.000000879192     0.000000506671
       7       -0.000011733650    -0.000001457071     0.000008469448
       8        0.000046822942    -0.000001553740     0.000042651346
       9       -0.002187262456     0.003731918773    -0.001500157497
      10       -0.000020844074     0.000000031445    -0.000013718709
      11        0.000006075762    -0.000004178267    -0.000006317860
      12        0.001268376500    -0.002135289474    -0.003850645293
      13        0.001680017848    -0.002721837911     0.001904472035
      14       -0.000023841848    -0.000011037129     0.000045413329
      15       -0.000067809603     0.000072972045    -0.000090290153
      16       -0.000762665163     0.001108702103     0.003412655453
      17        0.000001118869    -0.000020237604     0.000051597094
      18        0.000044204766    -0.000030557425     0.000036264129
      19       -0.000023388565    -0.000002679238    -0.000042786019
      20       -0.000014707146    -0.000008496353     0.000010324926
      21       -0.000008485254     0.000004056850    -0.000021479877
      22        0.000026723765    -0.000001662065     0.000007142373
      23        0.000041268939     0.000024559950     0.000047309907

  **** Optimization is complete! (in 6 steps) ****
    Final optimized geometry and variables:
    Molecular point group: c1

    Geometry (in Angstrom), charge = 0, multiplicity = 1:

    O           -2.796477057251     1.250504146369     0.216139049839
    C           -2.642780568566     0.076256613020     0.217044611893
    C           -3.774769133736    -0.914414304955     0.260299733061
    O           -1.459322600366    -0.505372832768     0.181400614714
    H           -4.416835507745    -0.740582123248    -0.592822971894
    H           -3.419798252606    -1.932573462075     0.253226894267
    H           -4.357383634244    -0.732002964991     1.153345432680
    C           -0.312333858988     0.331851738221     0.138471876681
    C            0.913426214863    -0.553258720651     0.099631321743
    H           -0.369855828428     0.965461649501    -0.735918127546
    H           -0.309518811938     0.972742949526     1.009947657807
    C            2.217669836652     0.255848581824     0.125862874832
    H            0.879746993846    -1.190522933314    -0.777660462412
    H            0.882044911519    -1.227635381501     0.948779274652
    C            3.350695006864    -0.384157151245    -0.669222211082
    H            2.036813198609     1.265883006323    -0.234206733193
    H            2.535129034736     0.380630415814     1.157409150423
    C            4.660315968829     0.390769727590    -0.576134601058
    H            3.052503178478    -0.468292556721    -1.710479007880
    H            3.505464989818    -1.399618866685    -0.314338799054
    H            4.543806376571     1.401911427698    -0.951845196897
    H            5.441415627244    -0.088693752512    -1.154609016436
    H            5.003507725362     0.458492927389     0.450840134378

  Mulliken Charges: (a.u.)
   Center  Symbol    Alpha    Beta     Spin     Total
       1     O     4.20236  4.20236  0.00000 -0.40473
       2     C     2.81473  2.81473  0.00000  0.37053
       3     C     3.13985  3.13985  0.00000 -0.27971
       4     O     4.14552  4.14552  0.00000 -0.29105
       5     H     0.44215  0.44215  0.00000  0.11570
       6     H     0.44180  0.44180  0.00000  0.11641
       7     H     0.44210  0.44210  0.00000  0.11580
       8     C     2.97812  2.97812  0.00000  0.04376
       9     C     3.08381  3.08381  0.00000 -0.16761
      10     H     0.45410  0.45410  0.00000  0.09180
      11     H     0.45305  0.45305  0.00000  0.09389
      12     C     3.10006  3.10006  0.00000 -0.20012
      13     H     0.45112  0.45112  0.00000  0.09776
      14     H     0.44961  0.44961  0.00000  0.10079
      15     C     3.08433  3.08433  0.00000 -0.16865
      16     H     0.45356  0.45356  0.00000  0.09288
      17     H     0.45133  0.45133  0.00000  0.09734
      18     C     3.14957  3.14957  0.00000 -0.29913
      19     H     0.45349  0.45349  0.00000  0.09302
      20     H     0.45270  0.45270  0.00000  0.09461
      21     H     0.45430  0.45430  0.00000  0.09141
      22     H     0.44775  0.44775  0.00000  0.10451
      23     H     0.45460  0.45460  0.00000  0.09079

   Total alpha = 36.00000, Total beta = 36.00000, Total charge = -0.00000

*** Psi4 exiting successfully. Buy a developer a beer!
