                              Psi4 1.0.54 Driver

  ==> Input File <==

--------------------------------------------------------------------------
set {
	reference rhf
	basis cc-pvtz
}

set_num_threads( 4 )
memory 2 gb

molecule MOL {
0 1

O	 1.801690	 3.020937	 1.847537
C	 1.203928	 2.725701	 2.830200
C	 -0.070998	 1.907995	 2.788337
C	 1.681259	 3.150849	 4.200466
C	 -0.515428	 1.503992	 1.389734
H	 0.082250	 1.030558	 3.412587
H	 -0.846349	 2.484682	 3.287607
C	 -1.802019	 0.683175	 1.397223
H	 0.278545	 0.940213	 0.913420
H	 -0.650741	 2.395676	 0.788298
C	 -2.258482	 0.271340	 0.000669
H	 -1.659678	 -0.208208	 2.004222
H	 -2.593284	 1.254031	 1.878143
C	 -3.544441	 -0.550271	 -0.000253
H	 -1.468286	 -0.299551	 -0.480775
H	 -2.401795	 1.161729	 -0.606617
C	 -4.804551	 0.308747	 0.000556
H	 -3.553737	 -1.201524	 -0.870151
H	 -3.553831	 -1.203282	 0.868313
H	 -4.842050	 0.949078	 -0.874436
H	 -5.698404	 -0.304480	 -0.000254
H	 -4.842277	 0.947103	 0.876982
H	 1.857464	 2.279891	 4.822103
H	 2.591750	 3.722850	 4.109851
H	 0.921795	 3.748942	 4.691933

	symmetry c1
}
set optking {
	frozen_dihedral = ("
		15 11 14 18
	")
}

ee,wfn = optimize('scf', return_wfn=True)
oeprop( wfn, 'DIPOLE', 'QUADRUPOLE', 'MULLIKEN_CHARGES')
f=open( 'psi4out.xyz', 'w' )
f.write( "25  " )
f.write( str(ee) + "\n" )
f.write( MOL.save_string_xyz() )
f.close()
--------------------------------------------------------------------------

    Molecular point group: c1
  Charge       = 0
  Multiplicity = 1
  Basis Set: CC-PVTZ
  Basis Set:
  @DF-RHF Final Energy:  -387.27165690430155
    Total Energy =                       -387.2716569043018353
    Molecular point group: c1
  Basis Set: CC-PVTZ
  Basis Set:
  Basis Set: CC-PVTZ
  Basis Set:
  @DF-RHF Final Energy:  -387.27184965408139
    Total Energy =                       -387.2718496540811657
  Basis Set: CC-PVTZ
  Basis Set:
  Basis Set: CC-PVTZ
  Basis Set:
  @DF-RHF Final Energy:  -387.27188676965869
    Total Energy =                       -387.2718867696588632
  Basis Set: CC-PVTZ
  Basis Set:
  Basis Set: CC-PVTZ
  Basis Set:
  @DF-RHF Final Energy:  -387.27170484014499
    Total Energy =                       -387.2717048401445936
  Basis Set: CC-PVTZ
  Basis Set:
  Basis Set: CC-PVTZ
  Basis Set:
  @DF-RHF Final Energy:  -387.27189087761440
    Total Energy =                       -387.2718908776147373
  Basis Set: CC-PVTZ
  Basis Set:
  Charge       = 0
  Multiplicity = 1
  Basis Set: CC-PVTZ
  Basis Set:

    Orbital Energies (a.u.)
    -----------------------

    Doubly Occupied:

       1A    -20.538907     2A    -11.320542     3A    -11.230228
       4A    -11.226616     5A    -11.215314     6A    -11.214659
       7A    -11.213628     8A    -11.211533     9A    -11.207297
      10A     -1.398943    11A     -1.094968    12A     -1.056864
      13A     -1.014887    14A     -0.968832    15A     -0.894737
      16A     -0.821565    17A     -0.784735    18A     -0.730814
      19A     -0.659259    20A     -0.655459    21A     -0.627287
      22A     -0.620566    23A     -0.611052    24A     -0.589525
      25A     -0.569208    26A     -0.557745    27A     -0.538776
      28A     -0.523889    29A     -0.517316    30A     -0.495412
      31A     -0.487753    32A     -0.478709    33A     -0.462941
      34A     -0.456162    35A     -0.452267    36A     -0.401484

  @DF-RHF Final Energy:  -387.27189111429448

   => Energetics <=

    Nuclear Repulsion Energy =            442.3714075157778325
    One-Electron Energy =               -1401.5868373872795019
    Two-Electron Energy =                 571.9435387572073068
    DFT Exchange-Correlation Energy =       0.0000000000000000
    Empirical Dispersion Energy =           0.0000000000000000
    PCM Polarization Energy =               0.0000000000000000
    EFP Energy =                            0.0000000000000000
    Total Energy =                       -387.2718911142943625
    Molecular point group: c1
  Basis Set: CC-PVTZ
  Basis Set:

  -Total Gradient:
     Atom            X                  Y                   Z
    ------   -----------------  -----------------  -----------------
       1        0.000011540694    -0.000011540520    -0.000038953119
       2       -0.000031106636     0.000030687264     0.000019366950
       3        0.000008393077     0.000013027911     0.000002054134
       4        0.000000167831    -0.000015375754     0.000011005409
       5       -0.000007073079     0.000000255815    -0.000023007827
       6        0.000002161738     0.000000155785    -0.000004217178
       7       -0.000000987785     0.000003284618     0.000006945098
       8        0.000007601216    -0.000021359296     0.000031596219
       9        0.000003291577    -0.000003348435     0.000003774410
      10        0.000010097125     0.000003856123    -0.000006904926
      11        0.000988401331    -0.001904607462     0.003366154205
      12       -0.000004243319    -0.000018573164    -0.000007236030
      13        0.000006698458    -0.000004718606    -0.000001197145
      14       -0.001566073516     0.002796297374    -0.002398677804
      15       -0.000590977314     0.001156402532    -0.002435451707
      16       -0.000006873451     0.000004314653    -0.000012283518
      17       -0.000004599857     0.000029271680     0.000000358170
      18        0.001157994094    -0.002038572915     0.001470695356
      19        0.000009494674     0.000003425126     0.000004033781
      20        0.000009042599    -0.000003871625    -0.000002053201
      21        0.000001642468    -0.000014802439     0.000000867146
      22        0.000002725307    -0.000000168129     0.000004314912
      23        0.000002197206    -0.000001329669     0.000012243184
      24       -0.000006102630    -0.000006269253    -0.000010655512
      25       -0.000003411807     0.000003558387     0.000007228996

  **** Optimization is complete! (in 6 steps) ****
    Final optimized geometry and variables:
    Molecular point group: c1

    Geometry (in Angstrom), charge = 0, multiplicity = 1:

    O            2.721147859402     1.569715869405     0.306312120205
    C            2.114163017379     1.254181136540     1.276878692103
    C            0.844440974153     0.430224677658     1.206559980385
    C            2.573600943561     1.657922792898     2.659767310933
    C            0.418927204263     0.046832757490    -0.203684679429
    H            0.995502426951    -0.456408090117     1.818174830822
    H            0.060087929185     0.994500716330     1.706032115259
    C           -0.863558359705    -0.780101232658    -0.225337980548
    H            1.221285825174    -0.505590510454    -0.679452650557
    H            0.286664124451     0.947438027231    -0.792307379303
    C           -1.290213019741    -1.181984910271    -1.634848068907
    H           -0.726082047428    -1.678503574796     0.372133254001
    H           -1.662172306473    -0.217809586790     0.251915326881
    C           -2.606976680846    -1.965638115376    -1.694085899614
    H           -0.500940644142    -1.765312392127    -2.099227734438
    H           -1.383220559128    -0.287762313093    -2.247035639168
    C           -3.854784188650    -1.087738893962    -1.694904393112
    H           -2.608041940751    -2.599810495164    -2.574486655360
    H           -2.650959016071    -2.648760553272    -0.849383966126
    H           -3.874421898299    -0.442391981124    -2.566624935433
    H           -4.755929758038    -1.690219241390    -1.708955088953
    H           -3.898626845681    -0.454546531981    -0.815618051910
    H            2.747617177274     0.777162125074     3.268057455592
    H            3.481910865265     2.236279555177     2.589574466691
    H            1.805291100334     2.243301658205     3.152818509898

  Mulliken Charges: (a.u.)
   Center  Symbol    Alpha    Beta     Spin     Total
       1     O     4.17079  4.17079  0.00000 -0.34157
       2     C     2.86216  2.86216  0.00000  0.27568
       3     C     3.11329  3.11329  0.00000 -0.22658
       4     C     3.15127  3.15127  0.00000 -0.30253
       5     C     3.08298  3.08298  0.00000 -0.16596
       6     H     0.44559  0.44559  0.00000  0.10882
       7     H     0.44577  0.44577  0.00000  0.10846
       8     C     3.09109  3.09109  0.00000 -0.18219
       9     H     0.44578  0.44578  0.00000  0.10844
      10     H     0.44568  0.44568  0.00000  0.10864
      11     C     3.09464  3.09464  0.00000 -0.18928
      12     H     0.45555  0.45555  0.00000  0.08890
      13     H     0.45520  0.45520  0.00000  0.08961
      14     C     3.09094  3.09094  0.00000 -0.18187
      15     H     0.44724  0.44724  0.00000  0.10551
      16     H     0.45507  0.45507  0.00000  0.08986
      17     C     3.14798  3.14798  0.00000 -0.29597
      18     H     0.44738  0.44738  0.00000  0.10524
      19     H     0.45714  0.45714  0.00000  0.08573
      20     H     0.45444  0.45444  0.00000  0.09112
      21     H     0.44794  0.44794  0.00000  0.10413
      22     H     0.45598  0.45598  0.00000  0.08803
      23     H     0.45040  0.45040  0.00000  0.09920
      24     H     0.43535  0.43535  0.00000  0.12931
      25     H     0.45037  0.45037  0.00000  0.09926

   Total alpha = 36.00000, Total beta = 36.00000, Total charge = -0.00000

*** Psi4 exiting successfully. Buy a developer a beer!
