                              Psi4 1.0.54 Driver

  ==> Input File <==

--------------------------------------------------------------------------
set {
	reference rhf
	basis cc-pvtz
}

set_num_threads( 4 )
memory 2 gb

molecule MOL {
0 1

O	 -2.440701	 -0.934798	 -0.415053
C	 -1.922978	 0.063265	 -0.045005
C	 -2.632749	 1.372204	 0.158357
O	 -0.637375	 0.157174	 0.243149
H	 -2.187724	 2.129143	 -0.474664
H	 -3.677681	 1.257276	 -0.079438
H	 -2.516788	 1.693160	 1.185542
C	 0.162530	 -1.009518	 0.097799
C	 1.587210	 -0.664190	 0.477086
H	 0.096803	 -1.356267	 -0.924704
H	 -0.233803	 -1.785900	 0.736810
C	 2.256770	 0.342732	 -0.454344
H	 2.154716	 -1.590834	 0.479041
H	 1.598751	 -0.289614	 1.496104
C	 1.951625	 0.077039	 -1.924688
H	 1.926764	 1.344517	 -0.192387
H	 3.328951	 0.320464	 -0.296948
H	 2.435134	 0.807634	 -2.562525
H	 0.885177	 0.122249	 -2.119719
H	 2.300044	 -0.905547	 -2.224928

	symmetry c1
}
set optking {
	frozen_dihedral = ("
		16 12 9 8
	")
}

ee,wfn = optimize('scf', return_wfn=True)
oeprop( wfn, 'DIPOLE', 'QUADRUPOLE', 'MULLIKEN_CHARGES')
f=open( 'psi4out.xyz', 'w' )
f.write( "20  " )
f.write( str(ee) + "\n" )
f.write( MOL.save_string_xyz() )
f.close()
--------------------------------------------------------------------------

    Molecular point group: c1
  Charge       = 0
  Multiplicity = 1
  Basis Set: CC-PVTZ
  Basis Set:
  @DF-RHF Final Energy:  -384.08278883628799
    Total Energy =                       -384.0827888362875910
    Molecular point group: c1
  Basis Set: CC-PVTZ
  Basis Set:
  Basis Set: CC-PVTZ
  Basis Set:
  @DF-RHF Final Energy:  -383.89217447615749
    Total Energy =                       -383.8921744761572654
  Basis Set: CC-PVTZ
  Basis Set:
  Basis Set: CC-PVTZ
  Basis Set:
  @DF-RHF Final Energy:  -384.01727374089808
    Total Energy =                       -384.0172737408985313
  Basis Set: CC-PVTZ
  Basis Set:
  Basis Set: CC-PVTZ
  Basis Set:
  @DF-RHF Final Energy:  -384.07826813433849
    Total Energy =                       -384.0782681343381455
  Basis Set: CC-PVTZ
  Basis Set:
  @DF-RHF Final Energy:  -384.08375908467968
    Total Energy =                       -384.0837590846792864
  @DF-RHF Final Energy:  -384.08408998443986
    Total Energy =                       -384.0840899844396290
  @DF-RHF Final Energy:  -384.08288091700604
    Total Energy =                       -384.0828809170059230
  @DF-RHF Final Energy:  -384.08466334986343
    Total Energy =                       -384.0846633498637175
  Basis Set: CC-PVTZ
  Basis Set:
  @DF-RHF Final Energy:  -384.08473266944935
    Total Energy =                       -384.0847326694496360
  Basis Set: CC-PVTZ
  Basis Set:
  Basis Set: CC-PVTZ
  Basis Set:
  @DF-RHF Final Energy:  -384.08475311383029
    Total Energy =                       -384.0847531138299473
  Basis Set: CC-PVTZ
  Basis Set:
  Basis Set: CC-PVTZ
  Basis Set:
  @DF-RHF Final Energy:  -384.08475526427287
    Total Energy =                       -384.0847552642728715
  Basis Set: CC-PVTZ
  Basis Set:
  Charge       = 0
  Multiplicity = 1
  Basis Set: CC-PVTZ
  Basis Set:

    Orbital Energies (a.u.)
    -----------------------

    Doubly Occupied:

       1A    -20.594070     2A    -20.532619     3A    -11.366536
       4A    -11.279156     5A    -11.231620     6A    -11.223991
       7A    -11.219569     8A    -11.211512     9A     -1.470686
      10A     -1.364896    11A     -1.086243    12A     -1.027394
      13A     -0.979961    14A     -0.893560    15A     -0.806973
      16A     -0.769518    17A     -0.693074    18A     -0.691152
      19A     -0.666766    20A     -0.625650    21A     -0.618527
      22A     -0.579586    23A     -0.573336    24A     -0.563761
      25A     -0.537548    26A     -0.530274    27A     -0.523570
      28A     -0.479609    29A     -0.474886    30A     -0.469804
      31A     -0.453230    32A     -0.441601

  @DF-RHF Final Energy:  -384.08475606741985

   => Energetics <=

    Nuclear Repulsion Energy =            393.5105689497513026
    One-Electron Energy =               -1303.2292985634712750
    Two-Electron Energy =                 525.6339735463005809
    DFT Exchange-Correlation Energy =       0.0000000000000000
    Empirical Dispersion Energy =           0.0000000000000000
    PCM Polarization Energy =               0.0000000000000000
    EFP Energy =                            0.0000000000000000
    Total Energy =                       -384.0847560674193346
    Molecular point group: c1
  Basis Set: CC-PVTZ
  Basis Set:

  -Total Gradient:
     Atom            X                  Y                   Z
    ------   -----------------  -----------------  -----------------
       1       -0.000022908162    -0.000043858551     0.000009030670
       2        0.000029635518     0.000020746703     0.000022815328
       3       -0.000000745333     0.000031722349    -0.000070069512
       4        0.000009497022     0.000034925647    -0.000021302998
       5        0.000007012230    -0.000000458835     0.000027702340
       6       -0.000008772456    -0.000007323861     0.000005760249
       7        0.000001560473    -0.000024402109     0.000016418976
       8        0.001298045072    -0.001726603188    -0.002105007791
       9       -0.001056579599     0.002695974502     0.003493985244
      10       -0.000005180736     0.000008936963     0.000003072713
      11       -0.000012423547     0.000005023408     0.000001109843
      12       -0.003454416279    -0.002115889454    -0.003384343519
      13       -0.000019334444     0.000000101945     0.000000521295
      14       -0.000001898740    -0.000003050277     0.000001026696
      15       -0.000005580620    -0.000006355803     0.000018903957
      16        0.003243992863     0.001118525575     0.001987103505
      17       -0.000008541271     0.000004702010    -0.000009667390
      18       -0.000000034381     0.000000333792    -0.000001203747
      19        0.000015522935     0.000004147082    -0.000000371297
      20       -0.000008850542     0.000002802104     0.000004515439

  **** Optimization is complete! (in 12 steps) ****
    Final optimized geometry and variables:
    Molecular point group: c1

    Geometry (in Angstrom), charge = 0, multiplicity = 1:

    O           -1.823052897475    -1.578649210350     0.197577861474
    C           -1.595288062415    -0.456171235067     0.496518136586
    C           -2.637300360145     0.556532987365     0.879097381107
    O           -0.379094112354     0.057502507959     0.535391277527
    H           -2.574560123671     1.412245845618     0.219517707033
    H           -3.615999678055     0.109298353285     0.817170521116
    H           -2.450318630832     0.904111373266     1.887095289580
    C            0.712368587500    -0.793173436267     0.203892870663
    C            1.996215237726    -0.000653420031     0.335019645369
    H            0.571065275282    -1.173494299051    -0.796579965664
    H            0.715136826567    -1.637971959160     0.877987318604
    C            2.127783516578     1.227010951650    -0.574179868623
    H            2.803437821930    -0.694790671317     0.115380179387
    H            2.122741438919     0.303665772323     1.368039068622
    C            1.726939982877     1.014321255715    -2.029911505114
    H            1.573108297913     2.054785876670    -0.146815014208
    H            3.167817142904     1.538380860699    -0.543193231548
    H            1.955131563277     1.896057340522    -2.616924773301
    H            0.666739925318     0.819513769998    -2.134244591142
    H            2.263900567746     0.179711348161    -2.469672090967

  Mulliken Charges: (a.u.)
   Center  Symbol    Alpha    Beta     Spin     Total
       1     O     4.19717  4.19717  0.00000 -0.39435
       2     C     2.81032  2.81032  0.00000  0.37935
       3     C     3.13831  3.13831  0.00000 -0.27662
       4     O     4.15612  4.15612  0.00000 -0.31225
       5     H     0.44612  0.44612  0.00000  0.10777
       6     H     0.43792  0.43792  0.00000  0.12415
       7     H     0.44567  0.44567  0.00000  0.10865
       8     C     2.99782  2.99782  0.00000  0.00436
       9     C     3.09419  3.09419  0.00000 -0.18839
      10     H     0.44755  0.44755  0.00000  0.10490
      11     H     0.43891  0.43891  0.00000  0.12218
      12     C     3.08539  3.08539  0.00000 -0.17079
      13     H     0.45096  0.45096  0.00000  0.09807
      14     H     0.44731  0.44731  0.00000  0.10538
      15     C     3.15801  3.15801  0.00000 -0.31602
      16     H     0.44923  0.44923  0.00000  0.10154
      17     H     0.44961  0.44961  0.00000  0.10078
      18     H     0.44451  0.44451  0.00000  0.11098
      19     H     0.45168  0.45168  0.00000  0.09663
      20     H     0.45317  0.45317  0.00000  0.09366

   Total alpha = 32.00000, Total beta = 32.00000, Total charge = -0.00000

*** Psi4 exiting successfully. Buy a developer a beer!
