  ==> Input File <==

--------------------------------------------------------------------------
set {
	reference rhf
	basis 6-31G*
}

set_num_threads( 4 )
memory 2 gb

molecule MOL {
0 1

H	 2.973588	 -1.535440	 4.007972
C	 2.543824	 -1.694426	 3.024216
C	 1.266250	 -0.875901	 2.843152
H	 3.294118	 -1.418838	 2.288460
H	 2.350805	 -2.758101	 2.916573
C	 0.628493	 -1.071734	 1.471542
H	 1.475423	 0.180530	 2.979498
H	 0.549504	 -1.152045	 3.614781
N	 -0.562438	 -0.258102	 1.326132
H	 1.334453	 -0.771494	 0.701840
H	 0.428350	 -2.136154	 1.309277
C	 -1.217365	 -0.386708	 0.039277
H	 -1.212311	 -0.486068	 2.054649
C	 -2.452633	 0.504241	 -0.042481
H	 -0.508316	 -0.087568	 -0.728006
H	 -1.496772	 -1.421698	 -0.184576
C	 -3.758029	 -0.289423	 -0.010781
H	 -2.394220	 1.093569	 -0.952170
H	 -2.440793	 1.210787	 0.785871
H	 -3.816659	 -0.981993	 -0.845726
H	 -4.617837	 0.370165	 -0.069296
H	 -3.847478	 -0.867502	 0.904682

	symmetry c1
}
set optking {
	frozen_dihedral = ("
		15 12 14 18
	")
}

ee = optimize('scf')
oeprop('DIPOLE', 'QUADRUPOLE', 'MULLIKEN_CHARGES')
f=open( 'psi4out.xyz', 'w' )
f.write( "22  " )
f.write( str(ee) + "\n" )
f.write( MOL.save_string_xyz() )
f.close()
--------------------------------------------------------------------------

    Molecular point group: c1
  Charge       = 0
  Multiplicity = 1
  Basis Set: 6-31G*
  Basis Set:
  @DF-RHF Final Energy:  -290.37724853617289
    Total Energy =                       -290.3772485361732834
    Molecular point group: c1
  Basis Set: 6-31G*
  Basis Set:
  Basis Set: 6-31G*
  Basis Set:
  @DF-RHF Final Energy:  -290.37768796189442
    Total Energy =                       -290.3776879618941393
  Basis Set: 6-31G*
  Basis Set:
  Basis Set: 6-31G*
  Basis Set:
  @DF-RHF Final Energy:  -290.37779592146831
    Total Energy =                       -290.3777959214681914
  Basis Set: 6-31G*
  Basis Set:
  Basis Set: 6-31G*
  Basis Set:
  @DF-RHF Final Energy:  -290.37779743202077
    Total Energy =                       -290.3777974320204294
  Basis Set: 6-31G*
  Basis Set:
  Charge       = 0
  Multiplicity = 1
  Basis Set: 6-31G*
  Basis Set:

    Orbital Energies (a.u.)
    -----------------------

    Doubly Occupied:

       1A    -15.534211     2A    -11.238012     3A    -11.237688
       4A    -11.213512     5A    -11.213230     6A    -11.210918
       7A    -11.209675     8A     -1.205319     9A     -1.057730
      10A     -1.024461    11A     -0.928024    12A     -0.872372
      13A     -0.808961    14A     -0.793936    15A     -0.666058
      16A     -0.632585    17A     -0.618489    18A     -0.593284
      19A     -0.575635    20A     -0.565672    21A     -0.548189
      22A     -0.527044    23A     -0.505784    24A     -0.488806
      25A     -0.479635    26A     -0.470434    27A     -0.466156
      28A     -0.450591    29A     -0.358166

  @DF-RHF Final Energy:  -290.37779757155226

   => Energetics <=

    Nuclear Repulsion Energy =            314.7547735393316088
    One-Electron Energy =               -1015.2759911817430520
    Two-Electron Energy =                 410.1434200708593494
    DFT Exchange-Correlation Energy =       0.0000000000000000
    Empirical Dispersion Energy =           0.0000000000000000
    PCM Polarization Energy =               0.0000000000000000
    EFP Energy =                            0.0000000000000000
    Total Energy =                       -290.3777975715520938
    Molecular point group: c1
  Basis Set: 6-31G*
  Basis Set:

  -Total Gradient:
     Atom            X                  Y                   Z
    ------   -----------------  -----------------  -----------------
       1       -0.000003377611    -0.000000319599    -0.000000062870
       2       -0.000003147506    -0.000001920965     0.000000478450
       3        0.000010695852    -0.000004912767     0.000004683448
       4        0.000000685065     0.000002077576     0.000000781338
       5        0.000000493313    -0.000001319159    -0.000001459339
       6        0.000025830400    -0.000009514436     0.000013914732
       7        0.000001980520     0.000001455151    -0.000005236706
       8       -0.000000718850    -0.000000112925     0.000002892947
       9       -0.000009196843     0.000001670943    -0.000023097818
      10       -0.000002250830     0.000004453084     0.000000351001
      11       -0.000002418527     0.000004424856     0.000001222588
      12        0.001731093786     0.002923158616     0.002655860770
      13       -0.000005950914    -0.000001264215    -0.000008489483
      14       -0.001958428321    -0.003173920978    -0.002241730719
      15       -0.001173577305    -0.001919502331    -0.001859271949
      16        0.000007953706    -0.000008200237     0.000013211209
      17        0.000017842970     0.000006339327     0.000013570164
      18        0.001362945448     0.002143249959     0.001424551409
      19       -0.000015833735     0.000014619731     0.000013616061
      20        0.000008545710     0.000016234148    -0.000002942241
      21        0.000000974010     0.000002859822     0.000009637969
      22        0.000005859661     0.000000444400    -0.000012480960

  **** Optimization is complete! (in 5 steps) ****
    Final optimized geometry and variables:
    Molecular point group: c1

    Geometry (in Angstrom), charge = 0, multiplicity = 1:

    H            3.466675751946    -0.964726347509     2.781467571562
    C            3.038620655812    -1.120637714670     1.796454392416
    C            1.776130115887    -0.281095146610     1.606228071654
    H            3.796732705005    -0.861157164984     1.062896489311
    H            2.827836878654    -2.181311326041     1.692501210322
    C            1.141590239719    -0.471548839132     0.232377650149
    H            2.002791661177     0.772084027600     1.739365214335
    H            1.051125332868    -0.541844275594     2.375585659358
    N           -0.034600290114     0.361195078571     0.077958552597
    H            1.855592994259    -0.185673632067    -0.535522827818
    H            0.924625741171    -1.533083798514     0.072533916279
    C           -0.680756160445     0.236304499404    -1.215515398673
    H           -0.694205162238     0.141937623631     0.800926854245
    C           -1.957759293927     1.092320015471    -1.300193640080
    H            0.027030481164     0.541672279956    -1.979536762658
    H           -0.926547589294    -0.805353944745    -1.447470239668
    C           -3.252304215972     0.282548937668    -1.230035270968
    H           -1.943171081890     1.687963005424    -2.208076301382
    H           -1.932053892600     1.811369934349    -0.486695377951
    H           -3.334989310336    -0.401578120804    -2.069487769648
    H           -4.122504378617     0.931411989863    -1.244464745666
    H           -3.298342964342    -0.309403183474    -0.319308572979

  Mulliken Charges: (a.u.)
   Center  Symbol    Alpha    Beta     Spin     Total
       1     H     0.41775  0.41775  0.00000  0.16450
       2     C     3.24326  3.24326  0.00000 -0.48653
       3     C     3.15527  3.15527  0.00000 -0.31053
       4     H     0.42068  0.42068  0.00000  0.15864
       5     H     0.42169  0.42169  0.00000  0.15663
       6     C     3.04799  3.04799  0.00000 -0.09598
       7     H     0.41294  0.41294  0.00000  0.17412
       8     H     0.42677  0.42677  0.00000  0.14646
       9     N     3.85611  3.85611  0.00000 -0.71222
      10     H     0.42166  0.42166  0.00000  0.15669
      11     H     0.43614  0.43614  0.00000  0.12772
      12     C     3.05192  3.05192  0.00000 -0.10385
      13     H     0.33520  0.33520  0.00000  0.32959
      14     C     3.16556  3.16556  0.00000 -0.33111
      15     H     0.41902  0.41902  0.00000  0.16197
      16     H     0.43428  0.43428  0.00000  0.13144
      17     C     3.24031  3.24031  0.00000 -0.48062
      18     H     0.41805  0.41805  0.00000  0.16390
      19     H     0.41112  0.41112  0.00000  0.17776
      20     H     0.42071  0.42071  0.00000  0.15858
      21     H     0.41884  0.41884  0.00000  0.16233
      22     H     0.42474  0.42474  0.00000  0.15052

   Total alpha = 29.00000, Total beta = 29.00000, Total charge = -0.00000
