                              Psi4 1.0.54 Driver

  ==> Input File <==

--------------------------------------------------------------------------
set {
	reference rhf
	basis cc-pvtz
}

set_num_threads( 4 )
memory 2 gb

molecule MOL {
0 1

H	 0.223516	 -1.348409	 -1.049167
C	 -0.674835	 -1.475225	 -0.449362
O	 -1.401606	 -0.295183	 -0.366624
H	 -1.303363	 -2.218544	 -0.917676
H	 -0.382672	 -1.835010	 0.535564
C	 -0.718530	 0.758693	 0.228682
C	 0.718529	 0.758687	 -0.228709
H	 -1.176498	 1.708665	 -0.046615
H	 -0.748705	 0.673525	 1.312779
O	 1.401606	 -0.295166	 0.366636
H	 0.748705	 0.673477	 -1.312803
H	 1.176496	 1.708671	 0.046552
C	 2.714315	 -0.441627	 -0.061017
H	 2.765292	 -0.641548	 -1.128869
H	 3.305661	 0.447341	 0.150952
H	 3.143725	 -1.278506	 0.470147

	symmetry c1
}
set optking {
	frozen_dihedral = ("
		2 3 6 7
	")
}

ee,wfn = optimize('scf', return_wfn=True)
oeprop( wfn, 'DIPOLE', 'QUADRUPOLE', 'MULLIKEN_CHARGES')
f=open( 'psi4out.xyz', 'w' )
f.write( "16  " )
f.write( str(ee) + "\n" )
f.write( MOL.save_string_xyz() )
f.close()
--------------------------------------------------------------------------

    Molecular point group: c1
  Charge       = 0
  Multiplicity = 1
  Basis Set: CC-PVTZ
  Basis Set:
  @DF-RHF Final Energy:  -307.07937050335852
    Total Energy =                       -307.0793705033587457
    Molecular point group: c1
  Basis Set: CC-PVTZ
  Basis Set:
  Basis Set: CC-PVTZ
  Basis Set:
  @DF-RHF Final Energy:  -307.08851901139138
    Total Energy =                       -307.0885190113914405
  Basis Set: CC-PVTZ
  Basis Set:
  Basis Set: CC-PVTZ
  Basis Set:
  @DF-RHF Final Energy:  -307.09141148497514
    Total Energy =                       -307.0914114849752536
  Basis Set: CC-PVTZ
  Basis Set:
  Basis Set: CC-PVTZ
  Basis Set:
  @DF-RHF Final Energy:  -307.09228434611555
    Total Energy =                       -307.0922843461154343
  Basis Set: CC-PVTZ
  Basis Set:
  Basis Set: CC-PVTZ
  Basis Set:
  @DF-RHF Final Energy:  -307.09265764833742
    Total Energy =                       -307.0926576483374788
  Basis Set: CC-PVTZ
  Basis Set:
  Basis Set: CC-PVTZ
  Basis Set:
  @DF-RHF Final Energy:  -307.09277818100378
    Total Energy =                       -307.0927781810039505
  Basis Set: CC-PVTZ
  Basis Set:
  Basis Set: CC-PVTZ
  Basis Set:
  @DF-RHF Final Energy:  -307.09279500306434
    Total Energy =                       -307.0927950030642819
  Basis Set: CC-PVTZ
  Basis Set:
  Charge       = 0
  Multiplicity = 1
  Basis Set: CC-PVTZ
  Basis Set:

    Orbital Energies (a.u.)
    -----------------------

    Doubly Occupied:

       1A    -20.557177     2A    -20.542438     3A    -11.273225
       4A    -11.269441     5A    -11.266859     6A    -11.253392
       7A     -1.394851     8A     -1.369524     9A     -1.029894
      10A     -0.950893    11A     -0.894688    12A     -0.815718
      13A     -0.695354    14A     -0.682828    15A     -0.658069
      16A     -0.636105    17A     -0.628356    18A     -0.596368
      19A     -0.553391    20A     -0.542646    21A     -0.519171
      22A     -0.491992    23A     -0.453681    24A     -0.426265
      25A     -0.408167

  @DF-RHF Final Energy:  -307.09279578683237

   => Energetics <=

    Nuclear Repulsion Energy =            264.9182438692353685
    One-Electron Energy =                -944.2010924154345730
    Two-Electron Energy =                 372.1900527593670631
    DFT Exchange-Correlation Energy =       0.0000000000000000
    Empirical Dispersion Energy =           0.0000000000000000
    PCM Polarization Energy =               0.0000000000000000
    EFP Energy =                            0.0000000000000000
    Total Energy =                       -307.0927957868320846
    Molecular point group: c1
  Basis Set: CC-PVTZ
  Basis Set:

  -Total Gradient:
     Atom            X                  Y                   Z
    ------   -----------------  -----------------  -----------------
       1       -0.000005695520    -0.000041584348     0.000008785263
       2        0.001288587909     0.001291037741    -0.003717889129
       3       -0.001422274825    -0.003088409994     0.006753558396
       4        0.000024262392     0.000014488545     0.000027333294
       5       -0.000027182691     0.000030277760    -0.000012378084
       6       -0.000766347081     0.004221277587    -0.005653716616
       7        0.000904980486    -0.002425327009     0.002594972411
       8       -0.000001592850    -0.000010569631    -0.000000070007
       9        0.000000765660    -0.000001926332    -0.000006396111
      10       -0.000090476168     0.000025654965     0.000026643492
      11        0.000017354014     0.000000263118     0.000004329455
      12       -0.000009271992    -0.000021562020     0.000001221313
      13        0.000156605286     0.000035987849    -0.000066948847
      14       -0.000015836499     0.000012854120     0.000070027357
      15       -0.000027520820    -0.000061254465    -0.000021961995
      16       -0.000026357304     0.000018792115    -0.000007510191

  **** Optimization is complete! (in 8 steps) ****
    Final optimized geometry and variables:
    Molecular point group: c1

    Geometry (in Angstrom), charge = 0, multiplicity = 1:

    H           -0.483108171229    -1.364557401899    -1.259899523826
    C           -1.291570033868    -1.398729177260    -0.538821685761
    O           -1.835246799461    -0.138573507569    -0.293961498107
    H           -2.089318466502    -2.004562481795    -0.944334344085
    H           -0.919687158950    -1.863006863234     0.368348247574
    C           -1.046056332239     0.836586507494     0.317322295575
    C            0.405645211362     0.922441146603    -0.112824988507
    H           -1.523754481237     1.781706387315     0.095015423248
    H           -1.059282896437     0.700529155625     1.396998624908
    O            1.161256422837    -0.075923130005     0.496173083563
    H            0.486474085902     0.859357072730    -1.197019548485
    H            0.780374082634     1.901294915112     0.183939850508
    C            2.509571337085    -0.059237320081     0.159598776061
    H            2.656257581876    -0.211787834939    -0.907245080109
    H            2.977086457320     0.882155294961     0.439379832436
    H            2.994407995904    -0.861594566026     0.695999732491

  Mulliken Charges: (a.u.)
   Center  Symbol    Alpha    Beta     Spin     Total
       1     H     0.47286  0.47286  0.00000  0.05429
       2     C     3.02798  3.02798  0.00000 -0.05595
       3     O     4.18027  4.18027  0.00000 -0.36054
       4     H     0.44725  0.44725  0.00000  0.10551
       5     H     0.46622  0.46622  0.00000  0.06757
       6     C     2.96841  2.96841  0.00000  0.06318
       7     C     2.99952  2.99952  0.00000  0.00096
       8     H     0.45544  0.45544  0.00000  0.08912
       9     H     0.46734  0.46734  0.00000  0.06532
      10     O     4.17547  4.17547  0.00000 -0.35093
      11     H     0.46243  0.46243  0.00000  0.07514
      12     H     0.45914  0.45914  0.00000  0.08173
      13     C     3.03390  3.03390  0.00000 -0.06781
      14     H     0.47003  0.47003  0.00000  0.05995
      15     H     0.46830  0.46830  0.00000  0.06340
      16     H     0.44546  0.44546  0.00000  0.10908

   Total alpha = 25.00000, Total beta = 25.00000, Total charge = -0.00000

*** Psi4 exiting successfully. Buy a developer a beer!
