  ==> Input File <==

--------------------------------------------------------------------------
set {
	reference rhf
	basis cc-pvtz
}

set_num_threads( 4 )
memory 2 gb

molecule MOL {
0 1

H	 0.023433	 1.810586	 1.869998
C	 0.869984	 1.206960	 1.516954
C	 0.692262	 0.592428	 0.156232
O	 1.828017	 1.077009	 2.197336
C	 -0.554654	 -0.292621	 0.086567
H	 1.586347	 0.033685	 -0.087191
H	 0.597066	 1.406979	 -0.558836
C	 -1.846385	 0.513195	 -0.016346
H	 -0.473986	 -0.956115	 -0.769708
H	 -0.597929	 -0.929215	 0.966651
C	 -3.089953	 -0.365049	 -0.098564
H	 -1.798267	 1.154820	 -0.891143
H	 -1.925398	 1.173265	 0.842889
H	 -3.055079	 -1.012299	 -0.968245
H	 -3.988403	 0.236438	 -0.170014
H	 -3.183055	 -0.995885	 0.779079

	symmetry c1
}
set optking {
	frozen_dihedral = ("
		6 3 5 9
	")
}

ee = optimize('scf')
oeprop('DIPOLE', 'QUADRUPOLE', 'MULLIKEN_CHARGES')
f=open( 'psi4out.xyz', 'w' )
f.write( "16  " )
f.write( str(ee) + "\n" )
f.write( MOL.save_string_xyz() )
f.close()
--------------------------------------------------------------------------

    Molecular point group: c1
  Charge       = 0
  Multiplicity = 1
  Basis Set: CC-PVTZ
  Basis Set:
  @DF-RHF Final Energy:  -270.11632033608782
    Total Energy =                       -270.1163203360879379
    Molecular point group: c1
  Basis Set: CC-PVTZ
  Basis Set:
  Basis Set: CC-PVTZ
  Basis Set:
  @DF-RHF Final Energy:  -270.11669817380744
    Total Energy =                       -270.1166981738074924
  Basis Set: CC-PVTZ
  Basis Set:
  Basis Set: CC-PVTZ
  Basis Set:
  @DF-RHF Final Energy:  -270.11675243741240
    Total Energy =                       -270.1167524374126288
  Basis Set: CC-PVTZ
  Basis Set:
  Basis Set: CC-PVTZ
  Basis Set:
  @DF-RHF Final Energy:  -270.11675683773808
    Total Energy =                       -270.1167568377379666
  Basis Set: CC-PVTZ
  Basis Set:
  @DF-RHF Final Energy:  -270.11669691920474
    Total Energy =                       -270.1166969192049123
  Basis Set: CC-PVTZ
  Basis Set:
  @DF-RHF Final Energy:  -270.11676164064698
    Total Energy =                       -270.1167616406468710
  Basis Set: CC-PVTZ
  Basis Set:
  Basis Set: CC-PVTZ
  Basis Set:
  @DF-RHF Final Energy:  -270.11676467137374
    Total Energy =                       -270.1167646713737440
  Basis Set: CC-PVTZ
  Basis Set:
  Basis Set: CC-PVTZ
  Basis Set:
  @DF-RHF Final Energy:  -270.11676612669999
    Total Energy =                       -270.1167661266997015
  Basis Set: CC-PVTZ
  Basis Set:
  Charge       = 0
  Multiplicity = 1
  Basis Set: CC-PVTZ
  Basis Set:

    Orbital Energies (a.u.)
    -----------------------

    Doubly Occupied:

       1A    -20.551319     2A    -11.320654     3A    -11.234580
       4A    -11.233873     5A    -11.229199     6A    -11.217922
       7A     -1.405983     8A     -1.097473     9A     -1.018906
      10A     -0.906229    11A     -0.827237    12A     -0.784878
      13A     -0.676261    14A     -0.658030    15A     -0.618959
      16A     -0.606612    17A     -0.583121    18A     -0.559120
      19A     -0.537089    20A     -0.513243    21A     -0.488324
      22A     -0.481873    23A     -0.475225    24A     -0.410864

  @DF-RHF Final Energy:  -270.11676617128620

   => Energetics <=

    Nuclear Repulsion Energy =            231.6458508767494209
    One-Electron Energy =                -824.6512861149763012
    Two-Electron Energy =                 322.8886690669405652
    DFT Exchange-Correlation Energy =       0.0000000000000000
    Empirical Dispersion Energy =           0.0000000000000000
    PCM Polarization Energy =               0.0000000000000000
    EFP Energy =                            0.0000000000000000
    Total Energy =                       -270.1167661712863719
    Molecular point group: c1
  Basis Set: CC-PVTZ
  Basis Set:

  -Total Gradient:
     Atom            X                  Y                   Z
    ------   -----------------  -----------------  -----------------
       1       -0.000004427670    -0.000000156314     0.000000904877
       2        0.000016243421     0.000006182338    -0.000003166681
       3        0.000175514585    -0.000372289866     0.001084698346
       4       -0.000007473917    -0.000000989087    -0.000001561264
       5       -0.000423487601     0.000713230329    -0.000765251352
       6       -0.000080759155     0.000195231504    -0.000777966526
       7       -0.000000394797     0.000000859134     0.000000169346
       8       -0.000006018266    -0.000000795639     0.000019785386
       9        0.000344896427    -0.000551102815     0.000452772442
      10       -0.000003065949     0.000007832652    -0.000005797092
      11       -0.000004914169     0.000003543244    -0.000005573833
      12       -0.000002083636    -0.000008084164     0.000001018767
      13       -0.000003346258     0.000002708332     0.000001632481
      14        0.000001779533    -0.000001204602     0.000002367539
      15       -0.000005087974     0.000000805024    -0.000001342346
      16        0.000002625427     0.000004229932    -0.000002690091

  **** Optimization is complete! (in 9 steps) ****
    Final optimized geometry and variables:
    Molecular point group: c1

    Geometry (in Angstrom), charge = 0, multiplicity = 1:

    H            0.413974901053     1.317736668139     1.291638004698
    C            1.257804740943     0.749324663023     0.883825446390
    C            1.041294575703     0.124602276379    -0.468034888377
    O            2.260287413033     0.660575975391     1.505484034430
    C           -0.229186567770    -0.734434151885    -0.548408368502
    H            1.920504382774    -0.458614753452    -0.705394310685
    H            0.978293845248     0.932080114730    -1.194729367265
    C           -1.530826599762     0.057053364646    -0.664218450451
    H           -0.136903011656    -1.389567267915    -1.407909684064
    H           -0.275884523656    -1.389286423758     0.317914995957
    C           -2.758752089754    -0.842441261259    -0.756498735083
    H           -1.481581438569     0.692269500184    -1.544162874425
    H           -1.642455482848     0.723098832501     0.185647627888
    H           -2.698019077739    -1.498867016256    -1.617927096966
    H           -3.665907507359    -0.257229265918    -0.849426493085
    H           -2.855241492009    -1.464878074247     0.126518754742

  Mulliken Charges: (a.u.)
   Center  Symbol    Alpha    Beta     Spin     Total
       1     H     0.46378  0.46378  0.00000  0.07244
       2     C     2.90239  2.90239  0.00000  0.19521
       3     C     3.08853  3.08853  0.00000 -0.17706
       4     O     4.16588  4.16588  0.00000 -0.33177
       5     C     3.10751  3.10751  0.00000 -0.21503
       6     H     0.43633  0.43633  0.00000  0.12734
       7     H     0.45067  0.45067  0.00000  0.09866
       8     C     3.08689  3.08689  0.00000 -0.17378
       9     H     0.44363  0.44363  0.00000  0.11274
      10     H     0.44711  0.44711  0.00000  0.10579
      11     C     3.14870  3.14870  0.00000 -0.29741
      12     H     0.45243  0.45243  0.00000  0.09514
      13     H     0.45323  0.45323  0.00000  0.09354
      14     H     0.45334  0.45334  0.00000  0.09332
      15     H     0.44652  0.44652  0.00000  0.10695
      16     H     0.45305  0.45305  0.00000  0.09389

   Total alpha = 24.00000, Total beta = 24.00000, Total charge =  0.00000
