  ==> Input File <==

--------------------------------------------------------------------------
set {
	reference rhf
	basis cc-pvtz
}

set_num_threads( 4 )
memory 2 gb

molecule MOL {
0 1

H	 -1.088256	 -1.364742	 0.152233
O	 -1.432053	 -0.565244	 -0.200812
C	 -0.727158	 0.534527	 0.310686
C	 0.680222	 0.664433	 -0.252229
H	 -1.306802	 1.408001	 0.044211
H	 -0.690821	 0.490158	 1.397609
C	 0.913400	 1.947279	 -1.044682
H	 1.388006	 0.606521	 0.568088
H	 0.865658	 -0.194024	 -0.892006
H	 0.795846	 2.827174	 -0.421713
H	 1.917276	 1.975524	 -1.450869
H	 0.219534	 2.027929	 -1.875947

	symmetry c1
}
set optking {
	frozen_dihedral = ("
		8 4 3 2
	")
}

ee = optimize('scf')
oeprop('DIPOLE', 'QUADRUPOLE', 'MULLIKEN_CHARGES')
f=open( 'psi4out.xyz', 'w' )
f.write( "12  " )
f.write( str(ee) + "\n" )
f.write( MOL.save_string_xyz() )
f.close()
--------------------------------------------------------------------------

    Molecular point group: c1
  Charge       = 0
  Multiplicity = 1
  Basis Set: CC-PVTZ
  Basis Set:
  @DF-RHF Final Energy:  -193.18437097950857
    Total Energy =                       -193.1843709795085999
    Molecular point group: c1
  Basis Set: CC-PVTZ
  Basis Set:
  Basis Set: CC-PVTZ
  Basis Set:
  @DF-RHF Final Energy:  -193.18472647987483
    Total Energy =                       -193.1847264798747119
  Basis Set: CC-PVTZ
  Basis Set:
  Basis Set: CC-PVTZ
  Basis Set:
  @DF-RHF Final Energy:  -193.18479684877050
    Total Energy =                       -193.1847968487705316
  Basis Set: CC-PVTZ
  Basis Set:
  Basis Set: CC-PVTZ
  Basis Set:
  @DF-RHF Final Energy:  -193.18479979270899
    Total Energy =                       -193.1847997927090717
  Basis Set: CC-PVTZ
  Basis Set:
  Charge       = 0
  Multiplicity = 1
  Basis Set: CC-PVTZ
  Basis Set:

    Orbital Energies (a.u.)
    -----------------------

    Doubly Occupied:

       1A    -20.545566     2A    -11.265808     3A    -11.216894
       4A    -11.211370     5A     -1.363213     6A     -1.049668
       7A     -0.918505     8A     -0.820089     9A     -0.689039
      10A     -0.628255    11A     -0.619065    12A     -0.579344
      13A     -0.534798    14A     -0.518059    15A     -0.488702
      16A     -0.465382    17A     -0.430268

  @DF-RHF Final Energy:  -193.18480045059823

   => Energetics <=

    Nuclear Repulsion Energy =            131.2027187060473352
    One-Electron Energy =                -522.0869909999621541
    Two-Electron Energy =                 197.6994718433166440
    DFT Exchange-Correlation Energy =       0.0000000000000000
    Empirical Dispersion Energy =           0.0000000000000000
    PCM Polarization Energy =               0.0000000000000000
    EFP Energy =                            0.0000000000000000
    Total Energy =                       -193.1848004505981748
    Molecular point group: c1
  Basis Set: CC-PVTZ
  Basis Set:

  -Total Gradient:
     Atom            X                  Y                   Z
    ------   -----------------  -----------------  -----------------
       1        0.000017612850     0.000005942308     0.000011132215
       2       -0.000014988815     0.000036773297     0.000035474874
       3        0.000014899239     0.000022668305     0.000016641181
       4        0.000017884809     0.000024103345    -0.000049617785
       5        0.000017537197    -0.000036617444    -0.000025833420
       6       -0.000016350036    -0.000043864509    -0.000002288872
       7        0.000038592867     0.000005291526    -0.000003109823
       8       -0.000040365240    -0.000002873647     0.000011953176
       9       -0.000020375061     0.000001985681    -0.000004263239
      10       -0.000004461952    -0.000015905287     0.000009398803
      11       -0.000010985631     0.000019450914     0.000006150174
      12        0.000000999769    -0.000016954488    -0.000005637285

  **** Optimization is complete! (in 5 steps) ****
    Final optimized geometry and variables:
    Molecular point group: c1

    Geometry (in Angstrom), charge = 0, multiplicity = 1:

    H           -0.877786567874    -1.966013171022     0.388697735850
    O           -1.276414277780    -1.163630255948     0.105102530309
    C           -0.557660281422    -0.068218069717     0.609086085778
    C            0.865044284877     0.048648400984     0.034411473351
    H           -1.140290798002     0.803246583706     0.343738057209
    H           -0.526705503505    -0.111648816539     1.694086849360
    C            1.095891540728     1.328876809996    -0.763041166920
    H            1.594803494900    -0.009924311866     0.835491993463
    H            1.038726638879    -0.807744346723    -0.607598153786
    H            0.944214759740     2.207549618703    -0.144764042291
    H            2.105958956230     1.371484214442    -1.153552406888
    H            0.410138378399     1.391010991503    -1.600768201735

  Mulliken Charges: (a.u.)
   Center  Symbol    Alpha    Beta     Spin     Total
       1     H     0.39467  0.39467  0.00000  0.21066
       2     O     4.20202  4.20202  0.00000 -0.40404
       3     C     2.96856  2.96856  0.00000  0.06288
       4     C     3.09095  3.09095  0.00000 -0.18190
       5     H     0.45872  0.45872  0.00000  0.08256
       6     H     0.46864  0.46864  0.00000  0.06272
       7     C     3.15112  3.15112  0.00000 -0.30223
       8     H     0.45472  0.45472  0.00000  0.09057
       9     H     0.45453  0.45453  0.00000  0.09094
      10     H     0.45547  0.45547  0.00000  0.08907
      11     H     0.44992  0.44992  0.00000  0.10015
      12     H     0.45068  0.45068  0.00000  0.09864

   Total alpha = 17.00000, Total beta = 17.00000, Total charge =  0.00000
