                              Psi4 1.0.54 Driver

  ==> Input File <==

--------------------------------------------------------------------------
set {
	reference rhf
	basis cc-pvtz
}

set_num_threads( 4 )
memory 2 gb

molecule MOL {
0 1

O	 2.868453	 1.353349	 -0.000734
C	 2.841259	 0.166180	 -0.000295
C	 1.542794	 -0.614730	 -0.000853
C	 4.113372	 -0.651103	 0.000743
C	 0.288398	 0.247429	 0.000314
H	 1.557171	 -1.273139	 -0.866508
H	 1.557484	 -1.274998	 0.863344
C	 -0.993089	 -0.581367	 -0.000217
H	 0.305153	 0.900562	 -0.864701
H	 0.305567	 0.898805	 0.866656
C	 -2.258482	 0.271340	 0.000669
H	 -1.002280	 -1.233920	 -0.870484
H	 -1.002061	 -1.235367	 0.868958
C	 -2.684419	 0.727424	 -1.391919
H	 -2.102547	 1.143317	 0.631108
H	 -3.069334	 -0.291129	 0.457041
C	 -3.949510	 1.579040	 -1.382881
H	 -1.874958	 1.290753	 -1.848397
H	 -2.841751	 -0.143572	 -2.022421
H	 -3.812943	 2.476154	 -0.788258
H	 -4.224039	 1.885915	 -2.385619
H	 -4.786923	 1.031160	 -0.963820
H	 4.145311	 -1.294584	 -0.871587
H	 4.970080	 0.004978	 -0.000091
H	 4.145223	 -1.291980	 0.874988

	symmetry c1
}
set optking {
	frozen_dihedral = ("
		15 11 8 12
	")
}

ee,wfn = optimize('scf', return_wfn=True)
oeprop( wfn, 'DIPOLE', 'QUADRUPOLE', 'MULLIKEN_CHARGES')
f=open( 'psi4out.xyz', 'w' )
f.write( "25  " )
f.write( str(ee) + "\n" )
f.write( MOL.save_string_xyz() )
f.close()
--------------------------------------------------------------------------

    Molecular point group: c1
  Charge       = 0
  Multiplicity = 1
  Basis Set: CC-PVTZ
  Basis Set:
  @DF-RHF Final Energy:  -387.27194615633022
    Total Energy =                       -387.2719461563303867
    Molecular point group: c1
  Basis Set: CC-PVTZ
  Basis Set:
  Basis Set: CC-PVTZ
  Basis Set:
  @DF-RHF Final Energy:  -387.27208719255202
    Total Energy =                       -387.2720871925524762
  Basis Set: CC-PVTZ
  Basis Set:
  Basis Set: CC-PVTZ
  Basis Set:
  @DF-RHF Final Energy:  -387.27212206219508
    Total Energy =                       -387.2721220621950806
  Basis Set: CC-PVTZ
  Basis Set:
  Basis Set: CC-PVTZ
  Basis Set:
  @DF-RHF Final Energy:  -387.27186602437899
    Total Energy =                       -387.2718660243795057
  Basis Set: CC-PVTZ
  Basis Set:
  Basis Set: CC-PVTZ
  Basis Set:
  @DF-RHF Final Energy:  -387.27213259943420
    Total Energy =                       -387.2721325994339168
  Basis Set: CC-PVTZ
  Basis Set:
  Charge       = 0
  Multiplicity = 1
  Basis Set: CC-PVTZ
  Basis Set:

    Orbital Energies (a.u.)
    -----------------------

    Doubly Occupied:

       1A    -20.538988     2A    -11.320618     3A    -11.230097
       4A    -11.226656     5A    -11.215270     6A    -11.214532
       7A    -11.212529     8A    -11.211576     9A    -11.205562
      10A     -1.398995    11A     -1.094875    12A     -1.056330
      13A     -1.014586    14A     -0.969607    15A     -0.890293
      16A     -0.824672    17A     -0.782757    18A     -0.731859
      19A     -0.655025    20A     -0.652920    21A     -0.638814
      22A     -0.620770    23A     -0.605635    24A     -0.581425
      25A     -0.567155    26A     -0.563709    27A     -0.546722
      28A     -0.525154    29A     -0.504842    30A     -0.496103
      31A     -0.489906    32A     -0.479598    33A     -0.463313
      34A     -0.457652    35A     -0.448506    36A     -0.401838

  @DF-RHF Final Energy:  -387.27213327587225

   => Energetics <=

    Nuclear Repulsion Energy =            444.4338057661090602
    One-Electron Energy =               -1405.7341006800493233
    Two-Electron Energy =                 574.0281616380677860
    DFT Exchange-Correlation Energy =       0.0000000000000000
    Empirical Dispersion Energy =           0.0000000000000000
    PCM Polarization Energy =               0.0000000000000000
    EFP Energy =                            0.0000000000000000
    Total Energy =                       -387.2721332758724202
    Molecular point group: c1
  Basis Set: CC-PVTZ
  Basis Set:

  -Total Gradient:
     Atom            X                  Y                   Z
    ------   -----------------  -----------------  -----------------
       1       -0.000059198026     0.000045844954     0.000009198672
       2       -0.000007644687    -0.000024572997    -0.000033894402
       3        0.000005310968     0.000006054168    -0.000030680155
       4        0.000004008915    -0.000038223094     0.000025380170
       5       -0.000018776349     0.000033007804     0.000051831856
       6        0.000014711038     0.000003826160     0.000017688446
       7        0.000013926076     0.000012580146     0.000005342439
       8       -0.001156934850    -0.001734319591     0.001097185404
       9       -0.000004857031     0.000005024155    -0.000001749577
      10        0.000011823859     0.000002442095    -0.000005390439
      11       -0.000739942175    -0.001032552781     0.001987820536
      12        0.001079848892     0.001626773984    -0.001256484093
      13       -0.000017408972     0.000032452996     0.000001128897
      14       -0.000002814102    -0.000060774823    -0.000012710925
      15        0.000824993376     0.001158184652    -0.001834694078
      16        0.000031363429    -0.000013874351    -0.000022286664
      17        0.000015631673     0.000021806838     0.000029308332
      18       -0.000010643629    -0.000006824174    -0.000000196100
      19        0.000000153423    -0.000002167134    -0.000008122001
      20       -0.000012854777    -0.000009485475     0.000006727996
      21        0.000014055715     0.000003479559    -0.000000081703
      22        0.000005065657     0.000002336119    -0.000012716358
      23        0.000011862533    -0.000009005353    -0.000014877334
      24       -0.000019464291     0.000005595978    -0.000002089945
      25        0.000017783332    -0.000027609833     0.000004361025

  **** Optimization is complete! (in 6 steps) ****
    Final optimized geometry and variables:
    Molecular point group: c1

    Geometry (in Angstrom), charge = 0, multiplicity = 1:

    O            2.677492149516     1.061317155246     0.303937910576
    C            2.647540575421    -0.125796944484     0.300473833457
    C            1.347224059421    -0.903583144890     0.307344625472
    C            3.917652549484    -0.946310550441     0.288001956517
    C            0.095350779533    -0.038148095956     0.331940488647
    H            1.350478735951    -1.552546495889    -0.565510558320
    H            1.369986973748    -1.573327514523     1.164093232510
    C           -1.188200684195    -0.868267227320     0.346482435220
    H            0.107817180149     0.623351515939    -0.525692820741
    H            0.124503702130     0.603556337533     1.205090708214
    C           -2.465367157677    -0.020942397479     0.323654359481
    H           -1.185589330155    -1.533203734701    -0.514083091761
    H           -1.187704691573    -1.500619810578     1.229343263439
    C           -2.883541481588     0.430229775971    -1.075727805238
    H           -2.320979271399     0.860965534485     0.942389236886
    H           -3.282402753616    -0.582848815165     0.765604290179
    C           -4.129525777630     1.309562643339    -1.069246190040
    H           -2.068653932384     0.970882457568    -1.547069663560
    H           -3.065252231618    -0.446189560114    -1.691980511715
    H           -3.967432246928     2.213504801131    -0.491749435312
    H           -4.406941188374     1.605298442071    -2.074527097936
    H           -4.974795654586     0.787436793663    -0.632971560028
    H            3.939581605144    -1.588486619510    -0.585614825698
    H            4.775990509498    -0.292368460044     0.279895930589
    H            3.956324668746    -1.588589096621     1.160962834130

  Mulliken Charges: (a.u.)
   Center  Symbol    Alpha    Beta     Spin     Total
       1     O     4.17079  4.17079  0.00000 -0.34157
       2     C     2.86192  2.86192  0.00000  0.27615
       3     C     3.11511  3.11511  0.00000 -0.23022
       4     C     3.15111  3.15111  0.00000 -0.30223
       5     C     3.08241  3.08241  0.00000 -0.16483
       6     H     0.44502  0.44502  0.00000  0.10997
       7     H     0.44492  0.44492  0.00000  0.11016
       8     C     3.10047  3.10047  0.00000 -0.20093
       9     H     0.44510  0.44510  0.00000  0.10980
      10     H     0.44626  0.44626  0.00000  0.10747
      11     C     3.09585  3.09585  0.00000 -0.19170
      12     H     0.45639  0.45639  0.00000  0.08722
      13     H     0.44775  0.44775  0.00000  0.10449
      14     C     3.08188  3.08188  0.00000 -0.16375
      15     H     0.45400  0.45400  0.00000  0.09199
      16     H     0.44749  0.44749  0.00000  0.10501
      17     C     3.15058  3.15058  0.00000 -0.30116
      18     H     0.45335  0.45335  0.00000  0.09329
      19     H     0.45573  0.45573  0.00000  0.08854
      20     H     0.45392  0.45392  0.00000  0.09216
      21     H     0.44847  0.44847  0.00000  0.10307
      22     H     0.45534  0.45534  0.00000  0.08932
      23     H     0.45045  0.45045  0.00000  0.09910
      24     H     0.43537  0.43537  0.00000  0.12925
      25     H     0.45031  0.45031  0.00000  0.09938

   Total alpha = 36.00000, Total beta = 36.00000, Total charge =  0.00000

*** Psi4 exiting successfully. Buy a developer a beer!
