  ==> Input File <==

--------------------------------------------------------------------------
set {
	reference rhf
	basis cc-pvtz
}

set_num_threads( 4 )
memory 2 gb

molecule MOL {
0 1

H	 -2.362939	 -1.309000	 -0.383250
C	 -1.359344	 -1.272457	 0.020748
C	 -0.684082	 0.000127	 -0.464918
H	 -0.825835	 -2.151141	 -0.318537
H	 -1.416276	 -1.292399	 1.099455
C	 -1.359089	 1.272668	 0.021259
N	 0.742439	 -0.000109	 0.007333
H	 -0.596914	 0.000345	 -1.538146
H	 -2.362696	 1.309620	 -0.382686
H	 -0.825392	 2.151374	 -0.317674
H	 -1.415983	 1.292181	 1.099973
O	 1.372357	 0.988732	 -0.163082
O	 1.148177	 -0.989071	 0.520773

	symmetry c1
}
set optking {
	frozen_dihedral = ("
		12 7 3 8
	")
}

ee = optimize('scf')
oeprop('DIPOLE', 'QUADRUPOLE', 'MULLIKEN_CHARGES')
f=open( 'psi4out.xyz', 'w' )
f.write( "13  " )
f.write( str(ee) + "\n" )
f.write( MOL.save_string_xyz() )
f.close()
--------------------------------------------------------------------------

    Molecular point group: c1
  Charge       = 0
  Multiplicity = 1
  Basis Set: CC-PVTZ
  Basis Set:
  @DF-RHF Final Energy:  -321.86165447976686
    Total Energy =                       -321.8616544797665711
    Molecular point group: c1
  Basis Set: CC-PVTZ
  Basis Set:
  Basis Set: CC-PVTZ
  Basis Set:
  @DF-RHF Final Energy:  -321.86147297300670
    Total Energy =                       -321.8614729730065278
  Basis Set: CC-PVTZ
  Basis Set:
  Basis Set: CC-PVTZ
  Basis Set:
  @DF-RHF Final Energy:  -321.85872415382897
    Total Energy =                       -321.8587241538287458
  Basis Set: CC-PVTZ
  Basis Set:
  Basis Set: CC-PVTZ
  Basis Set:
  @DF-RHF Final Energy:  -321.86236546736706
    Total Energy =                       -321.8623654673669421
  Basis Set: CC-PVTZ
  Basis Set:
  Basis Set: CC-PVTZ
  Basis Set:
  @DF-RHF Final Energy:  -321.86245058644289
    Total Energy =                       -321.8624505864430603
  Basis Set: CC-PVTZ
  Basis Set:
  Basis Set: CC-PVTZ
  Basis Set:
  @DF-RHF Final Energy:  -321.86253992318706
    Total Energy =                       -321.8625399231868869
  Basis Set: CC-PVTZ
  Basis Set:
  Basis Set: CC-PVTZ
  Basis Set:
  @DF-RHF Final Energy:  -321.86254354765197
    Total Energy =                       -321.8625435476520806
  Basis Set: CC-PVTZ
  Basis Set:
  Charge       = 0
  Multiplicity = 1
  Basis Set: CC-PVTZ
  Basis Set:

    Orbital Energies (a.u.)
    -----------------------

    Doubly Occupied:

       1A    -20.590994     2A    -20.586057     3A    -15.833849
       4A    -11.306671     5A    -11.240597     6A    -11.237270
       7A     -1.634466     8A     -1.418227     9A     -1.139995
      10A     -0.968298    11A     -0.958188    12A     -0.815045
      13A     -0.764063    14A     -0.730147    15A     -0.723458
      16A     -0.641071    17A     -0.594873    18A     -0.586982
      19A     -0.570325    20A     -0.523232    21A     -0.521422
      22A     -0.483770    23A     -0.472437    24A     -0.451867

  @DF-RHF Final Energy:  -321.86254408404812

   => Energetics <=

    Nuclear Repulsion Energy =            257.2691644435359990
    One-Electron Energy =                -948.6768098641221059
    Two-Electron Energy =                 369.5451013365380959
    DFT Exchange-Correlation Energy =       0.0000000000000000
    Empirical Dispersion Energy =           0.0000000000000000
    PCM Polarization Energy =               0.0000000000000000
    EFP Energy =                            0.0000000000000000
    Total Energy =                       -321.8625440840479541
    Molecular point group: c1
  Basis Set: CC-PVTZ
  Basis Set:

  -Total Gradient:
     Atom            X                  Y                   Z
    ------   -----------------  -----------------  -----------------
       1        0.000001133044    -0.000002886649     0.000001698068
       2        0.000002369851     0.000003640017    -0.000012103800
       3       -0.000140382489     0.001589130542     0.000396223334
       4       -0.000004679015     0.000001580109     0.000001904386
       5        0.000000113761     0.000001652732    -0.000000991623
       6       -0.000021741176     0.000009047875    -0.000005839957
       7        0.000536177431    -0.000740743469    -0.001497337028
       8        0.000012719655    -0.001245359063     0.000009644061
       9       -0.000011700082     0.000008272717     0.000001474804
      10       -0.000001948520    -0.000004523097    -0.000000703583
      11        0.000001951564    -0.000002269562    -0.000003823877
      12       -0.000378642413     0.000418191358     0.001100673023
      13        0.000004628393    -0.000035733511     0.000009182193

  **** Optimization is complete! (in 8 steps) ****
    Final optimized geometry and variables:
    Molecular point group: c1

    Geometry (in Angstrom), charge = 0, multiplicity = 1:

    H           -2.396865849916    -1.265644556791    -0.390715136827
    C           -1.391289021044    -1.277851934432     0.011010012914
    C           -0.685969026594    -0.014757093183    -0.444328620415
    H           -0.889561727718    -2.165365194290    -0.341356439825
    H           -1.453242534236    -1.325447344536     1.089770239985
    C           -1.372442274660     1.262786941273     0.014064903928
    N            0.753129994038     0.000949109750     0.018404453472
    H           -0.585089377271    -0.016215133694    -1.521576836762
    H           -2.387457226111     1.263070459617    -0.361267809330
    H           -0.863752730692     2.138729839289    -0.354118053522
    H           -1.411797394037     1.309541029966     1.095746331646
    O            1.360175156874     1.002878239233    -0.166284446729
    O            1.197899783497    -0.977471076494     0.514080881222

  Mulliken Charges: (a.u.)
   Center  Symbol    Alpha    Beta     Spin     Total
       1     H     0.45046  0.45046  0.00000  0.09907
       2     C     3.14237  3.14237  0.00000 -0.28473
       3     C     3.00663  3.00663  0.00000 -0.01325
       4     H     0.43498  0.43498  0.00000  0.13004
       5     H     0.44404  0.44404  0.00000  0.11191
       6     C     3.14424  3.14424  0.00000 -0.28847
       7     N     3.27534  3.27534  0.00000  0.44931
       8     H     0.43028  0.43028  0.00000  0.13943
       9     H     0.45019  0.45019  0.00000  0.09962
      10     H     0.43053  0.43053  0.00000  0.13894
      11     H     0.44659  0.44659  0.00000  0.10682
      12     O     4.17491  4.17491  0.00000 -0.34981
      13     O     4.16944  4.16944  0.00000 -0.33889

   Total alpha = 24.00000, Total beta = 24.00000, Total charge =  0.00000
