  ==> Input File <==

--------------------------------------------------------------------------
set {
	reference rhf
	basis cc-pvtz
}

set_num_threads( 4 )
memory 2 gb

molecule MOL {
0 1

O	 -0.097455	 0.544315	 0.960811
C	 0.485107	 0.171416	 -0.000134
C	 1.606966	 -0.836201	 0.000174
O	 0.221947	 0.598745	 -1.222722
C	 2.988788	 -0.202529	 -0.000115
H	 1.465110	 -1.474645	 -0.864821
H	 1.465209	 -1.474077	 0.865596
H	 3.131767	 0.419673	 -0.873407
H	 3.750876	 -0.972315	 0.000098
H	 3.131883	 0.420264	 0.872742
C	 -0.816178	 1.555505	 -1.381452
C	 -0.921481	 1.882728	 -2.852616
H	 -0.580329	 2.432751	 -0.795652
H	 -1.738976	 1.141848	 -0.999803
H	 0.008370	 2.295107	 -3.223686
H	 -1.706941	 2.612580	 -3.009466
H	 -1.156937	 0.996890	 -3.429003

	symmetry c1
}
set optking {
	frozen_dihedral = ("
		4 2 3 6
	")
}

ee = optimize('scf')
oeprop('DIPOLE', 'QUADRUPOLE', 'MULLIKEN_CHARGES')
f=open( 'psi4out.xyz', 'w' )
f.write( "17  " )
f.write( str(ee) + "\n" )
f.write( MOL.save_string_xyz() )
f.close()
--------------------------------------------------------------------------

    Molecular point group: c1
  Charge       = 0
  Multiplicity = 1
  Basis Set: CC-PVTZ
  Basis Set:
  @DF-RHF Final Energy:  -345.03847748982776
    Total Energy =                       -345.0384774898280398
    Molecular point group: c1
  Basis Set: CC-PVTZ
  Basis Set:
  Basis Set: CC-PVTZ
  Basis Set:
  @DF-RHF Final Energy:  -345.03883897103981
    Total Energy =                       -345.0388389710395813
  Basis Set: CC-PVTZ
  Basis Set:
  Basis Set: CC-PVTZ
  Basis Set:
  @DF-RHF Final Energy:  -345.03802202040958
    Total Energy =                       -345.0380220204094712
  Basis Set: CC-PVTZ
  Basis Set:
  Basis Set: CC-PVTZ
  Basis Set:
  @DF-RHF Final Energy:  -345.03910518337676
    Total Energy =                       -345.0391051833765914
  Basis Set: CC-PVTZ
  Basis Set:
  Basis Set: CC-PVTZ
  Basis Set:
  @DF-RHF Final Energy:  -345.03911016009903
    Total Energy =                       -345.0391101600991988
  Basis Set: CC-PVTZ
  Basis Set:
  Charge       = 0
  Multiplicity = 1
  Basis Set: CC-PVTZ
  Basis Set:

    Orbital Energies (a.u.)
    -----------------------

    Doubly Occupied:

       1A    -20.594497     2A    -20.531139     3A    -11.362504
       4A    -11.282615     5A    -11.234522     6A    -11.224731
       7A    -11.220621     8A     -1.470151     9A     -1.363626
      10A     -1.073616    11A     -1.032056    12A     -0.908976
      13A     -0.855345    14A     -0.779389    15A     -0.696322
      16A     -0.684714    17A     -0.671210    18A     -0.617482
      19A     -0.600639    20A     -0.575510    21A     -0.554173
      22A     -0.541307    23A     -0.527206    24A     -0.507808
      25A     -0.505649    26A     -0.498233    27A     -0.455067
      28A     -0.434614

  @DF-RHF Final Energy:  -345.03911031133367

   => Energetics <=

    Nuclear Repulsion Energy =            317.1322306954686496
    One-Electron Energy =               -1098.7352358563884991
    Two-Electron Energy =                 436.5638948495859495
    DFT Exchange-Correlation Energy =       0.0000000000000000
    Empirical Dispersion Energy =           0.0000000000000000
    PCM Polarization Energy =               0.0000000000000000
    EFP Energy =                            0.0000000000000000
    Total Energy =                       -345.0391103113338431
    Molecular point group: c1
  Basis Set: CC-PVTZ
  Basis Set:

  -Total Gradient:
     Atom            X                  Y                   Z
    ------   -----------------  -----------------  -----------------
       1        0.000027355674    -0.000010580170    -0.000041758976
       2        0.000183105849     0.000208233891     0.000083998718
       3       -0.000178878958    -0.000217776321     0.000144799716
       4       -0.000117901127    -0.000075141511    -0.000061131968
       5       -0.000023301431    -0.000004429324    -0.000006609826
       6        0.000127698956     0.000139131534    -0.000107360784
       7        0.000003264088    -0.000001299577    -0.000002768937
       8        0.000004379489     0.000006802980    -0.000006866410
       9       -0.000002935816    -0.000005349701     0.000002167812
      10       -0.000001516929    -0.000002485761     0.000001636931
      11       -0.000060975166    -0.000088308009    -0.000011071067
      12        0.000019594796     0.000024390450     0.000002985935
      13        0.000018685876     0.000002169100     0.000001507501
      14       -0.000004583526     0.000021913592     0.000000652953
      15        0.000002695090     0.000003139918    -0.000013647878
      16        0.000002959194     0.000000764712     0.000001479705
      17        0.000000353938    -0.000001175803     0.000011986581

  **** Optimization is complete! (in 6 steps) ****
    Final optimized geometry and variables:
    Molecular point group: c1

    Geometry (in Angstrom), charge = 0, multiplicity = 1:

    O           -0.590545124058    -0.024293585898     1.610598979685
    C           -0.014080765701    -0.400455959750     0.646576949630
    C            1.110593884847    -1.403278143309     0.662045708889
    O           -0.272023164633     0.038537169114    -0.573108309262
    C            2.473554276581    -0.706343393518     0.632492286722
    H            1.012067692386    -2.055688643869    -0.195536076674
    H            1.007867713295    -1.989418844678     1.563491709509
    H            2.591523127765    -0.118895828115    -0.269196056807
    H            3.267812028370    -1.441223985630     0.662066814966
    H            2.590015099091    -0.050690129712     1.486603775032
    C           -1.283530273615     1.025120252687    -0.721914835220
    C           -1.387268626488     1.363041095928    -2.190773045069
    H           -1.019965578999     1.892084295649    -0.132585850530
    H           -2.215264926591     0.635315524197    -0.337248077632
    H           -0.448511635607     1.751788051005    -2.565058549054
    H           -2.153068075004     2.115127872928    -2.339464659617
    H           -1.650326670862     0.487180373825    -2.770450365880

  Mulliken Charges: (a.u.)
   Center  Symbol    Alpha    Beta     Spin     Total
       1     O     4.20192  4.20192  0.00000 -0.40384
       2     C     2.80385  2.80385  0.00000  0.39231
       3     C     3.08325  3.08325  0.00000 -0.16650
       4     O     4.15479  4.15479  0.00000 -0.30958
       5     C     3.15152  3.15152  0.00000 -0.30303
       6     H     0.44601  0.44601  0.00000  0.10798
       7     H     0.43861  0.43861  0.00000  0.12278
       8     H     0.44869  0.44869  0.00000  0.10261
       9     H     0.44757  0.44757  0.00000  0.10486
      10     H     0.44656  0.44656  0.00000  0.10687
      11     C     2.97952  2.97952  0.00000  0.04096
      12     C     3.13328  3.13328  0.00000 -0.26655
      13     H     0.45445  0.45445  0.00000  0.09111
      14     H     0.45276  0.45276  0.00000  0.09448
      15     H     0.45163  0.45163  0.00000  0.09674
      16     H     0.45426  0.45426  0.00000  0.09147
      17     H     0.45134  0.45134  0.00000  0.09733

   Total alpha = 28.00000, Total beta = 28.00000, Total charge = -0.00000
