                              Psi4 1.0.54 Driver

  ==> Input File <==

--------------------------------------------------------------------------
set {
	reference rhf
	basis cc-pvtz
}

set_num_threads( 4 )
memory 2 gb

molecule MOL {
0 1

H	 -2.431764	 -3.042518	 -1.468846
O	 -2.432990	 -2.173134	 -1.113366
C	 -1.132581	 -1.802681	 -0.739044
C	 -1.175688	 -0.398187	 -0.171891
H	 -0.740216	 -2.491382	 0.006285
H	 -0.465448	 -1.834920	 -1.597953
C	 0.196029	 0.106276	 0.266738
H	 -1.862508	 -0.387883	 0.668580
H	 -1.593722	 0.263481	 -0.923795
C	 1.330220	 -0.826136	 -0.155230
H	 0.359542	 1.097229	 -0.145561
H	 0.212134	 0.218135	 1.348778
C	 2.719700	 -0.407669	 0.328325
H	 1.339388	 -0.911200	 -1.239363
H	 1.119001	 -1.821953	 0.224128
C	 3.241564	 0.893452	 -0.276737
H	 3.418299	 -1.204729	 0.093035
H	 2.711776	 -0.323368	 1.411960
H	 3.254204	 0.841071	 -1.360784
H	 2.634460	 1.745075	 0.005842
H	 4.254264	 1.092401	 0.054971

	symmetry c1
}
set optking {
	frozen_dihedral = ("
		8 4 7 10
	")
}

ee,wfn = optimize('scf', return_wfn=True)
oeprop( wfn, 'DIPOLE', 'QUADRUPOLE', 'MULLIKEN_CHARGES')
f=open( 'psi4out.xyz', 'w' )
f.write( "21  " )
f.write( str(ee) + "\n" )
f.write( MOL.save_string_xyz() )
f.close()
--------------------------------------------------------------------------

    Molecular point group: c1
  Charge       = 0
  Multiplicity = 1
  Basis Set: CC-PVTZ
  Basis Set:
  @DF-RHF Final Energy:  -310.31821059483707
    Total Energy =                       -310.3182105948371259
    Molecular point group: c1
  Basis Set: CC-PVTZ
  Basis Set:
  Basis Set: CC-PVTZ
  Basis Set:
  @DF-RHF Final Energy:  -310.30999749161265
    Total Energy =                       -310.3099974916133306
  Basis Set: CC-PVTZ
  Basis Set:
  Basis Set: CC-PVTZ
  Basis Set:
  @DF-RHF Final Energy:  -310.32212526082304
    Total Energy =                       -310.3221252608229861
  Basis Set: CC-PVTZ
  Basis Set:
  Basis Set: CC-PVTZ
  Basis Set:
  @DF-RHF Final Energy:  -310.32302350231964
    Total Energy =                       -310.3230235023196428
  Basis Set: CC-PVTZ
  Basis Set:
  Basis Set: CC-PVTZ
  Basis Set:
  @DF-RHF Final Energy:  -310.32310370206488
    Total Energy =                       -310.3231037020644862
  Basis Set: CC-PVTZ
  Basis Set:
  Basis Set: CC-PVTZ
  Basis Set:
  @DF-RHF Final Energy:  -310.32316823480176
    Total Energy =                       -310.3231682348018126
  Basis Set: CC-PVTZ
  Basis Set:
  Basis Set: CC-PVTZ
  Basis Set:
  @DF-RHF Final Energy:  -310.32317350597322
    Total Energy =                       -310.3231735059735001
  Basis Set: CC-PVTZ
  Basis Set:
  Charge       = 0
  Multiplicity = 1
  Basis Set: CC-PVTZ
  Basis Set:

    Orbital Energies (a.u.)
    -----------------------

    Doubly Occupied:

       1A    -20.544567     2A    -11.264024     3A    -11.214528
       4A    -11.213686     5A    -11.213077     6A    -11.209189
       7A    -11.206685     8A     -1.362328     9A     -1.085348
      10A     -1.030309    11A     -0.952016    12A     -0.887358
      13A     -0.815394    14A     -0.763487    15A     -0.698534
      16A     -0.660482    17A     -0.623096    18A     -0.608627
      19A     -0.584042    20A     -0.570969    21A     -0.541438
      22A     -0.526391    23A     -0.513349    24A     -0.488248
      25A     -0.480865    26A     -0.461565    27A     -0.452028
      28A     -0.442865    29A     -0.430417

  @DF-RHF Final Energy:  -310.32317385154329

   => Energetics <=

    Nuclear Repulsion Energy =            316.9387118768822802
    One-Electron Energy =               -1048.8339386728323461
    Two-Electron Energy =                 421.5720529444067211
    DFT Exchange-Correlation Energy =       0.0000000000000000
    Empirical Dispersion Energy =           0.0000000000000000
    PCM Polarization Energy =               0.0000000000000000
    EFP Energy =                            0.0000000000000000
    Total Energy =                       -310.3231738515433449
    Molecular point group: c1
  Basis Set: CC-PVTZ
  Basis Set:

  -Total Gradient:
     Atom            X                  Y                   Z
    ------   -----------------  -----------------  -----------------
       1       -0.000029302243    -0.000029049897    -0.000010643693
       2       -0.000033162654    -0.000014443470    -0.000001587544
       3        0.000027670301     0.000011405020    -0.000031192178
       4       -0.001171768600     0.003111131978    -0.000466395694
       5        0.000015563417     0.000001229113     0.000019806442
       6       -0.000011544499    -0.000010455168    -0.000008874922
       7        0.000670942702     0.000634663130    -0.002950506790
       8        0.000861481894    -0.002844742320     0.001232022574
       9        0.000006885026    -0.000003412272    -0.000007675590
      10       -0.000315277462    -0.000900094011     0.002234496716
      11        0.000010731128     0.000036819460    -0.000019996189
      12        0.000014822295     0.000009254646     0.000002329884
      13        0.000006897622    -0.000008596758    -0.000026364778
      14        0.000020044575     0.000034249959     0.000003081290
      15       -0.000028813201    -0.000034947983     0.000002352385
      16       -0.000017039583    -0.000018359835     0.000014836912
      17        0.000002412892    -0.000025402406     0.000009185123
      18        0.000002797925     0.000018543357     0.000006017083
      19        0.000000995866    -0.000004933191    -0.000001859003
      20       -0.000043216585     0.000035641588    -0.000009938370
      21        0.000008879178     0.000001499058     0.000010906341

  **** Optimization is complete! (in 8 steps) ****
    Final optimized geometry and variables:
    Molecular point group: c1

    Geometry (in Angstrom), charge = 0, multiplicity = 1:

    H           -2.920001605669    -2.518570141094    -0.945865413745
    O           -2.856846421965    -1.609056079381    -0.720170601548
    C           -1.532608388613    -1.288538177799    -0.378657368961
    C           -1.503199945832     0.190521104729    -0.028767713828
    H           -1.209234489753    -1.888530319864     0.467603796640
    H           -0.868376814762    -1.504853511973    -1.209808182810
    C           -0.134703013660     0.781391672628     0.395502874817
    H           -2.215386461755     0.320499334976     0.777179740186
    H           -1.895354878013     0.729038900742    -0.882797812814
    C            1.101571551841    -0.103156345619     0.208319322472
    H            0.011691277687     1.713835506170    -0.134615703098
    H           -0.185127575298     1.046727340384     1.447195031124
    C            2.395861615959     0.530589568036     0.724385447119
    H            1.230121520104    -0.351996643504    -0.841879730165
    H            0.957453523604    -1.042514334992     0.730775748865
    C            2.865025154651     1.757550791054    -0.053937627369
    H            3.179424162039    -0.220296559810     0.691313375574
    H            2.273225868524     0.793370154494     1.771840367224
    H            2.987225341644     1.526704045935    -1.107439033952
    H            2.167157248326     2.582064290129     0.025120260409
    H            3.821442971319     2.105183656361     0.319633490627

  Mulliken Charges: (a.u.)
   Center  Symbol    Alpha    Beta     Spin     Total
       1     H     0.39769  0.39769  0.00000  0.20462
       2     O     4.19538  4.19538  0.00000 -0.39077
       3     C     2.96929  2.96929  0.00000  0.06141
       4     C     3.08871  3.08871  0.00000 -0.17742
       5     H     0.47166  0.47166  0.00000  0.05668
       6     H     0.47149  0.47149  0.00000  0.05702
       7     C     3.10649  3.10649  0.00000 -0.21298
       8     H     0.44831  0.44831  0.00000  0.10339
       9     H     0.44842  0.44842  0.00000  0.10317
      10     C     3.10515  3.10515  0.00000 -0.21030
      11     H     0.44707  0.44707  0.00000  0.10586
      12     H     0.45146  0.45146  0.00000  0.09709
      13     C     3.09017  3.09017  0.00000 -0.18034
      14     H     0.45207  0.45207  0.00000  0.09586
      15     H     0.44674  0.44674  0.00000  0.10651
      16     C     3.15201  3.15201  0.00000 -0.30401
      17     H     0.44851  0.44851  0.00000  0.10298
      18     H     0.45448  0.45448  0.00000  0.09103
      19     H     0.45517  0.45517  0.00000  0.08965
      20     H     0.45326  0.45326  0.00000  0.09348
      21     H     0.44647  0.44647  0.00000  0.10706

   Total alpha = 29.00000, Total beta = 29.00000, Total charge = -0.00000

*** Psi4 exiting successfully. Buy a developer a beer!
