                              Psi4 1.0.54 Driver

  ==> Input File <==

--------------------------------------------------------------------------
set {
	reference rhf
	basis cc-pvtz
}

set_num_threads( 4 )
memory 2 gb

molecule MOL {
0 1

H	 3.889604	 0.356866	 -0.089510
N	 3.091268	 -0.241216	 -0.065538
C	 1.860978	 0.530248	 0.016256
H	 3.192566	 -0.835836	 0.730398
C	 0.644130	 -0.381765	 -0.031064
H	 1.835721	 1.204666	 -0.833114
H	 1.808789	 1.151975	 0.911067
C	 -0.678115	 0.376691	 0.025731
H	 0.693998	 -0.977147	 -0.936845
H	 0.693309	 -1.082142	 0.800523
C	 -1.027191	 0.878987	 1.423961
H	 -1.478046	 -0.268122	 -0.331034
H	 -0.642135	 1.221883	 -0.657810
C	 -2.352761	 1.631081	 1.477732
H	 -1.063161	 0.036143	 2.108515
H	 -0.231184	 1.526648	 1.781282
H	 -3.174792	 0.998632	 1.159122
H	 -2.570093	 1.973304	 2.483046
H	 -2.336315	 2.500646	 0.828947

	symmetry c1
}
set optking {
	frozen_dihedral = ("
		12 8 5 9
	")
}

ee,wfn = optimize('scf', return_wfn=True)
oeprop( wfn, 'DIPOLE', 'QUADRUPOLE', 'MULLIKEN_CHARGES')
f=open( 'psi4out.xyz', 'w' )
f.write( "19  " )
f.write( str(ee) + "\n" )
f.write( MOL.save_string_xyz() )
f.close()
--------------------------------------------------------------------------

    Molecular point group: c1
  Charge       = 0
  Multiplicity = 1
  Basis Set: CC-PVTZ
  Basis Set:
  @DF-RHF Final Energy:  -251.44565869713836
    Total Energy =                       -251.4456586971381853
    Molecular point group: c1
  Basis Set: CC-PVTZ
  Basis Set:
  Basis Set: CC-PVTZ
  Basis Set:
  @DF-RHF Final Energy:  -251.44591913710019
    Total Energy =                       -251.4459191371001907
  Basis Set: CC-PVTZ
  Basis Set:
  Basis Set: CC-PVTZ
  Basis Set:
  @DF-RHF Final Energy:  -251.44597085060209
    Total Energy =                       -251.4459708506023503
  Basis Set: CC-PVTZ
  Basis Set:
  Basis Set: CC-PVTZ
  Basis Set:
  @DF-RHF Final Energy:  -251.44597270056960
    Total Energy =                       -251.4459727005695413
  Basis Set: CC-PVTZ
  Basis Set:
  Charge       = 0
  Multiplicity = 1
  Basis Set: CC-PVTZ
  Basis Set:

    Orbital Energies (a.u.)
    -----------------------

    Doubly Occupied:

       1A    -15.526321     2A    -11.237600     3A    -11.212576
       4A    -11.210876     5A    -11.207955     6A    -11.206155
       7A     -1.178000     8A     -1.073729     9A     -0.998286
      10A     -0.900505    11A     -0.826552    12A     -0.780403
      13A     -0.658718    14A     -0.636353    15A     -0.630278
      16A     -0.589143    17A     -0.568585    18A     -0.549512
      19A     -0.529682    20A     -0.503536    21A     -0.481165
      22A     -0.463389    23A     -0.458992    24A     -0.451544
      25A     -0.383105

  @DF-RHF Final Energy:  -251.44597298656109

   => Energetics <=

    Nuclear Repulsion Energy =            248.8220669731948362
    One-Electron Energy =                -832.0101573049525996
    Two-Electron Energy =                 331.7421173451969025
    DFT Exchange-Correlation Energy =       0.0000000000000000
    Empirical Dispersion Energy =           0.0000000000000000
    PCM Polarization Energy =               0.0000000000000000
    EFP Energy =                            0.0000000000000000
    Total Energy =                       -251.4459729865608324
    Molecular point group: c1
  Basis Set: CC-PVTZ
  Basis Set:

  -Total Gradient:
     Atom            X                  Y                   Z
    ------   -----------------  -----------------  -----------------
       1        0.000023275563    -0.000012716404    -0.000003973608
       2        0.000027621590     0.000029469422    -0.000005991421
       3       -0.000024842479    -0.000038387294     0.000005269255
       4       -0.000006006847     0.000005014929     0.000002120970
       5        0.000570769302     0.001169348066    -0.000882868035
       6        0.000007715026     0.000005954109     0.000002824164
       7       -0.000012618997    -0.000010899948    -0.000008567636
       8       -0.000270848346    -0.000660687016     0.001381457696
       9       -0.000444538164    -0.000852677864     0.000534718253
      10        0.000008146772    -0.000004055767     0.000004523553
      11       -0.000008835970    -0.000032681937    -0.000033722946
      12        0.000143099439     0.000375132714    -0.001009607493
      13       -0.000005981691     0.000012981237    -0.000008381378
      14       -0.000006451493     0.000010864720     0.000019922260
      15       -0.000000475315     0.000000016998     0.000008762804
      16       -0.000001691442    -0.000008908305    -0.000012831704
      17        0.000014611608     0.000005205947     0.000006682394
      18       -0.000016009639     0.000014528739     0.000002380700
      19        0.000003061084    -0.000007502347    -0.000002717829

  **** Optimization is complete! (in 5 steps) ****
    Final optimized geometry and variables:
    Molecular point group: c1

    Geometry (in Angstrom), charge = 0, multiplicity = 1:

    H            3.622316934110    -0.159335931423    -0.608443226366
    N            2.811497429840    -0.740232747925    -0.578067673331
    C            1.599496052696     0.057671747833    -0.469018959899
    H            2.912036140770    -1.343812769273     0.211265374644
    C            0.365954607670    -0.834306326689    -0.508519809125
    H            1.572034843300     0.735671361110    -1.315603016970
    H            1.583433277358     0.675198513003     0.427882939713
    C           -0.963764459248    -0.080480224573    -0.431589766490
    H            0.402307914633    -1.418914461005    -1.420703407179
    H            0.418994883279    -1.551394916682     0.308846308570
    C           -1.335860779382     0.429271473449     0.959754021305
    H           -1.755033990250    -0.734142615868    -0.786853851593
    H           -0.941417906142     0.756980037846    -1.125944341357
    C           -2.678753370015     1.152110847156     0.985986840719
    H           -1.366514157279    -0.410567530442     1.648778305015
    H           -0.565836698824     1.098552150830     1.329488917397
    H           -3.480704476933     0.499449829735     0.657294539636
    H           -2.921041249285     1.496202688393     1.985011210233
    H           -2.670088666991     2.017437475355     0.331503938998

  Mulliken Charges: (a.u.)
   Center  Symbol    Alpha    Beta     Spin     Total
       1     H     0.43012  0.43012  0.00000  0.13976
       2     N     3.69009  3.69009  0.00000 -0.38017
       3     C     3.02474  3.02474  0.00000 -0.04948
       4     H     0.43045  0.43045  0.00000  0.13910
       5     C     3.09140  3.09140  0.00000 -0.18279
       6     H     0.45718  0.45718  0.00000  0.08565
       7     H     0.46628  0.46628  0.00000  0.06744
       8     C     3.10185  3.10185  0.00000 -0.20369
       9     H     0.44279  0.44279  0.00000  0.11442
      10     H     0.46045  0.46045  0.00000  0.07910
      11     C     3.08310  3.08310  0.00000 -0.16620
      12     H     0.44770  0.44770  0.00000  0.10460
      13     H     0.45538  0.45538  0.00000  0.08923
      14     C     3.14960  3.14960  0.00000 -0.29920
      15     H     0.45514  0.45514  0.00000  0.08972
      16     H     0.45533  0.45533  0.00000  0.08935
      17     H     0.45466  0.45466  0.00000  0.09068
      18     H     0.44873  0.44873  0.00000  0.10254
      19     H     0.45502  0.45502  0.00000  0.08996

   Total alpha = 25.00000, Total beta = 25.00000, Total charge = -0.00000

*** Psi4 exiting successfully. Buy a developer a beer!
