                              Psi4 1.0.54 Driver

  ==> Input File <==

--------------------------------------------------------------------------
set {
	reference rhf
	basis cc-pvtz
}

set_num_threads( 4 )
memory 2 gb

molecule MOL {
0 1

O	 0.395927	 1.296676	 -0.000076
C	 0.503051	 0.114301	 -0.000074
C	 -0.701422	 -0.805636	 -0.000109
C	 1.858118	 -0.556123	 0.000212
C	 -0.352857	 -2.283363	 -0.083225
H	 -1.276388	 -0.592722	 0.897397
H	 -1.339240	 -0.510415	 -0.829249
H	 0.262257	 -2.584505	 0.754137
H	 -1.254965	 -2.883396	 -0.078983
H	 0.198845	 -2.501486	 -0.987812
H	 1.961106	 -1.191101	 -0.872843
H	 2.636688	 0.191085	 -0.000109
H	 1.961070	 -1.190284	 0.873873

	symmetry c1
}
set optking {
	frozen_dihedral = ("
		6 3 2 1
	")
}

ee,wfn = optimize('scf', return_wfn=True)
oeprop( wfn, 'DIPOLE', 'QUADRUPOLE', 'MULLIKEN_CHARGES')
f=open( 'psi4out.xyz', 'w' )
f.write( "13  " )
f.write( str(ee) + "\n" )
f.write( MOL.save_string_xyz() )
f.close()
--------------------------------------------------------------------------

    Molecular point group: c1
  Charge       = 0
  Multiplicity = 1
  Basis Set: CC-PVTZ
  Basis Set:
  @DF-RHF Final Energy:  -231.07636398643317
    Total Energy =                       -231.0763639864330798
    Molecular point group: c1
  Basis Set: CC-PVTZ
  Basis Set:
  Basis Set: CC-PVTZ
  Basis Set:
  @DF-RHF Final Energy:  -231.07421241342820
    Total Energy =                       -231.0742124134280857
  Basis Set: CC-PVTZ
  Basis Set:
  Basis Set: CC-PVTZ
  Basis Set:
  @DF-RHF Final Energy:  -231.07882271562980
    Total Energy =                       -231.0788227156298262
  Basis Set: CC-PVTZ
  Basis Set:
  Basis Set: CC-PVTZ
  Basis Set:
  @DF-RHF Final Energy:  -231.07881193072515
    Total Energy =                       -231.0788119307251804
  Basis Set: CC-PVTZ
  Basis Set:
  Basis Set: CC-PVTZ
  Basis Set:
  @DF-RHF Final Energy:  -231.07877825941983
    Total Energy =                       -231.0787782594197779
  Basis Set: CC-PVTZ
  Basis Set:
  Basis Set: CC-PVTZ
  Basis Set:
  @DF-RHF Final Energy:  -231.07900275311044
    Total Energy =                       -231.0790027531105579
  Basis Set: CC-PVTZ
  Basis Set:
  Charge       = 0
  Multiplicity = 1
  Basis Set: CC-PVTZ
  Basis Set:

    Orbital Energies (a.u.)
    -----------------------

    Doubly Occupied:

       1A    -20.535473     2A    -11.321918     3A    -11.232952
       4A    -11.227565     5A    -11.226338     6A     -1.397330
       7A     -1.067270     8A     -0.995217     9A     -0.891742
      10A     -0.732471    11A     -0.654710    12A     -0.644100
      13A     -0.629378    14A     -0.583900    15A     -0.557307
      16A     -0.546514    17A     -0.532631    18A     -0.515519
      19A     -0.475308    20A     -0.401657

  @DF-RHF Final Energy:  -231.07900374870039

   => Energetics <=

    Nuclear Repulsion Energy =            177.0025581106864081
    One-Electron Energy =                -663.8245252687161155
    Two-Electron Energy =                 255.7429634093291497
    DFT Exchange-Correlation Energy =       0.0000000000000000
    Empirical Dispersion Energy =           0.0000000000000000
    PCM Polarization Energy =               0.0000000000000000
    EFP Energy =                            0.0000000000000000
    Total Energy =                       -231.0790037487005293
    Molecular point group: c1
  Basis Set: CC-PVTZ
  Basis Set:

  -Total Gradient:
     Atom            X                  Y                   Z
    ------   -----------------  -----------------  -----------------
       1       -0.000034680607     0.000001572296     0.000471748650
       2       -0.000039626026     0.000038106203    -0.000708779114
       3        0.000342160425    -0.000323283918     0.000496733587
       4        0.000029230773    -0.000014845108     0.000018668647
       5       -0.000007886063     0.000033046940     0.000000572956
       6       -0.000284431345     0.000274121694    -0.000267190587
       7       -0.000012680875     0.000004353815    -0.000001960019
       8        0.000008427694    -0.000007368096     0.000003271968
       9        0.000004032406     0.000007191672    -0.000001238008
      10       -0.000000833622    -0.000006562705    -0.000000625805
      11        0.000004677045    -0.000000495627    -0.000005051908
      12       -0.000008237827    -0.000001408968    -0.000002844568
      13       -0.000000151979    -0.000004428192    -0.000003305799

  **** Optimization is complete! (in 7 steps) ****
    Final optimized geometry and variables:
    Molecular point group: c1

    Geometry (in Angstrom), charge = 0, multiplicity = 1:

    O           -0.218022030915     1.720255147953    -0.111619881023
    C            0.106352518756     0.581198618466    -0.019532173186
    C           -0.968013157820    -0.498910939794     0.008924348554
    C            1.562607605783     0.195317511083     0.086397632538
    C           -0.521206254123    -1.956327877422     0.032736777044
    H           -1.582975093461    -0.278392509840     0.875018413181
    H           -1.598978650386    -0.311673055134    -0.852276737896
    H            0.075792821887    -2.185386528223     0.907114731794
    H           -1.388146467991    -2.604844550784     0.052655375985
    H            0.058323255530    -2.216173158479    -0.845087514351
    H            1.841952596887    -0.465970201158    -0.725564796509
    H            2.168751059952     1.087144178541     0.055053533231
    H            1.745306450525    -0.338138281851     1.012368052320

  Mulliken Charges: (a.u.)
   Center  Symbol    Alpha    Beta     Spin     Total
       1     O     4.17685  4.17685  0.00000 -0.35371
       2     C     2.85961  2.85961  0.00000  0.28078
       3     C     3.09629  3.09629  0.00000 -0.19258
       4     C     3.15881  3.15881  0.00000 -0.31762
       5     C     3.15701  3.15701  0.00000 -0.31401
       6     H     0.43929  0.43929  0.00000  0.12141
       7     H     0.43812  0.43812  0.00000  0.12375
       8     H     0.45209  0.45209  0.00000  0.09582
       9     H     0.44111  0.44111  0.00000  0.11778
      10     H     0.45122  0.45122  0.00000  0.09755
      11     H     0.44907  0.44907  0.00000  0.10187
      12     H     0.43191  0.43191  0.00000  0.13619
      13     H     0.44861  0.44861  0.00000  0.10277

   Total alpha = 20.00000, Total beta = 20.00000, Total charge =  0.00000

*** Psi4 exiting successfully. Buy a developer a beer!
