  ==> Input File <==

--------------------------------------------------------------------------
set {
	reference rhf
	basis 6-31G*
}

set_num_threads( 4 )
memory 2 gb

molecule MOL {
0 1

O	 -1.487788	 1.240889	 -0.102860
C	 -1.083277	 0.139568	 0.115197
C	 0.323299	 -0.082943	 0.642902
C	 -1.933017	 -1.084621	 -0.143902
C	 1.355627	 -0.005344	 -0.493127
H	 0.396251	 -1.044647	 1.143147
H	 0.528637	 0.693580	 1.371677
C	 0.702516	 -0.018717	 -1.873893
H	 1.952952	 0.897356	 -0.385390
H	 2.037580	 -0.843822	 -0.398073
H	 1.451348	 0.030852	 -2.657784
H	 0.032471	 0.826658	 -2.001195
H	 0.124726	 -0.925794	 -2.023610
H	 -1.393885	 -1.806447	 -0.750509
H	 -2.850323	 -0.799888	 -0.640100
H	 -2.169004	 -1.571158	 0.798858

	symmetry c1
}
set optking {
	frozen_dihedral = ("
		9 5 3 2
	")
}

ee = optimize('scf')
oeprop('DIPOLE', 'QUADRUPOLE', 'MULLIKEN_CHARGES')
f=open( 'psi4out.xyz', 'w' )
f.write( "16  " )
f.write( str(ee) + "\n" )
f.write( MOL.save_string_xyz() )
f.close()
--------------------------------------------------------------------------

    Molecular point group: c1
  Charge       = 0
  Multiplicity = 1
  Basis Set: 6-31G*
  Basis Set:
  @DF-RHF Final Energy:  -270.01778941291406
    Total Energy =                       -270.0177894129139418
    Molecular point group: c1
  Basis Set: 6-31G*
  Basis Set:
  Basis Set: 6-31G*
  Basis Set:
  @DF-RHF Final Energy:  -270.02094547921843
    Total Energy =                       -270.0209454792184829
  Basis Set: 6-31G*
  Basis Set:
  Basis Set: 6-31G*
  Basis Set:
  @DF-RHF Final Energy:  -270.02075402911396
    Total Energy =                       -270.0207540291140731
  Basis Set: 6-31G*
  Basis Set:
  Basis Set: 6-31G*
  Basis Set:
  @DF-RHF Final Energy:  -270.02195173586767
    Total Energy =                       -270.0219517358679013
  Basis Set: 6-31G*
  Basis Set:
  @DF-RHF Final Energy:  -270.02202278258034
    Total Energy =                       -270.0220227825805068
  @DF-RHF Final Energy:  -270.02203473970155
    Total Energy =                       -270.0220347397017804
  Basis Set: 6-31G*
  Basis Set:
  @DF-RHF Final Energy:  -270.02204411579999
    Total Energy =                       -270.0220441157999858
  Basis Set: 6-31G*
  Basis Set:
  Basis Set: 6-31G*
  Basis Set:
  @DF-RHF Final Energy:  -270.02205560226787
    Total Energy =                       -270.0220556022678693
  Basis Set: 6-31G*
  Basis Set:
  Basis Set: 6-31G*
  Basis Set:
  @DF-RHF Final Energy:  -270.02205989178697
    Total Energy =                       -270.0220598917869665
  Basis Set: 6-31G*
  Basis Set:
  Charge       = 0
  Multiplicity = 1
  Basis Set: 6-31G*
  Basis Set:

    Orbital Energies (a.u.)
    -----------------------

    Doubly Occupied:

       1A    -20.547376     2A    -11.325418     3A    -11.232260
       4A    -11.230365     5A    -11.228296     6A    -11.214848
       7A     -1.393482     8A     -1.075279     9A     -1.011441
      10A     -0.950369    11A     -0.833381    12A     -0.724173
      13A     -0.655339    14A     -0.641030    15A     -0.620299
      16A     -0.608857    17A     -0.577570    18A     -0.555908
      19A     -0.543984    20A     -0.507266    21A     -0.500538
      22A     -0.473355    23A     -0.472518    24A     -0.397589

  @DF-RHF Final Energy:  -270.02206055929094

   => Energetics <=

    Nuclear Repulsion Energy =            242.6440503359542618
    One-Electron Energy =                -846.6903395470571922
    Two-Electron Energy =                 334.0242286518119954
    DFT Exchange-Correlation Energy =       0.0000000000000000
    Empirical Dispersion Energy =           0.0000000000000000
    PCM Polarization Energy =               0.0000000000000000
    EFP Energy =                            0.0000000000000000
    Total Energy =                       -270.0220605592909351
    Molecular point group: c1
  Basis Set: 6-31G*
  Basis Set:

  -Total Gradient:
     Atom            X                  Y                   Z
    ------   -----------------  -----------------  -----------------
       1       -0.000031588704     0.000009399478     0.000056032000
       2       -0.000210048575    -0.002356398474    -0.000543859287
       3        0.000768956517     0.002934779249     0.001144405141
       4        0.000010823984     0.000018144456     0.000010838504
       5       -0.002659271573     0.001116781692    -0.002420402762
       6       -0.000013436572     0.000010089287     0.000014228023
       7        0.000008455232     0.000008887111    -0.000017760086
       8        0.000015074159    -0.000018170841    -0.000012064688
       9        0.002100094230    -0.001716739402     0.001791156617
      10        0.000002179413     0.000000136417     0.000000611853
      11       -0.000002954847     0.000003307652     0.000010278915
      12       -0.000005149446    -0.000001544806     0.000002135520
      13        0.000003066689    -0.000000571904    -0.000001479379
      14        0.000008166452    -0.000001195818    -0.000010009941
      15        0.000002151559    -0.000004595158    -0.000009710226
      16        0.000003481481    -0.000002308936    -0.000014400205

  **** Optimization is complete! (in 10 steps) ****
    Final optimized geometry and variables:
    Molecular point group: c1

    Geometry (in Angstrom), charge = 0, multiplicity = 1:

    O           -1.168256150101     1.179327998034     0.207901377245
    C           -0.768580306780     0.082799103537     0.458252992146
    C            0.662877052193    -0.143599134814     0.922076137754
    C           -1.666029825753    -1.129342818401     0.344765426801
    C            1.742161123940     0.003075311078    -0.191776715990
    H            0.737394019093    -1.129046408499     1.369827256474
    H            0.853587614767     0.579885516788     1.706057122292
    C            1.243245503187     0.012289071627    -1.637871699804
    H            2.318014029048     0.902158392993    -0.003931839887
    H            2.445859906375    -0.815446807605    -0.075968665751
    H            2.086471548215     0.082890731212    -2.317287054260
    H            0.587046799572     0.851832654697    -1.830420349223
    H            0.705613232843    -0.899567229172    -1.883954869534
    H           -1.204454943750    -1.892974542387    -0.274079968103
    H           -2.621023688195    -0.843640882241    -0.073724791645
    H           -1.818438632790    -1.564996624291     1.328842320884

  Mulliken Charges: (a.u.)
   Center  Symbol    Alpha    Beta     Spin     Total
       1     O     4.26189  4.26189  0.00000 -0.52378
       2     C     2.73844  2.73844  0.00000  0.52312
       3     C     3.20535  3.20535  0.00000 -0.41069
       4     C     3.28987  3.28987  0.00000 -0.57973
       5     C     3.15145  3.15145  0.00000 -0.30290
       6     H     0.41586  0.41586  0.00000  0.16827
       7     H     0.39874  0.39874  0.00000  0.20252
       8     C     3.25427  3.25427  0.00000 -0.50853
       9     H     0.41118  0.41118  0.00000  0.17763
      10     H     0.41736  0.41736  0.00000  0.16529
      11     H     0.41562  0.41562  0.00000  0.16876
      12     H     0.40247  0.40247  0.00000  0.19507
      13     H     0.42380  0.42380  0.00000  0.15240
      14     H     0.40937  0.40937  0.00000  0.18126
      15     H     0.39724  0.39724  0.00000  0.20551
      16     H     0.40710  0.40710  0.00000  0.18579

   Total alpha = 24.00000, Total beta = 24.00000, Total charge = -0.00000
