  ==> Input File <==

--------------------------------------------------------------------------
set {
	reference rhf
	basis 6-31G*
}

set_num_threads( 1 )
memory 2 gb

molecule MOL {
0 1

H	 3.161968	 -0.887734	 0.697539
N	 3.092854	 -0.246221	 -0.068770
C	 1.865559	 0.531981	 0.018834
H	 3.101323	 -0.795224	 -0.907432
C	 0.645745	 -0.382037	 -0.029944
H	 1.841966	 1.207024	 -0.831236
H	 1.815756	 1.155410	 0.915079
C	 -0.679275	 0.379305	 0.025956
H	 0.698998	 -0.976915	 -0.937203
H	 0.693479	 -1.083846	 0.802235
C	 -1.903357	 -0.536963	 -0.023547
H	 -0.726309	 1.082987	 -0.803784
H	 -0.717680	 0.977832	 0.934877
C	 -3.225172	 0.228290	 0.028445
H	 -1.867824	 -1.134999	 -0.931459
H	 -1.860449	 -1.239604	 0.805977
H	 -3.313397	 0.915643	 -0.808262
H	 -4.073500	 -0.448134	 -0.008893
H	 -3.306061	 0.809945	 0.942516

	symmetry c1
}
set optking {
	frozen_dihedral = ("
		6 3 5 9,
		12 8 5 9,
		12 8 11 15
	")
}

ee = energy('scf')
oeprop('DIPOLE', 'QUADRUPOLE', 'MULLIKEN_CHARGES')
f=open( 'psi4out.xyz', 'w' )
f.write( "19  " )
f.write( str(ee) + "\n" )
f.write( MOL.save_string_xyz() )
f.close()
--------------------------------------------------------------------------

    Molecular point group: c1

    Geometry (in Angstrom), charge = 0, multiplicity = 1:

       Center              X                  Y                   Z               Mass
    ------------   -----------------  -----------------  -----------------  -----------------
           H          3.171564302279    -0.873706968844     0.707379181243     1.007825032070
           N          3.102450302279    -0.232193968844    -0.058929818757    14.003074004780
           C          1.875155302279     0.546008031156     0.028674181243    12.000000000000
           H          3.110919302279    -0.781196968844    -0.897591818757     1.007825032070
           C          0.655341302279    -0.368009968844    -0.020103818757    12.000000000000
           H          1.851562302279     1.221051031156    -0.821395818757     1.007825032070
           H          1.825352302279     1.169437031156     0.924919181243     1.007825032070
           C         -0.669678697721     0.393332031156     0.035796181243    12.000000000000
           H          0.708594302279    -0.962887968844    -0.927362818757     1.007825032070
           H          0.703075302279    -1.069818968844     0.812075181243     1.007825032070
           C         -1.893760697721    -0.522935968844    -0.013706818757    12.000000000000
           H         -0.716712697721     1.097014031156    -0.793943818757     1.007825032070
           H         -0.708083697721     0.991859031156     0.944717181243     1.007825032070
           C         -3.215575697721     0.242317031156     0.038285181243    12.000000000000
           H         -1.858227697721    -1.120971968844    -0.921618818757     1.007825032070
           H         -1.850852697721    -1.225576968844     0.815817181243     1.007825032070
           H         -3.303800697721     0.929670031156    -0.798421818757     1.007825032070
           H         -4.063903697721    -0.434106968844     0.000947181243     1.007825032070
           H         -3.296464697721     0.823972031156     0.952356181243     1.007825032070

  Charge       = 0
  Multiplicity = 1
  Basis Set: 6-31G*
  Basis Set:

    Orbital Energies (a.u.)
    -----------------------

    Doubly Occupied:

       1A    -15.531251     2A    -11.241057     3A    -11.216506
       4A    -11.214990     5A    -11.212263     6A    -11.209388
       7A     -1.178694     8A     -1.075040     9A     -0.999411
      10A     -0.901270    11A     -0.819384    12A     -0.793144
      13A     -0.680083    14A     -0.637388    15A     -0.601223
      16A     -0.579374    17A     -0.577819    18A     -0.560784
      19A     -0.519005    20A     -0.507484    21A     -0.479324
      22A     -0.475018    23A     -0.467698    24A     -0.464470
      25A     -0.371433

  @DF-RHF Final Energy:  -251.34944615365188

   => Energetics <=

    Nuclear Repulsion Energy =            246.2709791595310946
    One-Electron Energy =                -826.6138598966928157
    Two-Electron Energy =                 328.9934345835094973
    DFT Exchange-Correlation Energy =       0.0000000000000000
    Empirical Dispersion Energy =           0.0000000000000000
    PCM Polarization Energy =               0.0000000000000000
    EFP Energy =                            0.0000000000000000
    Total Energy =                       -251.3494461536522522

  Mulliken Charges: (a.u.)
   Center  Symbol    Alpha    Beta     Spin     Total
       1     H     0.33545  0.33545  0.00000  0.32910
       2     N     3.91709  3.91709  0.00000 -0.83418
       3     C     3.06274  3.06274  0.00000 -0.12548
       4     H     0.33433  0.33433  0.00000  0.33134
       5     C     3.15703  3.15703  0.00000 -0.31406
       6     H     0.41873  0.41873  0.00000  0.16255
       7     H     0.41840  0.41840  0.00000  0.16320
       8     C     3.15547  3.15547  0.00000 -0.31094
       9     H     0.42711  0.42711  0.00000  0.14578
      10     H     0.42733  0.42733  0.00000  0.14534
      11     C     3.15066  3.15066  0.00000 -0.30131
      12     H     0.42354  0.42354  0.00000  0.15293
      13     H     0.42364  0.42364  0.00000  0.15273
      14     C     3.23932  3.23932  0.00000 -0.47865
      15     H     0.42319  0.42319  0.00000  0.15362
      16     H     0.42328  0.42328  0.00000  0.15345
      17     H     0.42167  0.42167  0.00000  0.15666
      18     H     0.41931  0.41931  0.00000  0.16138
      19     H     0.42173  0.42173  0.00000  0.15654

   Total alpha = 25.00000, Total beta = 25.00000, Total charge = -0.00000
