  ==> Input File <==

--------------------------------------------------------------------------
set {
	reference rhf
	basis 6-31G*
}

set_num_threads( 1 )
memory 2 gb

molecule MOL {
0 1

H	 -2.698709	 -0.000305	 0.034435
C	 -1.693833	 0.000034	 0.434417
O	 -0.828952	 -0.000968	 -0.659236
H	 -1.574200	 0.882896	 1.055746
H	 -1.574147	 -0.881698	 1.057355
C	 0.212863	 -0.948551	 -0.694031
C	 1.220106	 -0.752731	 0.437354
C	 -0.303613	 -2.384000	 -0.769508
H	 0.715815	 -0.727418	 -1.627932
H	 1.526172	 0.286400	 0.492862
H	 2.102642	 -1.358534	 0.257443
H	 0.816287	 -1.043407	 1.402031
H	 -1.052684	 -2.473795	 -1.548793
H	 0.512894	 -3.060371	 -1.002542
H	 -0.742000	 -2.712856	 0.167248

	symmetry c1
}
set optking {
	frozen_dihedral = ("
		9 6 3 2
	")
}

ee = energy('scf')
oeprop('DIPOLE', 'QUADRUPOLE', 'MULLIKEN_CHARGES')
f=open( 'psi4out.xyz', 'w' )
f.write( "15  " )
f.write( str(ee) + "\n" )
f.write( MOL.save_string_xyz() )
f.close()
--------------------------------------------------------------------------

    Molecular point group: c1

    Geometry (in Angstrom), charge = 0, multiplicity = 1:

       Center              X                  Y                   Z               Mass
    ------------   -----------------  -----------------  -----------------  -----------------
           H         -2.401488412803     0.812598290890     0.268737585682     1.007825032070
           C         -1.396612412803     0.812937290890     0.668719585682    12.000000000000
           O         -0.531731412803     0.811935290890    -0.424933414318    15.994914619560
           H         -1.276979412803     1.695799290890     1.290048585682     1.007825032070
           H         -1.276926412803    -0.068794709110     1.291657585682     1.007825032070
           C          0.510083587197    -0.135647709110    -0.459728414318    12.000000000000
           C          1.517326587197     0.060172290890     0.671656585682    12.000000000000
           C         -0.006392412803    -1.571096709110    -0.535205414318    12.000000000000
           H          1.013035587197     0.085485290890    -1.393629414318     1.007825032070
           H          1.823392587197     1.099303290890     0.727164585682     1.007825032070
           H          2.399862587197    -0.545630709110     0.491745585682     1.007825032070
           H          1.113507587197    -0.230503709110     1.636333585682     1.007825032070
           H         -0.755463412803    -1.660891709110    -1.314490414318     1.007825032070
           H          0.810114587197    -2.247467709110    -0.768239414318     1.007825032070
           H         -0.444779412803    -1.899952709110     0.401550585682     1.007825032070

  Charge       = 0
  Multiplicity = 1
  Basis Set: 6-31G*
  Basis Set:

    Orbital Energies (a.u.)
    -----------------------

    Doubly Occupied:

       1A    -20.546205     2A    -11.274981     3A    -11.260770
       4A    -11.210818     5A    -11.210559     6A     -1.369601
       7A     -1.050603     8A     -0.939656     9A     -0.931204
      10A     -0.781532    11A     -0.676749    12A     -0.639138
      13A     -0.632053    14A     -0.570543    15A     -0.563071
      16A     -0.552399    17A     -0.538155    18A     -0.500327
      19A     -0.497457    20A     -0.442760    21A     -0.402980

  @DF-RHF Final Energy:  -232.13498070062684

   => Energetics <=

    Nuclear Repulsion Energy =            198.8030953357900330
    One-Electron Energy =                -708.6929394380891836
    Two-Electron Energy =                 277.7548634016724236
    DFT Exchange-Correlation Energy =       0.0000000000000000
    Empirical Dispersion Energy =           0.0000000000000000
    PCM Polarization Energy =               0.0000000000000000
    EFP Energy =                            0.0000000000000000
    Total Energy =                       -232.1349807006267270

  Mulliken Charges: (a.u.)
   Center  Symbol    Alpha    Beta     Spin     Total
       1     H     0.41831  0.41831  0.00000  0.16338
       2     C     3.07875  3.07875  0.00000 -0.15750
       3     O     4.31405  4.31405  0.00000 -0.62809
       4     H     0.42291  0.42291  0.00000  0.15418
       5     H     0.43050  0.43050  0.00000  0.13900
       6     C     2.91070  2.91070  0.00000  0.17861
       7     C     3.25159  3.25159  0.00000 -0.50318
       8     C     3.25201  3.25201  0.00000 -0.50401
       9     H     0.41536  0.41536  0.00000  0.16928
      10     H     0.41131  0.41131  0.00000  0.17737
      11     H     0.41974  0.41974  0.00000  0.16052
      12     H     0.42222  0.42222  0.00000  0.15555
      13     H     0.41133  0.41133  0.00000  0.17734
      14     H     0.41944  0.41944  0.00000  0.16113
      15     H     0.42179  0.42179  0.00000  0.15641

   Total alpha = 21.00000, Total beta = 21.00000, Total charge = -0.00000
