  ==> Input File <==

--------------------------------------------------------------------------
set {
	reference rhf
	basis 6-31G*
}

set_num_threads( 4 )
memory 2 gb

molecule MOL {
0 1

O	 1.878763	 0.575722	 0.637155
C	 2.701189	 0.057885	 -0.047330
C	 3.150442	 0.544034	 -1.404025
O	 3.347903	 -1.046386	 0.304773
C	 2.442090	 1.821972	 -1.848128
H	 4.226882	 0.671206	 -1.356127
H	 2.978173	 -0.264296	 -2.110156
C	 2.809812	 2.270324	 -3.266669
H	 2.661682	 2.617487	 -1.142398
H	 1.370961	 1.660480	 -1.793125
C	 4.264559	 2.713509	 -3.446688
H	 2.158482	 3.097974	 -3.537757
H	 2.586929	 1.468808	 -3.969453
C	 4.552572	 3.254435	 -4.848632
H	 4.498448	 3.480829	 -2.710254
H	 4.936967	 1.882486	 -3.246085
C	 6.004589	 3.695478	 -5.041660
H	 3.892270	 4.095717	 -5.052301
H	 4.308735	 2.491345	 -5.586153
C	 6.282945	 4.237923	 -6.443078
H	 6.250224	 4.457292	 -4.304813
H	 6.665928	 2.854735	 -4.842759
H	 7.319737	 4.542029	 -6.548857
H	 5.661178	 5.102052	 -6.659601
H	 6.079468	 3.487286	 -7.201639
C	 4.728119	 -1.109107	 -0.004993
H	 4.882018	 -1.033965	 -1.071845
H	 5.068212	 -2.067527	 0.355250
H	 5.265056	 -0.311663	 0.488280

	symmetry c1
}
set optking {
	frozen_dihedral = ("
		1 2 4 26
	")
}

ee = optimize('scf')
oeprop('DIPOLE', 'QUADRUPOLE', 'MULLIKEN_CHARGES')
f=open( 'psi4out.xyz', 'w' )
f.write( "29  " )
f.write( str(ee) + "\n" )
f.write( MOL.save_string_xyz() )
f.close()
--------------------------------------------------------------------------

    Molecular point group: c1
  Charge       = 0
  Multiplicity = 1
  Basis Set: 6-31G*
  Basis Set:
  @DF-RHF Final Energy:  -501.01770390730462
    Total Energy =                       -501.0177039073053038
    Molecular point group: c1
  Basis Set: 6-31G*
  Basis Set:
  Basis Set: 6-31G*
  Basis Set:
  @DF-RHF Final Energy:  -501.01783188445108
    Total Energy =                       -501.0178318844508567
  Basis Set: 6-31G*
  Basis Set:
  Basis Set: 6-31G*
  Basis Set:
  @DF-RHF Final Energy:  -501.02372380591760
    Total Energy =                       -501.0237238059183937
  Basis Set: 6-31G*
  Basis Set:
  Basis Set: 6-31G*
  Basis Set:
  @DF-RHF Final Energy:  -501.02521305595053
    Total Energy =                       -501.0252130559504167
  Basis Set: 6-31G*
  Basis Set:
  @DF-RHF Final Energy:  -501.02480762522634
    Total Energy =                       -501.0248076252263445
  @DF-RHF Final Energy:  -501.02602311892554
    Total Energy =                       -501.0260231189251954
  Basis Set: 6-31G*
  Basis Set:
  @DF-RHF Final Energy:  -501.02603890361343
    Total Energy =                       -501.0260389036134256
  Basis Set: 6-31G*
  Basis Set:
  Basis Set: 6-31G*
  Basis Set:
  @DF-RHF Final Energy:  -501.02602922281869
    Total Energy =                       -501.0260292228183516
  Basis Set: 6-31G*
  Basis Set:
  Basis Set: 6-31G*
  Basis Set:
  @DF-RHF Final Energy:  -501.02604105570049
    Total Energy =                       -501.0260410557007162
  Basis Set: 6-31G*
  Basis Set:
  Charge       = 0
  Multiplicity = 1
  Basis Set: 6-31G*
  Basis Set:

    Orbital Energies (a.u.)
    -----------------------

    Doubly Occupied:

       1A    -20.594904     2A    -20.546220     3A    -11.373783
       4A    -11.295444     5A    -11.243118     6A    -11.223442
       7A    -11.221470     8A    -11.220352     9A    -11.219180
      10A    -11.217980    11A    -11.211760    12A     -1.460382
      13A     -1.366294    14A     -1.101573    15A     -1.068503
      16A     -1.014767    17A     -0.982008    18A     -0.944569
      19A     -0.869868    20A     -0.805330    21A     -0.794909
      22A     -0.762550    23A     -0.702565    24A     -0.682760
      25A     -0.674216    26A     -0.654143    27A     -0.633733
      28A     -0.612225    29A     -0.596640    30A     -0.590342
      31A     -0.571939    32A     -0.551644    33A     -0.548630
      34A     -0.533389    35A     -0.523529    36A     -0.507149
      37A     -0.493741    38A     -0.482061    39A     -0.474115
      40A     -0.465893    41A     -0.464351    42A     -0.452901
      43A     -0.441731    44A     -0.431328

  @DF-RHF Final Energy:  -501.02604124185996

   => Energetics <=

    Nuclear Repulsion Energy =            614.6797445171332583
    One-Electron Energy =               -1900.1567094413348968
    Two-Electron Energy =                 784.4509236823417950
    DFT Exchange-Correlation Energy =       0.0000000000000000
    Empirical Dispersion Energy =           0.0000000000000000
    PCM Polarization Energy =               0.0000000000000000
    EFP Energy =                            0.0000000000000000
    Total Energy =                       -501.0260412418598435
    Molecular point group: c1
  Basis Set: 6-31G*
  Basis Set:

  -Total Gradient:
     Atom            X                  Y                   Z
    ------   -----------------  -----------------  -----------------
       1        0.002943795258     0.001752101264     0.001627245357
       2       -0.003771128668    -0.001756245386    -0.000800728497
       3       -0.000017620722     0.000014065849    -0.000021073830
       4       -0.000027437094    -0.001316640859    -0.003639342898
       5        0.000017018348    -0.000016318711     0.000002503632
       6       -0.000008252402     0.000000181139    -0.000002269947
       7       -0.000002174610    -0.000006409758    -0.000003488051
       8       -0.000003699733     0.000002644271     0.000000407101
       9        0.000000181081     0.000006381507    -0.000001347093
      10        0.000001617703    -0.000003360156    -0.000000417574
      11       -0.000000942224     0.000005407543     0.000006170770
      12       -0.000002982295    -0.000000019352     0.000004455657
      13       -0.000000589978    -0.000000023937     0.000000026357
      14        0.000000148335    -0.000003410112    -0.000001816750
      15        0.000000043767     0.000003988238    -0.000000038460
      16       -0.000000007807    -0.000000940871     0.000003619917
      17        0.000001858588    -0.000005508848    -0.000000905289
      18        0.000001580777     0.000000143934     0.000000974906
      19       -0.000001267611    -0.000000351334    -0.000000831199
      20       -0.000000433777     0.000001356400     0.000000244369
      21       -0.000000538816    -0.000001057966     0.000000126917
      22        0.000000862367    -0.000000054464    -0.000000677726
      23       -0.000000218987     0.000000747477     0.000000152923
      24       -0.000000477706     0.000000003198    -0.000000583333
      25        0.000000543241    -0.000000041547     0.000000606194
      26        0.000870199723     0.001320423303     0.002814793004
      27        0.000005806397    -0.000003918455     0.000021483780
      28       -0.000001371144    -0.000001678765    -0.000007337250
      29       -0.000004512005     0.000008536401    -0.000001952981

  **** Optimization is complete! (in 10 steps) ****
    Final optimized geometry and variables:
    Molecular point group: c1

    Geometry (in Angstrom), charge = 0, multiplicity = 1:

    O           -1.802035657468    -0.788984280340     2.950203628218
    C           -1.060131290198    -1.402092516459     2.263133199836
    C           -0.612778088018    -0.946099614539     0.888714115690
    O           -0.589537390152    -2.587087901682     2.684298240941
    C           -1.384601718027     0.276604501586     0.393537682604
    H            0.452292956125    -0.737938545405     0.930909040003
    H           -0.730115498291    -1.781491026492     0.202587760702
    C           -1.019905839215     0.699356894788    -1.033576230516
    H           -1.220722006667     1.102443480156     1.077751494011
    H           -2.445517407877     0.056123423147     0.438636733086
    C            0.409210037961     1.221267812431    -1.208657066970
    H           -1.713472139149     1.479050948886    -1.339351916312
    H           -1.185998559896    -0.134612704098    -1.713958608313
    C            0.684515822471     1.738986730989    -2.621916937637
    H            0.588688670492     2.020710088250    -0.491490300768
    H            1.126520538472     0.436597704062    -0.977395104953
    C            2.111817205770     2.255896710840    -2.810937751830
    H           -0.019280147314     2.535755048674    -2.855975811907
    H            0.493003521408     0.943661273767    -3.340561947885
    C            2.376721624753     2.775528240313    -4.223548278344
    H            2.305098783241     3.049730589154    -2.092577525558
    H            2.816906547820     1.459381181184    -2.581979579684
    H            3.396074269979     3.134554502394    -4.326183668920
    H            1.710360026834     3.597215820777    -4.470212508782
    H            2.224958522279     1.994724823898    -4.963517593921
    C            0.751700538287    -2.955147975968     2.459486431493
    H            0.951449316765    -3.140459083491     1.411144936157
    H            0.906019806580    -3.867718690261     3.013650344448
    H            1.431398636149    -2.197215031116     2.830938938114

  Mulliken Charges: (a.u.)
   Center  Symbol    Alpha    Beta     Spin     Total
       1     O     4.25930  4.25930  0.00000 -0.51859
       2     C     2.60387  2.60387  0.00000  0.79226
       3     C     3.22986  3.22986  0.00000 -0.45971
       4     O     4.30733  4.30733  0.00000 -0.61467
       5     C     3.15149  3.15149  0.00000 -0.30298
       6     H     0.40329  0.40329  0.00000  0.19341
       7     H     0.40319  0.40319  0.00000  0.19362
       8     C     3.15706  3.15706  0.00000 -0.31411
       9     H     0.40942  0.40942  0.00000  0.18116
      10     H     0.40799  0.40799  0.00000  0.18402
      11     C     3.15494  3.15494  0.00000 -0.30987
      12     H     0.41695  0.41695  0.00000  0.16610
      13     H     0.42395  0.42395  0.00000  0.15210
      14     C     3.15032  3.15032  0.00000 -0.30064
      15     H     0.42176  0.42176  0.00000  0.15648
      16     H     0.42632  0.42632  0.00000  0.14736
      17     C     3.15150  3.15150  0.00000 -0.30299
      18     H     0.42246  0.42246  0.00000  0.15508
      19     H     0.42392  0.42392  0.00000  0.15216
      20     C     3.23943  3.23943  0.00000 -0.47886
      21     H     0.42242  0.42242  0.00000  0.15516
      22     H     0.42424  0.42424  0.00000  0.15152
      23     H     0.41892  0.41892  0.00000  0.16215
      24     H     0.42104  0.42104  0.00000  0.15792
      25     H     0.42175  0.42175  0.00000  0.15650
      26     C     3.09416  3.09416  0.00000 -0.18833
      27     H     0.41833  0.41833  0.00000  0.16334
      28     H     0.39912  0.39912  0.00000  0.20177
      29     H     0.41568  0.41568  0.00000  0.16865

   Total alpha = 44.00000, Total beta = 44.00000, Total charge =  0.00000
