                              Psi4 1.0.54 Driver

  ==> Input File <==

--------------------------------------------------------------------------
set {
	reference rhf
	basis cc-pvtz
}

set_num_threads( 4 )
memory 2 gb

molecule MOL {
0 1

H	 -3.509326	 -0.102209	 -1.141893
O	 -3.515113	 -0.019339	 -0.206321
C	 -2.302264	 0.528872	 0.237390
C	 -1.175688	 -0.398187	 -0.171891
H	 -2.148018	 1.514076	 -0.197759
H	 -2.310727	 0.646384	 1.319032
C	 0.196029	 0.106276	 0.266738
H	 -1.201873	 -0.515469	 -1.250677
H	 -1.365975	 -1.378728	 0.252664
C	 1.330220	 -0.826136	 -0.155230
H	 0.359542	 1.097229	 -0.145561
H	 0.212134	 0.218135	 1.348778
C	 2.719700	 -0.407669	 0.328325
H	 1.339388	 -0.911200	 -1.239363
H	 1.119001	 -1.821953	 0.224128
C	 3.241564	 0.893452	 -0.276737
H	 3.418299	 -1.204729	 0.093035
H	 2.711776	 -0.323368	 1.411960
H	 3.254204	 0.841071	 -1.360784
H	 2.634460	 1.745075	 0.005842
H	 4.254264	 1.092401	 0.054971

	symmetry c1
}
set optking {
	frozen_dihedral = ("
		1 2 3 5
	")
}

ee,wfn = optimize('scf', return_wfn=True)
oeprop( wfn, 'DIPOLE', 'QUADRUPOLE', 'MULLIKEN_CHARGES')
f=open( 'psi4out.xyz', 'w' )
f.write( "21  " )
f.write( str(ee) + "\n" )
f.write( MOL.save_string_xyz() )
f.close()
--------------------------------------------------------------------------

    Molecular point group: c1
  Charge       = 0
  Multiplicity = 1
  Basis Set: CC-PVTZ
  Basis Set:
  @DF-RHF Final Energy:  -310.33105160705418
    Total Energy =                       -310.3310516070539506
    Molecular point group: c1
  Basis Set: CC-PVTZ
  Basis Set:
  Basis Set: CC-PVTZ
  Basis Set:
  @DF-RHF Final Energy:  -310.33117510971755
    Total Energy =                       -310.3311751097173783
  Basis Set: CC-PVTZ
  Basis Set:
  Basis Set: CC-PVTZ
  Basis Set:
  @DF-RHF Final Energy:  -310.33279755907768
    Total Energy =                       -310.3327975590772780
  Basis Set: CC-PVTZ
  Basis Set:
  Basis Set: CC-PVTZ
  Basis Set:
  @DF-RHF Final Energy:  -310.33282946364909
    Total Energy =                       -310.3328294636492046
  Basis Set: CC-PVTZ
  Basis Set:
  Charge       = 0
  Multiplicity = 1
  Basis Set: CC-PVTZ
  Basis Set:

    Orbital Energies (a.u.)
    -----------------------

    Doubly Occupied:

       1A    -20.545303     2A    -11.264741     3A    -11.216597
       4A    -11.215445     5A    -11.214486     6A    -11.214270
       7A    -11.208119     8A     -1.363341     9A     -1.090205
      10A     -1.036045    11A     -0.956436    12A     -0.880314
      13A     -0.819602    14A     -0.781484    15A     -0.695094
      16A     -0.644750    17A     -0.625028    18A     -0.615363
      19A     -0.593252    20A     -0.571476    21A     -0.551937
      22A     -0.523474    23A     -0.505025    24A     -0.502108
      25A     -0.477325    26A     -0.464017    27A     -0.461780
      28A     -0.458609    29A     -0.424698

  @DF-RHF Final Energy:  -310.33282904075270

   => Energetics <=

    Nuclear Repulsion Energy =            312.7094763430803823
    One-Electron Energy =               -1040.2439619136762303
    Two-Electron Energy =                 417.2016565298432624
    DFT Exchange-Correlation Energy =       0.0000000000000000
    Empirical Dispersion Energy =           0.0000000000000000
    PCM Polarization Energy =               0.0000000000000000
    EFP Energy =                            0.0000000000000000
    Total Energy =                       -310.3328290407525856
    Molecular point group: c1
  Basis Set: CC-PVTZ
  Basis Set:

  -Total Gradient:
     Atom            X                  Y                   Z
    ------   -----------------  -----------------  -----------------
       1       -0.000064636264     0.000048400809    -0.000026645819
       2        0.000095688981    -0.000132780029    -0.000084538757
       3        0.000053988075     0.000111692375     0.000174706456
       4       -0.000075804818    -0.000008686282    -0.000000694454
       5        0.000016117114     0.000007036009    -0.000084484746
       6        0.000031951974    -0.000015271755     0.000036098655
       7       -0.000110386767     0.000031748755     0.000015357208
       8       -0.000007724531    -0.000000209196    -0.000009157686
       9       -0.000000755433    -0.000052281733    -0.000011046278
      10        0.000012031720     0.000023959720    -0.000068332775
      11       -0.000065685901    -0.000039554499    -0.000004121986
      12        0.000034934467     0.000030637124     0.000023764953
      13       -0.000019792888     0.000010268620     0.000101885932
      14       -0.000017841582     0.000030660997    -0.000019704264
      15        0.000020616567    -0.000028921861    -0.000034029243
      16        0.000008618543     0.000001123785    -0.000021920705
      17        0.000001961654    -0.000027575949     0.000021351447
      18        0.000008802925     0.000019918373     0.000032731784
      19       -0.000001995012     0.000019074572    -0.000033723674
      20        0.000069474788    -0.000009366694     0.000005185167
      21        0.000010436383    -0.000019873141    -0.000012681214

  **** Optimization is complete! (in 5 steps) ****
    Final optimized geometry and variables:
    Molecular point group: c1

    Geometry (in Angstrom), charge = 0, multiplicity = 1:

    H           -3.693884268020     0.189732608248    -0.824904382211
    O           -3.566575743639     0.144038755363     0.105248373630
    C           -2.268084333148     0.559938911556     0.431222726552
    C           -1.195600164249    -0.349321221790    -0.146217103719
    H           -2.103383386977     1.585317692351     0.106417666859
    H           -2.217008581732     0.554525451194     1.512456959338
    C            0.216226135056     0.070706732581     0.252972553447
    H           -1.279685098607    -0.352252159737    -1.231668430084
    H           -1.390653139482    -1.365272252135     0.182386424349
    C            1.294382051113    -0.840779891032    -0.330753196900
    H            0.385445612152     1.095106748496    -0.064009893000
    H            0.297595070553     0.068725439787     1.337599571754
    C            2.720808576114    -0.517510462244     0.117147351724
    H            1.244157111131    -0.805934188762    -1.416722732922
    H            1.069712120619    -1.866037032708    -0.050523034592
    C            3.258379506091     0.822344403737    -0.379883769572
    H            3.377030819510    -1.307190443649    -0.235550309264
    H            2.770734238976    -0.545791238551     1.202475442000
    H            3.211005099164     0.883512715786    -1.462562911024
    H            2.700616610346     1.658942379782     0.023361768636
    H            4.294239925731     0.952349609407    -0.088159018382

  Mulliken Charges: (a.u.)
   Center  Symbol    Alpha    Beta     Spin     Total
       1     H     0.39522  0.39522  0.00000  0.20956
       2     O     4.20105  4.20105  0.00000 -0.40210
       3     C     2.96786  2.96786  0.00000  0.06429
       4     C     3.09377  3.09377  0.00000 -0.18754
       5     H     0.47151  0.47151  0.00000  0.05699
       6     H     0.45471  0.45471  0.00000  0.09058
       7     C     3.10261  3.10261  0.00000 -0.20523
       8     H     0.46247  0.46247  0.00000  0.07506
       9     H     0.44837  0.44837  0.00000  0.10327
      10     C     3.09419  3.09419  0.00000 -0.18837
      11     H     0.45302  0.45302  0.00000  0.09396
      12     H     0.45285  0.45285  0.00000  0.09429
      13     C     3.09024  3.09024  0.00000 -0.18048
      14     H     0.45385  0.45385  0.00000  0.09230
      15     H     0.44841  0.44841  0.00000  0.10317
      16     C     3.15246  3.15246  0.00000 -0.30492
      17     H     0.44822  0.44822  0.00000  0.10357
      18     H     0.45430  0.45430  0.00000  0.09140
      19     H     0.45504  0.45504  0.00000  0.08992
      20     H     0.45385  0.45385  0.00000  0.09230
      21     H     0.44600  0.44600  0.00000  0.10800

   Total alpha = 29.00000, Total beta = 29.00000, Total charge = -0.00000

*** Psi4 exiting successfully. Buy a developer a beer!
