  ==> Input File <==

--------------------------------------------------------------------------
set {
	reference rhf
	basis cc-pvtz
}

set_num_threads( 4 )
memory 2 gb

molecule MOL {
0 1

H	 1.128311	 0.207724	 1.465118
C	 1.134565	 0.093781	 0.372499
C	 0.062554	 0.862911	 -0.350953
O	 1.948932	 -0.587720	 -0.146651
C	 0.213370	 0.793906	 -1.873814
H	 0.073333	 1.885553	 0.003422
H	 -0.888072	 0.418309	 -0.065098
C	 1.455311	 1.512008	 -2.393971
H	 -0.670996	 1.227875	 -2.325635
H	 0.233368	 -0.246345	 -2.186742
H	 1.437552	 2.562231	 -2.125138
H	 1.514957	 1.444885	 -3.473591
H	 2.365516	 1.086096	 -1.986341

	symmetry c1
}
set optking {
	frozen_dihedral = ("
		6 3 2 4
	")
}

ee = optimize('scf')
oeprop('DIPOLE', 'QUADRUPOLE', 'MULLIKEN_CHARGES')
f=open( 'psi4out.xyz', 'w' )
f.write( "13  " )
f.write( str(ee) + "\n" )
f.write( MOL.save_string_xyz() )
f.close()
--------------------------------------------------------------------------

    Molecular point group: c1
  Charge       = 0
  Multiplicity = 1
  Basis Set: CC-PVTZ
  Basis Set:
  @DF-RHF Final Energy:  -231.07055679348775
    Total Energy =                       -231.0705567934877536
    Molecular point group: c1
  Basis Set: CC-PVTZ
  Basis Set:
  Basis Set: CC-PVTZ
  Basis Set:
  @DF-RHF Final Energy:  -231.07110623197312
    Total Energy =                       -231.0711062319731468
  Basis Set: CC-PVTZ
  Basis Set:
  Basis Set: CC-PVTZ
  Basis Set:
  @DF-RHF Final Energy:  -231.07003751676848
    Total Energy =                       -231.0700375167682807
  Basis Set: CC-PVTZ
  Basis Set:
  Basis Set: CC-PVTZ
  Basis Set:
  @DF-RHF Final Energy:  -231.07163566690969
    Total Energy =                       -231.0716356669095717
  Basis Set: CC-PVTZ
  Basis Set:
  Basis Set: CC-PVTZ
  Basis Set:
  @DF-RHF Final Energy:  -231.07166009046537
    Total Energy =                       -231.0716600904653433
  Basis Set: CC-PVTZ
  Basis Set:
  Basis Set: CC-PVTZ
  Basis Set:
  @DF-RHF Final Energy:  -231.07166429771095
    Total Energy =                       -231.0716642977107256
  Basis Set: CC-PVTZ
  Basis Set:
  Charge       = 0
  Multiplicity = 1
  Basis Set: CC-PVTZ
  Basis Set:

    Orbital Energies (a.u.)
    -----------------------

    Doubly Occupied:

       1A    -20.553582     2A    -11.323859     3A    -11.237223
       4A    -11.223784     5A    -11.208386     6A     -1.409303
       7A     -1.079296     8A     -0.974050     9A     -0.851025
      10A     -0.766064    11A     -0.688760    12A     -0.642895
      13A     -0.625522    14A     -0.584956    15A     -0.566660
      16A     -0.524409    17A     -0.497065    18A     -0.484647
      19A     -0.483254    20A     -0.414138

  @DF-RHF Final Energy:  -231.07166453904898

   => Energetics <=

    Nuclear Repulsion Energy =            176.5176006784733431
    One-Electron Energy =                -662.9007744510570319
    Two-Electron Energy =                 255.3115092335347072
    DFT Exchange-Correlation Energy =       0.0000000000000000
    Empirical Dispersion Energy =           0.0000000000000000
    PCM Polarization Energy =               0.0000000000000000
    EFP Energy =                            0.0000000000000000
    Total Energy =                       -231.0716645390489816
    Molecular point group: c1
  Basis Set: CC-PVTZ
  Basis Set:

  -Total Gradient:
     Atom            X                  Y                   Z
    ------   -----------------  -----------------  -----------------
       1       -0.000001485731    -0.000009162732    -0.000008261311
       2       -0.000112275248    -0.000098732041    -0.000021989750
       3       -0.000042606736     0.000006454229     0.000067691479
       4        0.000098865238     0.000081177336    -0.000013575620
       5       -0.000008528473     0.000005408193     0.000026360258
       6        0.000074594313     0.000027944038    -0.000082471700
       7       -0.000015224339     0.000003356550     0.000001199191
       8        0.000005238986    -0.000003750758     0.000008308579
       9       -0.000004492566    -0.000002508239     0.000007531745
      10        0.000002537127    -0.000001320339     0.000003910422
      11       -0.000000028879    -0.000004145398     0.000002238263
      12       -0.000002261655    -0.000003446584     0.000006600966
      13        0.000005667965    -0.000001274254     0.000002457479

  **** Optimization is complete! (in 7 steps) ****
    Final optimized geometry and variables:
    Molecular point group: c1

    Geometry (in Angstrom), charge = 0, multiplicity = 1:

    H            0.066259570750    -0.341131901785     2.374607321317
    C            0.132249158213    -0.459836897295     1.285889008747
    C           -0.875463918215     0.344316877041     0.508133315545
    O            0.937276925208    -1.188413629778     0.817998334172
    C           -0.742726227247     0.272923368832    -1.009408407258
    H           -0.815315217812     1.371252016642     0.862701006382
    H           -1.851789476641    -0.014234178124     0.829727344792
    C            0.458954566351     1.038204701203    -1.556524000174
    H           -1.650938663220     0.672411150378    -1.448152774134
    H           -0.680107146184    -0.765952508816    -1.309614734647
    H            0.402139141025     2.090397902974    -1.295356236824
    H            0.495028378834     0.970125513943    -2.637360139458
    H            1.387609819208     0.642218498298    -1.167777838345

  Mulliken Charges: (a.u.)
   Center  Symbol    Alpha    Beta     Spin     Total
       1     H     0.45093  0.45093  0.00000  0.09815
       2     C     2.91831  2.91831  0.00000  0.16338
       3     C     3.09774  3.09774  0.00000 -0.19548
       4     O     4.16724  4.16724  0.00000 -0.33449
       5     C     3.08432  3.08432  0.00000 -0.16863
       6     H     0.44737  0.44737  0.00000  0.10525
       7     H     0.43940  0.43940  0.00000  0.12120
       8     C     3.15139  3.15139  0.00000 -0.30279
       9     H     0.44739  0.44739  0.00000  0.10522
      10     H     0.44641  0.44641  0.00000  0.10719
      11     H     0.45861  0.45861  0.00000  0.08278
      12     H     0.44777  0.44777  0.00000  0.10446
      13     H     0.44312  0.44312  0.00000  0.11375

   Total alpha = 20.00000, Total beta = 20.00000, Total charge = -0.00000
