  ==> Input File <==

--------------------------------------------------------------------------
set {
	reference rhf
	basis 6-31G*
}

set_num_threads( 4 )
memory 2 gb

molecule MOL {
0 1

O	 -3.477472	 -0.024120	 -0.858608
C	 -2.668563	 0.129746	 -0.000350
C	 -2.879959	 1.009581	 1.204835
O	 -1.481751	 -0.454642	 0.000584
H	 -3.754389	 0.660834	 1.741128
H	 -2.021875	 1.007631	 1.860674
H	 -3.083417	 2.018845	 0.867389
C	 -0.334255	 0.388708	 0.000906
C	 0.891947	 -0.504646	 0.000751
H	 -0.365390	 1.025305	 -0.873475
H	 -0.365484	 1.024911	 0.875569
C	 2.191998	 0.301789	 0.000897
H	 0.855148	 -1.151283	 -0.871571
H	 0.855132	 -1.151660	 0.872805
C	 3.441114	 -0.581407	 0.000108
H	 2.215074	 0.954890	 -0.869742
H	 2.215465	 0.953923	 0.872248
C	 4.739576	 0.224112	 -0.001102
H	 3.419457	 -1.233487	 -0.870178
H	 3.420834	 -1.233096	 0.870717
H	 4.804918	 0.861552	 -0.878265
H	 5.606527	 -0.429058	 -0.001824
H	 4.806469	 0.861674	 0.875853

	symmetry c1
}
set optking {
	frozen_dihedral = ("
		1 2 4 8
	")
}

ee = optimize('scf')
oeprop('DIPOLE', 'QUADRUPOLE', 'MULLIKEN_CHARGES')
f=open( 'psi4out.xyz', 'w' )
f.write( "23  " )
f.write( str(ee) + "\n" )
f.write( MOL.save_string_xyz() )
f.close()
--------------------------------------------------------------------------

    Molecular point group: c1
  Charge       = 0
  Multiplicity = 1
  Basis Set: 6-31G*
  Basis Set:
  @DF-RHF Final Energy:  -422.95610133252336
    Total Energy =                       -422.9561013325236445
    Molecular point group: c1
  Basis Set: 6-31G*
  Basis Set:
  Basis Set: 6-31G*
  Basis Set:
  @DF-RHF Final Energy:  -422.95554850448150
    Total Energy =                       -422.9555485044812713
  Basis Set: 6-31G*
  Basis Set:
  Basis Set: 6-31G*
  Basis Set:
  @DF-RHF Final Energy:  -422.95835913923258
    Total Energy =                       -422.9583591392325843
  Basis Set: 6-31G*
  Basis Set:
  Basis Set: 6-31G*
  Basis Set:
  @DF-RHF Final Energy:  -422.95964751595420
    Total Energy =                       -422.9596475159539750
  Basis Set: 6-31G*
  Basis Set:
  @DF-RHF Final Energy:  -422.95987870544315
    Total Energy =                       -422.9598787054426339
  @DF-RHF Final Energy:  -422.96022343601265
    Total Energy =                       -422.9602234360131661
  @DF-RHF Final Energy:  -422.96055725448610
    Total Energy =                       -422.9605572544867300
  @DF-RHF Final Energy:  -422.96076075150773
    Total Energy =                       -422.9607607515084737
  Basis Set: 6-31G*
  Basis Set:
  @DF-RHF Final Energy:  -422.96080462176900
    Total Energy =                       -422.9608046217683750
  Basis Set: 6-31G*
  Basis Set:
  Basis Set: 6-31G*
  Basis Set:
  @DF-RHF Final Energy:  -422.96081911393316
    Total Energy =                       -422.9608191139338942
  Basis Set: 6-31G*
  Basis Set:
  Basis Set: 6-31G*
  Basis Set:
  @DF-RHF Final Energy:  -422.96082219626180
    Total Energy =                       -422.9608221962621428
  Basis Set: 6-31G*
  Basis Set:
  Charge       = 0
  Multiplicity = 1
  Basis Set: 6-31G*
  Basis Set:

    Orbital Energies (a.u.)
    -----------------------

    Doubly Occupied:

       1A    -20.586833     2A    -20.550869     3A    -11.376127
       4A    -11.295409     5A    -11.238779     6A    -11.228261
       7A    -11.227516     8A    -11.224236     9A    -11.215379
      10A     -1.457789    11A     -1.366398    12A     -1.096192
      13A     -1.035907    14A     -1.011549    15A     -0.938804
      16A     -0.845227    17A     -0.806383    18A     -0.776489
      19A     -0.698333    20A     -0.689060    21A     -0.657227
      22A     -0.649222    23A     -0.618972    24A     -0.592921
      25A     -0.579817    26A     -0.577831    27A     -0.567062
      28A     -0.544984    29A     -0.520875    30A     -0.502005
      31A     -0.488139    32A     -0.481052    33A     -0.474659
      34A     -0.473979    35A     -0.452202    36A     -0.432625

  @DF-RHF Final Energy:  -422.96082235000409

   => Energetics <=

    Nuclear Repulsion Energy =            449.2064647316482819
    One-Electron Energy =               -1465.7763497136957085
    Two-Electron Energy =                 593.6090626320432193
    DFT Exchange-Correlation Energy =       0.0000000000000000
    Empirical Dispersion Energy =           0.0000000000000000
    PCM Polarization Energy =               0.0000000000000000
    EFP Energy =                            0.0000000000000000
    Total Energy =                       -422.9608223500041504
    Molecular point group: c1
  Basis Set: 6-31G*
  Basis Set:

  -Total Gradient:
     Atom            X                  Y                   Z
    ------   -----------------  -----------------  -----------------
       1        0.001181792840     0.002299080818    -0.001767102142
       2       -0.001663952769    -0.003461230037     0.001267080444
       3       -0.000032928976     0.000021706445    -0.000020010497
       4        0.000379051683     0.001395197202     0.003081467971
       5       -0.000006724009     0.000014330980     0.000014868834
       6        0.000008075389    -0.000012348110     0.000011598399
       7       -0.000005405898    -0.000008706371    -0.000001421077
       8        0.000123885019    -0.000258279621    -0.002599675627
       9        0.000001423314     0.000004278705    -0.000012320172
      10        0.000028903741     0.000020414213    -0.000005769168
      11       -0.000005822450    -0.000016995305     0.000005993323
      12        0.000000711389     0.000000738132     0.000014858656
      13       -0.000008433662    -0.000003431603    -0.000000328385
      14        0.000003884284     0.000005082266     0.000000972076
      15       -0.000004240159    -0.000000652600     0.000007283847
      16       -0.000002053423    -0.000000537385     0.000003971451
      17        0.000003208646     0.000000131831     0.000004256432
      18       -0.000000778589     0.000001342351    -0.000007941344
      19       -0.000003191168    -0.000002514814     0.000002895949
      20        0.000002705936     0.000002491636     0.000002191361
      21        0.000000964462     0.000002501849     0.000000238696
      22       -0.000000179382    -0.000000059182    -0.000002825172
      23       -0.000000896213    -0.000002541399    -0.000000283856

  **** Optimization is complete! (in 12 steps) ****
    Final optimized geometry and variables:
    Molecular point group: c1

    Geometry (in Angstrom), charge = 0, multiplicity = 1:

    O           -3.432898904517    -0.282843747714    -0.887822878771
    C           -2.712402473727     0.027591838133    -0.004269671160
    C           -3.094557807673     1.013254868676     1.074128091505
    O           -1.484054317303    -0.511910855092     0.106615644636
    H           -4.161253136023     1.178441551407     1.041226518678
    H           -2.801230733467     0.642835536505     2.049230578974
    H           -2.592140163616     1.961554952326     0.911886198877
    C           -0.349912647632     0.338817056828     0.067594401140
    C            0.884845370638    -0.539815665044    -0.006860732477
    H           -0.414521709740     0.984210528306    -0.802897829038
    H           -0.320069807989     0.964104497471     0.954595444562
    C            2.178391551283     0.275293344267    -0.051759793297
    H            0.804761562859    -1.169231085602    -0.887491166166
    H            0.888015515168    -1.201625304877     0.854387994491
    C            3.430096699088    -0.601007718498    -0.128980382654
    H            2.158016148265     0.944704759016    -0.910184729282
    H            2.241378467635     0.910664539473     0.830359102800
    C            4.723182152118     0.211623314491    -0.176770989334
    H            3.369208451308    -1.236303612542    -1.009456908605
    H            3.454038268502    -1.269065988094     0.728909034467
    H            4.743805840489     0.865711504084    -1.043820910383
    H            5.591766704859    -0.436885327575    -0.231499162867
    H            4.829539821740     0.832751008244     0.708139429938

  Mulliken Charges: (a.u.)
   Center  Symbol    Alpha    Beta     Spin     Total
       1     O     4.24996  4.24996  0.00000 -0.49993
       2     C     2.62435  2.62435  0.00000  0.75131
       3     C     3.29900  3.29900  0.00000 -0.59801
       4     O     4.31571  4.31571  0.00000 -0.63143
       5     H     0.39214  0.39214  0.00000  0.21571
       6     H     0.40147  0.40147  0.00000  0.19706
       7     H     0.40361  0.40361  0.00000  0.19277
       8     C     2.99552  2.99552  0.00000  0.00896
       9     C     3.16237  3.16237  0.00000 -0.32474
      10     H     0.41719  0.41719  0.00000  0.16563
      11     H     0.42257  0.42257  0.00000  0.15487
      12     C     3.16124  3.16124  0.00000 -0.32247
      13     H     0.40763  0.40763  0.00000  0.18474
      14     H     0.41189  0.41189  0.00000  0.17622
      15     C     3.15175  3.15175  0.00000 -0.30351
      16     H     0.42118  0.42118  0.00000  0.15764
      17     H     0.42272  0.42272  0.00000  0.15455
      18     C     3.24003  3.24003  0.00000 -0.48005
      19     H     0.41961  0.41961  0.00000  0.16077
      20     H     0.42068  0.42068  0.00000  0.15864
      21     H     0.42081  0.42081  0.00000  0.15837
      22     H     0.41712  0.41712  0.00000  0.16576
      23     H     0.42144  0.42144  0.00000  0.15713

   Total alpha = 36.00000, Total beta = 36.00000, Total charge = -0.00000
