  ==> Input File <==

--------------------------------------------------------------------------
set {
	reference rhf
	basis 6-31G*
}

set_num_threads( 4 )
memory 2 gb

molecule MOL {
0 1

H	 -1.001725	 0.664899	 -2.578816
O	 -1.422924	 1.400773	 -2.155809
C	 -0.743564	 1.694979	 -0.970113
C	 -0.793441	 0.596080	 0.058728
H	 -1.206996	 2.589633	 -0.570078
H	 0.296714	 1.947642	 -1.172615
C	 -1.530462	 -0.493172	 -0.025500
H	 -0.163712	 0.751216	 0.921199
H	 -1.092586	 -1.461565	 -0.186463
H	 -2.602122	 -0.450675	 0.050101

	symmetry c1
}
set optking {
	frozen_dihedral = ("
		3 4 7 9
	")
}

ee = optimize('scf')
oeprop('DIPOLE', 'QUADRUPOLE', 'MULLIKEN_CHARGES')
f=open( 'psi4out.xyz', 'w' )
f.write( "10  " )
f.write( str(ee) + "\n" )
f.write( MOL.save_string_xyz() )
f.close()
--------------------------------------------------------------------------

    Molecular point group: c1
  Charge       = 0
  Multiplicity = 1
  Basis Set: 6-31G*
  Basis Set:
  @DF-RHF Final Energy:  -191.80603972568323
    Total Energy =                       -191.8060397256830925
    Molecular point group: c1
  Basis Set: 6-31G*
  Basis Set:
  Basis Set: 6-31G*
  Basis Set:
  @DF-RHF Final Energy:  -191.83772362373975
    Total Energy =                       -191.8377236237397767
  Basis Set: 6-31G*
  Basis Set:
  Basis Set: 6-31G*
  Basis Set:
  @DF-RHF Final Energy:  -191.86529113199299
    Total Energy =                       -191.8652911319929615
  Basis Set: 6-31G*
  Basis Set:
  Basis Set: 6-31G*
  Basis Set:
  @DF-RHF Final Energy:  -191.87132264411164
    Total Energy =                       -191.8713226441115580
  Basis Set: 6-31G*
  Basis Set:
  @DF-RHF Final Energy:  -191.87193997432496
    Total Energy =                       -191.8719399743249028
  @DF-RHF Final Energy:  -191.87204891620490
    Total Energy =                       -191.8720489162049319
  @DF-RHF Final Energy:  -191.87043173717615
    Total Energy =                       -191.8704317371761476
  @DF-RHF Final Energy:  -191.87208913856267
    Total Energy =                       -191.8720891385627283
  @DF-RHF Final Energy:  -191.87209767579935
    Total Energy =                       -191.8720976757993810
  @DF-RHF Final Energy:  -191.87209916152426
    Total Energy =                       -191.8720991615242610
  @DF-RHF Final Energy:  -191.87209873399212
    Total Energy =                       -191.8720987339920896
  @DF-RHF Final Energy:  -191.87209865165363
    Total Energy =                       -191.8720986516536300
  @DF-RHF Final Energy:  -191.87209815595753
    Total Energy =                       -191.8720981559573602
  @DF-RHF Final Energy:  -191.87209738384576
    Total Energy =                       -191.8720973838457269
  @DF-RHF Final Energy:  -191.87209711274031
    Total Energy =                       -191.8720971127402777
  @DF-RHF Final Energy:  -191.87209701961444
    Total Energy =                       -191.8720970196143583
  @DF-RHF Final Energy:  -191.87209520261604
    Total Energy =                       -191.8720952026160660
  @DF-RHF Final Energy:  -191.87209640927995
    Total Energy =                       -191.8720964092798908
  @DF-RHF Final Energy:  -191.87209643875434
    Total Energy =                       -191.8720964387543972
  @DF-RHF Final Energy:  -191.87209641156267
    Total Energy =                       -191.8720964115626657
  @DF-RHF Final Energy:  -191.87209614330703
    Total Energy =                       -191.8720961433070045
  @DF-RHF Final Energy:  -191.87209624197777
    Total Energy =                       -191.8720962419776583
  @DF-RHF Final Energy:  -191.87209600374098
    Total Energy =                       -191.8720960037410634
  @DF-RHF Final Energy:  -191.87209629201618
    Total Energy =                       -191.8720962920161526
  @DF-RHF Final Energy:  -191.87209632373060
    Total Energy =                       -191.8720963237305170
  @DF-RHF Final Energy:  -191.87209625043914
    Total Energy =                       -191.8720962504391139
  @DF-RHF Final Energy:  -191.87209599768596
    Total Energy =                       -191.8720959976859604
  @DF-RHF Final Energy:  -191.87209628728749
    Total Energy =                       -191.8720962872874338
  @DF-RHF Final Energy:  -191.87209624536638
    Total Energy =                       -191.8720962453663788
  @DF-RHF Final Energy:  -191.87209630741506
    Total Energy =                       -191.8720963074149495
  @DF-RHF Final Energy:  -191.87209595243422
    Total Energy =                       -191.8720959524342220
  @DF-RHF Final Energy:  -191.87209604991733
    Total Energy =                       -191.8720960499173316
  @DF-RHF Final Energy:  -191.87209539571887
    Total Energy =                       -191.8720953957189295
  @DF-RHF Final Energy:  -191.87209589986560
    Total Energy =                       -191.8720958998655988
  @DF-RHF Final Energy:  -191.87209628196553
    Total Energy =                       -191.8720962819655256
  @DF-RHF Final Energy:  -191.87209640112928
    Total Energy =                       -191.8720964011293120
  Basis Set: 6-31G*
  Basis Set:
  @DF-RHF Final Energy:  -191.87209634829134
    Total Energy =                       -191.8720963482914499
  Basis Set: 6-31G*
  Basis Set:
  Basis Set: 6-31G*
  Basis Set:
  @DF-RHF Final Energy:  -191.87209626957014
    Total Energy =                       -191.8720962695701644
  Basis Set: 6-31G*
  Basis Set:
  Basis Set: 6-31G*
  Basis Set:
  @DF-RHF Final Energy:  -191.87209495449494
    Total Energy =                       -191.8720949544948553
  Basis Set: 6-31G*
  Basis Set:
  Charge       = 0
  Multiplicity = 1
  Basis Set: 6-31G*
  Basis Set:

    Orbital Energies (a.u.)
    -----------------------

    Doubly Occupied:

       1A    -20.564059     2A    -11.289653     3A    -11.243607
       4A    -11.224080     5A     -1.374646     6A     -1.063212
       7A     -0.935432     8A     -0.774005     9A     -0.693886
      10A     -0.654312    11A     -0.622064    12A     -0.582147
      13A     -0.527139    14A     -0.500350    15A     -0.449482
      16A     -0.350184

  @DF-RHF Final Energy:  -191.87209614714351

   => Energetics <=

    Nuclear Repulsion Energy =            118.8554328035870213
    One-Electron Energy =                -495.7585450374821221
    Two-Electron Energy =                 185.0310160867516629
    DFT Exchange-Correlation Energy =       0.0000000000000000
    Empirical Dispersion Energy =           0.0000000000000000
    PCM Polarization Energy =               0.0000000000000000
    EFP Energy =                            0.0000000000000000
    Total Energy =                       -191.8720961471434521
    Molecular point group: c1
  Basis Set: 6-31G*
  Basis Set:

  -Total Gradient:
     Atom            X                  Y                   Z
    ------   -----------------  -----------------  -----------------
       1        0.000019108370     0.000033303100     0.000107506815
       2       -0.000109331301    -0.000053713063    -0.000015482581
       3        0.027978418387    -0.011697333567    -0.006412968000
       4       -0.044636161217     0.020420130324    -0.008983013060
       5        0.000107425732    -0.000403649947     0.000107642039
       6        0.000180907440     0.000045270100     0.000103427573
       7        0.008987397478    -0.008800113849     0.056233973230
       8       -0.000011308636     0.000005126197     0.000159661717
       9        0.007519022229     0.000256093167    -0.041294075808
      10       -0.000035478481     0.000194887538    -0.000006671922

    Molecular point group: c1

    Geometry (in Angstrom), charge = 0, multiplicity = 1:

    H           -0.242376255131    -0.196777778083    -1.632670427544
    O           -0.365915494698     0.675374508176    -1.283181779913
    C            0.430364939819     0.831153850553    -0.151929056660
    C            0.221653736148    -0.192920547209     0.941376710563
    H            0.279137215453     1.848588599871     0.187510563737
    H            1.487355715122     0.729492732984    -0.391215431594
    C           -0.307329707524    -1.406992312165     0.847474580278
    H            1.018364425298    -0.087860629838     1.671278056623
    H            0.237433841429    -2.329976675112     0.946908419490
    H           -1.076722999396    -1.528667984699     0.092662237673

  Mulliken Charges: (a.u.)
   Center  Symbol    Alpha    Beta     Spin     Total
       1     H     0.28020  0.28020  0.00000  0.43960
       2     O     4.36372  4.36372  0.00000 -0.72744
       3     C     3.00121  3.00121  0.00000 -0.00242
       4     C     3.07786  3.07786  0.00000 -0.15571
       5     H     0.40899  0.40899  0.00000  0.18201
       6     H     0.41840  0.41840  0.00000  0.16319
       7     C     3.20302  3.20302  0.00000 -0.40605
       8     H     0.41948  0.41948  0.00000  0.16104
       9     H     0.40310  0.40310  0.00000  0.19381
      10     H     0.42402  0.42402  0.00000  0.15197

   Total alpha = 16.00000, Total beta = 16.00000, Total charge = -0.00000
