  ==> Input File <==

--------------------------------------------------------------------------
set {
	reference rhf
	basis 6-31G*
}

set_num_threads( 1 )
memory 2 gb

molecule MOL {
0 1

H	 -4.236494	 0.538104	 0.039757
O	 -3.517110	 -0.026191	 -0.205115
C	 -2.306886	 0.532354	 0.237577
C	 -1.177863	 -0.397191	 -0.171080
H	 -2.156308	 1.517575	 -0.201710
H	 -2.315015	 0.655684	 1.319734
C	 0.198102	 0.111031	 0.262842
H	 -1.208843	 -0.518759	 -1.250427
H	 -1.368741	 -1.376554	 0.258909
C	 1.331804	 -0.827780	 -0.158768
H	 0.361943	 1.100838	 -0.156218
H	 0.217265	 0.229072	 1.345532
C	 2.723619	 -0.410569	 0.329459
H	 1.342964	 -0.912588	 -1.244120
H	 1.116806	 -1.824343	 0.220779
C	 3.387866	 -1.405417	 1.283077
H	 2.637673	 0.549521	 0.832379
H	 3.371353	 -0.245435	 -0.529224
H	 2.756512	 -1.599634	 2.146043
H	 3.591778	 -2.356151	 0.801723
H	 4.333715	 -1.016676	 1.647775

	symmetry c1
}
set optking {
	frozen_dihedral = ("
		2 3 4 8,
		8 4 7 10,
		4 7 10 14,
		1 2 3 5
	")
}

ee = energy('scf')
oeprop('DIPOLE', 'QUADRUPOLE', 'MULLIKEN_CHARGES')
f=open( 'psi4out.xyz', 'w' )
f.write( "21  " )
f.write( str(ee) + "\n" )
f.write( MOL.save_string_xyz() )
f.close()
--------------------------------------------------------------------------

    Molecular point group: c1

    Geometry (in Angstrom), charge = 0, multiplicity = 1:

       Center              X                  Y                   Z               Mass
    ------------   -----------------  -----------------  -----------------  -----------------
           H         -4.257399228477     0.875898114457    -0.189305962945     1.007825032070
           O         -3.538015228477     0.311603114457    -0.434177962945    15.994914619560
           C         -2.327791228477     0.870148114457     0.008514037055    12.000000000000
           C         -1.198768228477    -0.059396885543    -0.400142962945    12.000000000000
           H         -2.177213228477     1.855369114457    -0.430772962945     1.007825032070
           H         -2.335920228477     0.993478114457     1.090671037055     1.007825032070
           C          0.177196771523     0.448825114457     0.033779037055    12.000000000000
           H         -1.229748228477    -0.180964885543    -1.479489962945     1.007825032070
           H         -1.389646228477    -1.038759885543     0.029846037055     1.007825032070
           C          1.310898771523    -0.489985885543    -0.387830962945    12.000000000000
           H          0.341037771523     1.438632114457    -0.385280962945     1.007825032070
           H          0.196359771523     0.566866114457     1.116469037055     1.007825032070
           C          2.702713771523    -0.072774885543     0.100396037055    12.000000000000
           H          1.322058771523    -0.574793885543    -1.473182962945     1.007825032070
           H          1.095900771523    -1.486548885543    -0.008283962945     1.007825032070
           C          3.366960771523    -1.067622885543     1.054014037055    12.000000000000
           H          2.616767771523     0.887315114457     0.603316037055     1.007825032070
           H          3.350447771523     0.092359114457    -0.758286962945     1.007825032070
           H          2.735606771523    -1.261839885543     1.916980037055     1.007825032070
           H          3.570872771523    -2.018356885543     0.572660037055     1.007825032070
           H          4.312809771523    -0.678881885543     1.418712037055     1.007825032070

  Charge       = 0
  Multiplicity = 1
  Basis Set: 6-31G*
  Basis Set:

    Orbital Energies (a.u.)
    -----------------------

    Doubly Occupied:

       1A    -20.551879     2A    -11.267135     3A    -11.216787
       4A    -11.213478     5A    -11.212003     6A    -11.210461
       7A    -11.208626     8A     -1.358701     9A     -1.085571
      10A     -1.033823    11A     -0.956147    12A     -0.870122
      13A     -0.803586    14A     -0.787830    15A     -0.692400
      16A     -0.661882    17A     -0.624521    18A     -0.602563
      19A     -0.585632    20A     -0.563055    21A     -0.543955
      22A     -0.522437    23A     -0.507123    24A     -0.486572
      25A     -0.478004    26A     -0.460729    27A     -0.453907
      28A     -0.443080    29A     -0.434006

  @DF-RHF Final Energy:  -310.20834451177262

   => Energetics <=

    Nuclear Repulsion Energy =            309.9012743900051987
    One-Electron Energy =               -1034.5471483877990977
    Two-Electron Energy =                 414.4375294860215035
    DFT Exchange-Correlation Energy =       0.0000000000000000
    Empirical Dispersion Energy =           0.0000000000000000
    PCM Polarization Energy =               0.0000000000000000
    EFP Energy =                            0.0000000000000000
    Total Energy =                       -310.2083445117723386

  Mulliken Charges: (a.u.)
   Center  Symbol    Alpha    Beta     Spin     Total
       1     H     0.28117  0.28117  0.00000  0.43765
       2     O     4.37171  4.37171  0.00000 -0.74342
       3     C     2.98983  2.98983  0.00000  0.02035
       4     C     3.15998  3.15998  0.00000 -0.31996
       5     H     0.43292  0.43292  0.00000  0.13415
       6     H     0.43290  0.43290  0.00000  0.13420
       7     C     3.16222  3.16222  0.00000 -0.32443
       8     H     0.41469  0.41469  0.00000  0.17063
       9     H     0.41455  0.41455  0.00000  0.17090
      10     C     3.15403  3.15403  0.00000 -0.30806
      11     H     0.42268  0.42268  0.00000  0.15463
      12     H     0.42356  0.42356  0.00000  0.15289
      13     C     3.15493  3.15493  0.00000 -0.30986
      14     H     0.42002  0.42002  0.00000  0.15995
      15     H     0.42000  0.42000  0.00000  0.16000
      16     C     3.24015  3.24015  0.00000 -0.48029
      17     H     0.42104  0.42104  0.00000  0.15793
      18     H     0.42030  0.42030  0.00000  0.15939
      19     H     0.42222  0.42222  0.00000  0.15556
      20     H     0.42060  0.42060  0.00000  0.15880
      21     H     0.42051  0.42051  0.00000  0.15897

   Total alpha = 29.00000, Total beta = 29.00000, Total charge = -0.00000
