  ==> Input File <==

--------------------------------------------------------------------------
set {
	reference rhf
	basis 6-31G*
}

set_num_threads( 1 )
memory 2 gb

molecule MOL {
0 1

H	 -3.161837	 0.500524	 -0.000234
C	 -2.367097	 -0.232926	 -0.000000
O	 -1.158440	 0.455814	 -0.000122
H	 -2.468853	 -0.861886	 -0.882833
H	 -2.468942	 -0.861421	 0.883154
C	 -0.029776	 -0.365156	 0.000148
C	 1.212217	 0.508981	 0.000007
H	 -0.036772	 -1.013236	 -0.877259
H	 -0.036869	 -1.012778	 0.877897
C	 2.481573	 -0.279114	 0.320196
H	 1.300098	 0.982026	 -0.973218
H	 1.072563	 1.305727	 0.724156
H	 2.653155	 -1.067169	 -0.407782
H	 3.351597	 0.368855	 0.313781
H	 2.423746	 -0.741837	 1.301495

	symmetry c1
}
set optking {
	frozen_dihedral = ("
		6 3 2 4,
		8 6 3 2
	")
}

ee = energy('scf')
oeprop('DIPOLE', 'QUADRUPOLE', 'MULLIKEN_CHARGES')
f=open( 'psi4out.xyz', 'w' )
f.write( "15  " )
f.write( str(ee) + "\n" )
f.write( MOL.save_string_xyz() )
f.close()
--------------------------------------------------------------------------

    Molecular point group: c1

    Geometry (in Angstrom), charge = 0, multiplicity = 1:

       Center              X                  Y                   Z               Mass
    ------------   -----------------  -----------------  -----------------  -----------------
           H         -3.157548056765     0.494420013693    -0.065155258037     1.007825032070
           C         -2.362808056765    -0.239029986307    -0.064921258037    12.000000000000
           O         -1.154151056765     0.449710013693    -0.065043258037    15.994914619560
           H         -2.464564056765    -0.867989986307    -0.947754258037     1.007825032070
           H         -2.464653056765    -0.867524986307     0.818232741963     1.007825032070
           C         -0.025487056765    -0.371259986307    -0.064773258037    12.000000000000
           C          1.216505943235     0.502877013693    -0.064914258037    12.000000000000
           H         -0.032483056765    -1.019339986307    -0.942180258037     1.007825032070
           H         -0.032580056765    -1.018881986307     0.812975741963     1.007825032070
           C          2.485861943235    -0.285217986307     0.255274741963    12.000000000000
           H          1.304386943235     0.975922013693    -1.038139258037     1.007825032070
           H          1.076851943235     1.299623013693     0.659234741963     1.007825032070
           H          2.657443943235    -1.073272986307    -0.472703258037     1.007825032070
           H          3.355885943235     0.362751013693     0.248859741963     1.007825032070
           H          2.428034943235    -0.747940986307     1.236573741963     1.007825032070

  Charge       = 0
  Multiplicity = 1
  Basis Set: 6-31G*
  Basis Set:

    Orbital Energies (a.u.)
    -----------------------

    Doubly Occupied:

       1A    -20.553477     2A    -11.266103     3A    -11.263947
       4A    -11.214024     5A    -11.212784     6A     -1.378401
       7A     -1.057206     8A     -0.955236     9A     -0.877350
      10A     -0.809057    11A     -0.674660    12A     -0.654290
      13A     -0.630446    14A     -0.606719    15A     -0.565936
      16A     -0.541522    17A     -0.502026    18A     -0.489038
      19A     -0.477994    20A     -0.461542    21A     -0.413580

  @DF-RHF Final Energy:  -232.13874397414980

   => Energetics <=

    Nuclear Repulsion Energy =            189.7803307394300418
    One-Electron Energy =                -690.6275028914698169
    Two-Electron Energy =                 268.7084281778907098
    DFT Exchange-Correlation Energy =       0.0000000000000000
    Empirical Dispersion Energy =           0.0000000000000000
    PCM Polarization Energy =               0.0000000000000000
    EFP Energy =                            0.0000000000000000
    Total Energy =                       -232.1387439741490653

  Mulliken Charges: (a.u.)
   Center  Symbol    Alpha    Beta     Spin     Total
       1     H     0.41218  0.41218  0.00000  0.17565
       2     C     3.07938  3.07938  0.00000 -0.15877
       3     O     4.30570  4.30570  0.00000 -0.61141
       4     H     0.43046  0.43046  0.00000  0.13907
       5     H     0.43039  0.43039  0.00000  0.13923
       6     C     2.98192  2.98192  0.00000  0.03615
       7     C     3.16057  3.16057  0.00000 -0.32115
       8     H     0.43278  0.43278  0.00000  0.13445
       9     H     0.43357  0.43357  0.00000  0.13286
      10     C     3.24780  3.24780  0.00000 -0.49560
      11     H     0.41616  0.41616  0.00000  0.16769
      12     H     0.41175  0.41175  0.00000  0.17651
      13     H     0.42147  0.42147  0.00000  0.15707
      14     H     0.41569  0.41569  0.00000  0.16862
      15     H     0.42018  0.42018  0.00000  0.15965

   Total alpha = 21.00000, Total beta = 21.00000, Total charge = -0.00000
