  ==> Input File <==

--------------------------------------------------------------------------
set {
	reference rhf
	basis 6-31G*
}

set_num_threads( 4 )
memory 2 gb

molecule MOL {
0 1

H	 -0.252047	 2.221097	 1.312240
C	 0.627233	 1.565633	 1.306476
C	 0.692068	 0.589600	 0.160137
O	 1.444336	 1.655715	 2.164589
C	 -0.558097	 -0.297372	 0.091132
H	 1.592262	 -0.003825	 0.269587
H	 0.777487	 1.164714	 -0.761155
C	 -1.850991	 0.512573	 -0.019058
H	 -0.476753	 -0.965681	 -0.762987
H	 -0.604799	 -0.930658	 0.975228
C	 -3.096943	 -0.368295	 -0.099594
H	 -1.800724	 1.150330	 -0.898172
H	 -1.931651	 1.177355	 0.838044
H	 -3.060452	 -1.020287	 -0.967456
H	 -3.996858	 0.233488	 -0.175704
H	 -3.191959	 -0.995686	 0.782074

	symmetry c1
}
set optking {
	frozen_dihedral = ("
		6 3 5 9
	")
}

ee = optimize('scf')
oeprop('DIPOLE', 'QUADRUPOLE', 'MULLIKEN_CHARGES')
f=open( 'psi4out.xyz', 'w' )
f.write( "16  " )
f.write( str(ee) + "\n" )
f.write( MOL.save_string_xyz() )
f.close()
--------------------------------------------------------------------------

    Molecular point group: c1
  Charge       = 0
  Multiplicity = 1
  Basis Set: 6-31G*
  Basis Set:
  @DF-RHF Final Energy:  -270.01562681745997
    Total Energy =                       -270.0156268174600882
    Molecular point group: c1
  Basis Set: 6-31G*
  Basis Set:
  Basis Set: 6-31G*
  Basis Set:
  @DF-RHF Final Energy:  -270.01607442846364
    Total Energy =                       -270.0160744284635257
  Basis Set: 6-31G*
  Basis Set:
  Basis Set: 6-31G*
  Basis Set:
  @DF-RHF Final Energy:  -270.01718838509260
    Total Energy =                       -270.0171883850923678
  Basis Set: 6-31G*
  Basis Set:
  Basis Set: 6-31G*
  Basis Set:
  @DF-RHF Final Energy:  -270.01742438771890
    Total Energy =                       -270.0174243877187337
  Basis Set: 6-31G*
  Basis Set:
  @DF-RHF Final Energy:  -270.01700996849343
    Total Energy =                       -270.0170099684933689
  @DF-RHF Final Energy:  -270.01753513127267
    Total Energy =                       -270.0175351312728367
  @DF-RHF Final Energy:  -270.01757870881931
    Total Energy =                       -270.0175787088194284
  Basis Set: 6-31G*
  Basis Set:
  @DF-RHF Final Energy:  -270.01763465616511
    Total Energy =                       -270.0176346561653418
  Basis Set: 6-31G*
  Basis Set:
  Basis Set: 6-31G*
  Basis Set:
  @DF-RHF Final Energy:  -270.01764012770809
    Total Energy =                       -270.0176401277082618
  Basis Set: 6-31G*
  Basis Set:
  Basis Set: 6-31G*
  Basis Set:
  @DF-RHF Final Energy:  -270.01764134971529
    Total Energy =                       -270.0176413497152907
  Basis Set: 6-31G*
  Basis Set:
  Charge       = 0
  Multiplicity = 1
  Basis Set: 6-31G*
  Basis Set:

    Orbital Energies (a.u.)
    -----------------------

    Doubly Occupied:

       1A    -20.562067     2A    -11.325583     3A    -11.235726
       4A    -11.234531     5A    -11.230286     6A    -11.218727
       7A     -1.401666     8A     -1.094937     9A     -1.016297
      10A     -0.904866    11A     -0.829983    12A     -0.774478
      13A     -0.682293    14A     -0.648319    15A     -0.618980
      16A     -0.601545    17A     -0.584872    18A     -0.554239
      19A     -0.528944    20A     -0.516627    21A     -0.489227
      22A     -0.479897    23A     -0.468816    24A     -0.408069

  @DF-RHF Final Energy:  -270.01764151971872

   => Energetics <=

    Nuclear Repulsion Energy =            233.2935628962470673
    One-Electron Energy =                -827.8004580723475101
    Two-Electron Energy =                 324.4892536563817202
    DFT Exchange-Correlation Energy =       0.0000000000000000
    Empirical Dispersion Energy =           0.0000000000000000
    PCM Polarization Energy =               0.0000000000000000
    EFP Energy =                            0.0000000000000000
    Total Energy =                       -270.0176415197187225
    Molecular point group: c1
  Basis Set: 6-31G*
  Basis Set:

  -Total Gradient:
     Atom            X                  Y                   Z
    ------   -----------------  -----------------  -----------------
       1        0.000004864807    -0.000006427249     0.000001344670
       2       -0.000015545753    -0.000006721370    -0.000017535508
       3       -0.000033936759     0.000057023544    -0.001681130378
       4        0.000009991693     0.000001043533     0.000017855769
       5        0.000650615554    -0.000977449462     0.001140608383
       6       -0.000082930673     0.000094585142     0.001236434643
       7        0.000002999601     0.000000767277    -0.000007499300
       8        0.000005870590     0.000008741535     0.000014249835
       9       -0.000542559092     0.000816777679    -0.000709080787
      10        0.000004956408     0.000002529949     0.000002927184
      11        0.000000426676    -0.000000966520    -0.000009653148
      12       -0.000003603341    -0.000004391597     0.000004752522
      13       -0.000008844332     0.000013180186     0.000003790918
      14       -0.000001283378     0.000000659493    -0.000001180020
      15        0.000005022302    -0.000001384002    -0.000000458440
      16        0.000003955694     0.000002031860     0.000004573653

  **** Optimization is complete! (in 11 steps) ****
    Final optimized geometry and variables:
    Molecular point group: c1

    Geometry (in Angstrom), charge = 0, multiplicity = 1:

    H            0.619849204682     1.946323640910     0.517767306350
    C            1.192777384183     1.023605010361     0.655055646946
    C            1.184201281176     0.051131011761    -0.499849143008
    O            1.766452053017     0.827735418031     1.678171695748
    C           -0.077553826350    -0.831676637383    -0.515791068516
    H            2.063715250229    -0.573766648149    -0.397751844462
    H            1.255305848784     0.606646192097    -1.431851413182
    C           -1.397299690060    -0.061528168453    -0.629162984093
    H            0.003021979044    -1.509226457153    -1.361386090771
    H           -0.087896864402    -1.445693624805     0.380395340135
    C           -2.603655318505    -0.991671892561    -0.751761655059
    H           -1.359053775209     0.596659162009    -1.494884769050
    H           -1.533226043686     0.579318870621     0.238565234104
    H           -2.526055645176    -1.619302535602    -1.634808430888
    H           -3.527343332289    -0.427009169473    -0.826459614184
    H           -2.683364356974    -1.644504945288     0.112463391138

  Mulliken Charges: (a.u.)
   Center  Symbol    Alpha    Beta     Spin     Total
       1     H     0.42914  0.42914  0.00000  0.14171
       2     C     2.83738  2.83738  0.00000  0.32525
       3     C     3.20444  3.20444  0.00000 -0.40888
       4     O     4.23736  4.23736  0.00000 -0.47472
       5     C     3.16017  3.16017  0.00000 -0.32033
       6     H     0.39861  0.39861  0.00000  0.20277
       7     H     0.41453  0.41453  0.00000  0.17093
       8     C     3.15884  3.15884  0.00000 -0.31768
       9     H     0.41434  0.41434  0.00000  0.17132
      10     H     0.40995  0.40995  0.00000  0.18009
      11     C     3.23993  3.23993  0.00000 -0.47987
      12     H     0.42134  0.42134  0.00000  0.15733
      13     H     0.41918  0.41918  0.00000  0.16165
      14     H     0.42004  0.42004  0.00000  0.15992
      15     H     0.41643  0.41643  0.00000  0.16715
      16     H     0.41832  0.41832  0.00000  0.16336

   Total alpha = 24.00000, Total beta = 24.00000, Total charge =  0.00000
