  ==> Input File <==

--------------------------------------------------------------------------
set {
	reference rhf
	basis cc-pvtz
}

set_num_threads( 4 )
memory 2 gb

molecule MOL {
0 1

H	 2.659779	 -0.042428	 0.620055
O	 2.063695	 -0.083403	 -0.105237
C	 0.742924	 0.005675	 0.350750
H	 0.731380	 0.039219	 1.440080
C	 -0.064076	 -1.193495	 -0.124425
C	 -0.047832	 1.190568	 -0.194462
H	 0.194729	 -1.376165	 -1.161308
H	 0.163013	 -2.094508	 0.429933
C	 -1.533112	 -0.752002	 0.006102
H	 0.148003	 1.266545	 -1.259275
H	 0.226235	 2.136493	 0.259722
C	 -1.506634	 0.799189	 0.067162
H	 -2.124360	 -1.110499	 -0.826089
H	 -1.983103	 -1.158030	 0.903403
H	 -2.183808	 1.252169	 -0.644677
H	 -1.813926	 1.138698	 1.049457

	symmetry c1
}
set optking {
	frozen_dihedral = ("
		1 2 3 6
	")
}

ee = optimize('scf')
oeprop('DIPOLE', 'QUADRUPOLE', 'MULLIKEN_CHARGES')
f=open( 'psi4out.xyz', 'w' )
f.write( "16  " )
f.write( str(ee) + "\n" )
f.write( MOL.save_string_xyz() )
f.close()
--------------------------------------------------------------------------

    Molecular point group: c1
  Charge       = 0
  Multiplicity = 1
  Basis Set: CC-PVTZ
  Basis Set:
  @DF-RHF Final Energy:  -270.11505129523914
    Total Energy =                       -270.1150512952394820
    Molecular point group: c1
  Basis Set: CC-PVTZ
  Basis Set:
  Basis Set: CC-PVTZ
  Basis Set:
  @DF-RHF Final Energy:  -270.11542747523106
    Total Energy =                       -270.1154274752309448
  Basis Set: CC-PVTZ
  Basis Set:
  Basis Set: CC-PVTZ
  Basis Set:
  @DF-RHF Final Energy:  -270.11545844563523
    Total Energy =                       -270.1154584456352268
  Basis Set: CC-PVTZ
  Basis Set:
  Basis Set: CC-PVTZ
  Basis Set:
  @DF-RHF Final Energy:  -270.11545977833487
    Total Energy =                       -270.1154597783347526
  Basis Set: CC-PVTZ
  Basis Set:
  Charge       = 0
  Multiplicity = 1
  Basis Set: CC-PVTZ
  Basis Set:

    Orbital Energies (a.u.)
    -----------------------

    Doubly Occupied:

       1A    -20.544925     2A    -11.268292     3A    -11.212629
       4A    -11.212033     5A    -11.206013     6A    -11.205920
       7A     -1.364506     8A     -1.113498     9A     -0.964141
      10A     -0.949206    11A     -0.781599    12A     -0.778402
      13A     -0.718205    14A     -0.653294    15A     -0.621860
      16A     -0.579313    17A     -0.549609    18A     -0.532725
      19A     -0.522017    20A     -0.479186    21A     -0.469145
      22A     -0.456290    23A     -0.452641    24A     -0.412952

  @DF-RHF Final Energy:  -270.11545993459640

   => Energetics <=

    Nuclear Repulsion Energy =            255.3024742037823955
    One-Electron Energy =                -872.7390640342525785
    Two-Electron Energy =                 347.3211298958739235
    DFT Exchange-Correlation Energy =       0.0000000000000000
    Empirical Dispersion Energy =           0.0000000000000000
    PCM Polarization Energy =               0.0000000000000000
    EFP Energy =                            0.0000000000000000
    Total Energy =                       -270.1154599345962879
    Molecular point group: c1
  Basis Set: CC-PVTZ
  Basis Set:

  -Total Gradient:
     Atom            X                  Y                   Z
    ------   -----------------  -----------------  -----------------
       1        0.000005994779    -0.000203568655     0.000021460236
       2       -0.000038850736     0.000210697713    -0.000055708428
       3        0.000065144740     0.000073437728     0.000125648401
       4        0.000003670578    -0.000002432934    -0.000001262455
       5        0.000014783121    -0.000000013443    -0.000005733458
       6       -0.000062944168    -0.000045725900    -0.000085778393
       7       -0.000006375180    -0.000009937287     0.000002042606
       8       -0.000006180895     0.000001069208     0.000002144913
       9       -0.000005899722     0.000000334468     0.000023353551
      10       -0.000000018694    -0.000008923633     0.000004256230
      11        0.000009848061     0.000009131684     0.000002381334
      12        0.000016075182    -0.000008767486    -0.000023221870
      13        0.000002315491    -0.000003500291    -0.000012011097
      14       -0.000009234369    -0.000009501143    -0.000009943268
      15       -0.000001704546    -0.000006887537     0.000008634823
      16        0.000013376362     0.000004587509     0.000003736874

  **** Optimization is complete! (in 5 steps) ****
    Final optimized geometry and variables:
    Molecular point group: c1

    Geometry (in Angstrom), charge = 0, multiplicity = 1:

    H            2.673534771831     0.003250826552     0.592032267035
    O            2.065339544963    -0.039270337328    -0.119962679252
    C            0.743085675992    -0.000506677802     0.350484953476
    H            0.739168083289     0.033391106857     1.438062853548
    C           -0.074445998820    -1.197901004630    -0.123238099421
    C           -0.042498188240     1.187600417440    -0.189946140626
    H            0.188045919444    -1.384167223744    -1.158568674187
    H            0.143986791095    -2.101188453660     0.432518539453
    C           -1.540923397523    -0.748222418533    -0.000602275552
    H            0.163009119658     1.267427682481    -1.252403693803
    H            0.239770398568     2.127160118499     0.269098346511
    C           -1.504369324682     0.803354652683     0.059299889030
    H           -2.130409368369    -1.103387156152    -0.835541443709
    H           -1.998667384365    -1.150662354557     0.894583654818
    H           -2.174244880278     1.258628893120    -0.657951403997
    H           -1.818211514872     1.145025497606     1.039028696431

  Mulliken Charges: (a.u.)
   Center  Symbol    Alpha    Beta     Spin     Total
       1     H     0.39150  0.39150  0.00000  0.21700
       2     O     4.20464  4.20464  0.00000 -0.40927
       3     C     2.92107  2.92107  0.00000  0.15786
       4     H     0.47023  0.47023  0.00000  0.05953
       5     C     3.10088  3.10088  0.00000 -0.20175
       6     C     3.09483  3.09483  0.00000 -0.18965
       7     H     0.45206  0.45206  0.00000  0.09588
       8     H     0.44724  0.44724  0.00000  0.10552
       9     C     3.11158  3.11158  0.00000 -0.22315
      10     H     0.45345  0.45345  0.00000  0.09309
      11     H     0.44872  0.44872  0.00000  0.10257
      12     C     3.11406  3.11406  0.00000 -0.22812
      13     H     0.44545  0.44545  0.00000  0.10911
      14     H     0.44924  0.44924  0.00000  0.10153
      15     H     0.44373  0.44373  0.00000  0.11255
      16     H     0.45134  0.45134  0.00000  0.09731

   Total alpha = 24.00000, Total beta = 24.00000, Total charge = -0.00000
