  ==> Input File <==

--------------------------------------------------------------------------
set {
	reference rhf
	basis 6-31G*
}

set_num_threads( 1 )
memory 2 gb

molecule MOL {
0 1

H	 -2.798360	 -0.862255	 -0.071053
N	 -1.863561	 -0.715187	 0.256814
C	 -1.344686	 0.554728	 -0.219830
H	 -1.300452	 -1.461917	 -0.101532
C	 0.081427	 0.741154	 0.254071
H	 -1.362155	 0.656231	 -1.305829
H	 -1.952773	 1.354456	 0.191809
O	 0.874168	 -0.245412	 -0.342030
H	 0.444037	 1.730782	 -0.023037
H	 0.121165	 0.653424	 1.337565
C	 0.371637	 -1.537683	 -0.219275
H	 1.063423	 -2.206915	 -0.712489
H	 0.281852	 -1.832291	 0.824816
H	 -0.605210	 -1.630701	 -0.689303

	symmetry c1
}
set optking {
	frozen_dihedral = ("
		8 5 3 6,
		6 3 2 4,
		5 8 11 13
	")
}

ee = energy('scf')
oeprop('DIPOLE', 'QUADRUPOLE', 'MULLIKEN_CHARGES')
f=open( 'psi4out.xyz', 'w' )
f.write( "14  " )
f.write( str(ee) + "\n" )
f.write( MOL.save_string_xyz() )
f.close()
--------------------------------------------------------------------------

    Molecular point group: c1

    Geometry (in Angstrom), charge = 0, multiplicity = 1:

       Center              X                  Y                   Z               Mass
    ------------   -----------------  -----------------  -----------------  -----------------
           H         -2.412457666923    -0.589582098659    -0.009131982692     1.007825032070
           N         -1.477658666923    -0.442514098659     0.318735017308    14.003074004780
           C         -0.958783666923     0.827400901341    -0.157908982692    12.000000000000
           H         -0.914549666923    -1.189244098659    -0.039610982692     1.007825032070
           C          0.467329333077     1.013826901341     0.315992017308    12.000000000000
           H         -0.976252666923     0.928903901341    -1.243907982692     1.007825032070
           H         -1.566870666923     1.627128901341     0.253730017308     1.007825032070
           O          1.260070333077     0.027260901341    -0.280108982692    15.994914619560
           H          0.829939333077     2.003454901341     0.038884017308     1.007825032070
           H          0.507067333077     0.926096901341     1.399486017308     1.007825032070
           C          0.757539333077    -1.265010098659    -0.157353982692    12.000000000000
           H          1.449325333077    -1.934242098659    -0.650567982692     1.007825032070
           H          0.667754333077    -1.559618098659     0.886737017308     1.007825032070
           H         -0.219307666923    -1.358028098659    -0.627381982692     1.007825032070

  Charge       = 0
  Multiplicity = 1
  Basis Set: 6-31G*
  Basis Set:

    Orbital Energies (a.u.)
    -----------------------

    Doubly Occupied:

       1A    -20.559268     2A    -15.518775     3A    -11.267912
       4A    -11.267128     5A    -11.242923     6A     -1.388160
       7A     -1.193583     8A     -1.022610     9A     -0.912987
      10A     -0.840908    11A     -0.734982    12A     -0.682601
      13A     -0.634926    14A     -0.596917    15A     -0.593955
      16A     -0.565387    17A     -0.551098    18A     -0.511290
      19A     -0.448947    20A     -0.408245    21A     -0.373346

  @DF-RHF Final Energy:  -248.02194780778956

   => Energetics <=

    Nuclear Repulsion Energy =            205.7855499631461953
    One-Electron Energy =                -744.9830069796917087
    Two-Electron Energy =                 291.1755092087562957
    DFT Exchange-Correlation Energy =       0.0000000000000000
    Empirical Dispersion Energy =           0.0000000000000000
    PCM Polarization Energy =               0.0000000000000000
    EFP Energy =                            0.0000000000000000
    Total Energy =                       -248.0219478077892177

  Mulliken Charges: (a.u.)
   Center  Symbol    Alpha    Beta     Spin     Total
       1     H     0.33680  0.33680  0.00000  0.32640
       2     N     3.93100  3.93100  0.00000 -0.86201
       3     C     3.08843  3.08843  0.00000 -0.17687
       4     H     0.31997  0.31997  0.00000  0.36006
       5     C     2.99332  2.99332  0.00000  0.01336
       6     H     0.42553  0.42553  0.00000  0.14893
       7     H     0.41639  0.41639  0.00000  0.16723
       8     O     4.30412  4.30412  0.00000 -0.60823
       9     H     0.41399  0.41399  0.00000  0.17202
      10     H     0.42042  0.42042  0.00000  0.15917
      11     C     3.09537  3.09537  0.00000 -0.19075
      12     H     0.41179  0.41179  0.00000  0.17643
      13     H     0.41238  0.41238  0.00000  0.17524
      14     H     0.43049  0.43049  0.00000  0.13902

   Total alpha = 21.00000, Total beta = 21.00000, Total charge = -0.00000
