  ==> Input File <==

--------------------------------------------------------------------------
set {
	reference rhf
	basis 6-31G*
}

set_num_threads( 4 )
memory 2 gb

molecule MOL {
0 1

H	 -2.798360	 -0.862255	 -0.071053
N	 -1.863561	 -0.715187	 0.256814
C	 -1.344686	 0.554728	 -0.219830
H	 -1.300452	 -1.461917	 -0.101532
C	 -0.446844	 0.329320	 -1.418248
H	 -2.120534	 1.268236	 -0.500845
H	 -0.756444	 1.008344	 0.571993
O	 -1.227054	 -0.182103	 -2.460748
H	 0.016912	 1.267213	 -1.723085
H	 0.341677	 -0.373148	 -1.157466
C	 -0.508357	 -0.517633	 -3.604630
H	 -1.211078	 -0.896624	 -4.334182
H	 0.000016	 0.348914	 -4.023718
H	 0.233537	 -1.285920	 -3.396934

	symmetry c1
}
set optking {
	frozen_dihedral = ("
		6 3 2 4
	")
}

ee = optimize('scf')
oeprop('DIPOLE', 'QUADRUPOLE', 'MULLIKEN_CHARGES')
f=open( 'psi4out.xyz', 'w' )
f.write( "14  " )
f.write( str(ee) + "\n" )
f.write( MOL.save_string_xyz() )
f.close()
--------------------------------------------------------------------------

    Molecular point group: c1
  Charge       = 0
  Multiplicity = 1
  Basis Set: 6-31G*
  Basis Set:
  @DF-RHF Final Energy:  -248.11899737407722
    Total Energy =                       -248.1189973740772530
    Molecular point group: c1
  Basis Set: 6-31G*
  Basis Set:
  Basis Set: 6-31G*
  Basis Set:
  @DF-RHF Final Energy:  -248.12080552407258
    Total Energy =                       -248.1208055240723525
  Basis Set: 6-31G*
  Basis Set:
  Basis Set: 6-31G*
  Basis Set:
  @DF-RHF Final Energy:  -248.12109369087423
    Total Energy =                       -248.1210936908742042
  Basis Set: 6-31G*
  Basis Set:
  Basis Set: 6-31G*
  Basis Set:
  @DF-RHF Final Energy:  -248.12110251789318
    Total Energy =                       -248.1211025178931209
  Basis Set: 6-31G*
  Basis Set:
  Charge       = 0
  Multiplicity = 1
  Basis Set: 6-31G*
  Basis Set:

    Orbital Energies (a.u.)
    -----------------------

    Doubly Occupied:

       1A    -20.561501     2A    -15.529184     3A    -11.271566
       4A    -11.270453     5A    -11.241934     6A     -1.386210
       7A     -1.173501     8A     -1.001674     9A     -0.911011
      10A     -0.823678    11A     -0.687013    12A     -0.666743
      13A     -0.650345    14A     -0.632666    15A     -0.581146
      16A     -0.546051    17A     -0.537040    18A     -0.505650
      19A     -0.473959    20A     -0.422247    21A     -0.381006

  @DF-RHF Final Energy:  -248.12110301732568

   => Energetics <=

    Nuclear Repulsion Energy =            194.2247750740279173
    One-Electron Energy =                -722.1825982801764212
    Two-Electron Energy =                 279.8367201888229943
    DFT Exchange-Correlation Energy =       0.0000000000000000
    Empirical Dispersion Energy =           0.0000000000000000
    PCM Polarization Energy =               0.0000000000000000
    EFP Energy =                            0.0000000000000000
    Total Energy =                       -248.1211030173255381
    Molecular point group: c1
  Basis Set: 6-31G*
  Basis Set:

  -Total Gradient:
     Atom            X                  Y                   Z
    ------   -----------------  -----------------  -----------------
       1       -0.000022165771    -0.000018107651     0.000001536790
       2        0.002555284784     0.000098680770     0.002750478847
       3       -0.000513477543     0.001417264906     0.002928730388
       4       -0.002004353656    -0.000211084294    -0.002794203472
       5        0.000013668720    -0.000075847890     0.000050174027
       6       -0.000028519931    -0.001246867998    -0.002882834501
       7       -0.000008429486    -0.000009184958     0.000028244973
       8        0.000025515541     0.000028373814    -0.000041833652
       9       -0.000011259146     0.000004051475    -0.000023172692
      10        0.000012468174     0.000010160573    -0.000001639731
      11       -0.000023868995     0.000012733511    -0.000012098276
      12        0.000005187569    -0.000005912301    -0.000008175355
      13        0.000002319680    -0.000003533137    -0.000004487442
      14       -0.000002369939    -0.000000726821     0.000009280097

  **** Optimization is complete! (in 5 steps) ****
    Final optimized geometry and variables:
    Molecular point group: c1

    Geometry (in Angstrom), charge = 0, multiplicity = 1:

    H           -1.760688196240    -0.667361982931     1.448270454004
    N           -0.842036899834    -0.549877261569     1.827475385436
    C           -0.244116234978     0.666658396749     1.289340401631
    H           -0.331935238549    -1.356220092294     1.520564109808
    C            0.643149786914     0.443605851320     0.076015081105
    H           -1.035276845137     1.346568380569     0.993618669425
    H            0.345386953654     1.158448547686     2.057993018471
    O           -0.126685767314    -0.101245375746    -0.953436958905
    H            1.086346888191     1.388607580282    -0.238575822452
    H            1.463499034578    -0.231284256015     0.327950666874
    C            0.580407634002    -0.361444516009    -2.124173951058
    H           -0.113820193968    -0.779320602672    -2.840306044668
    H            1.010805914631     0.547491264302    -2.540193350169
    H            1.383793962132    -1.075972241660    -1.954046879000

  Mulliken Charges: (a.u.)
   Center  Symbol    Alpha    Beta     Spin     Total
       1     H     0.32864  0.32864  0.00000  0.34272
       2     N     3.92140  3.92140  0.00000 -0.84281
       3     C     3.06243  3.06243  0.00000 -0.12486
       4     H     0.33199  0.33199  0.00000  0.33601
       5     C     3.00460  3.00460  0.00000 -0.00920
       6     H     0.41589  0.41589  0.00000  0.16823
       7     H     0.41896  0.41896  0.00000  0.16208
       8     O     4.30509  4.30509  0.00000 -0.61019
       9     H     0.42919  0.42919  0.00000  0.14161
      10     H     0.43248  0.43248  0.00000  0.13504
      11     C     3.07973  3.07973  0.00000 -0.15947
      12     H     0.41136  0.41136  0.00000  0.17728
      13     H     0.42866  0.42866  0.00000  0.14268
      14     H     0.42957  0.42957  0.00000  0.14087

   Total alpha = 21.00000, Total beta = 21.00000, Total charge = -0.00000
