  ==> Input File <==

--------------------------------------------------------------------------
set {
	reference rhf
	basis 6-31G*
}

set_num_threads( 4 )
memory 2 gb

molecule MOL {
0 1

H	 2.468540	 2.196278	 1.030485
N	 1.645788	 1.630697	 0.948377
C	 1.865559	 0.531981	 0.018834
H	 0.914325	 2.230381	 0.616455
C	 0.645745	 -0.382037	 -0.029944
H	 2.722742	 -0.032679	 0.372748
H	 2.107753	 0.867532	 -0.992673
C	 -0.679275	 0.379305	 0.025956
H	 0.698998	 -0.976915	 -0.937203
H	 0.693479	 -1.083846	 0.802235
C	 -1.903357	 -0.536963	 -0.023547
H	 -0.726309	 1.082987	 -0.803784
H	 -0.717680	 0.977832	 0.934877
C	 -3.225172	 0.228290	 0.028445
H	 -1.867824	 -1.134999	 -0.931459
H	 -1.860449	 -1.239604	 0.805977
H	 -3.313397	 0.915643	 -0.808262
H	 -4.073500	 -0.448134	 -0.008893
H	 -3.306061	 0.809945	 0.942516

	symmetry c1
}
set optking {
	frozen_dihedral = ("
		6 3 5 9
	")
}

ee = optimize('scf')
oeprop('DIPOLE', 'QUADRUPOLE', 'MULLIKEN_CHARGES')
f=open( 'psi4out.xyz', 'w' )
f.write( "19  " )
f.write( str(ee) + "\n" )
f.write( MOL.save_string_xyz() )
f.close()
--------------------------------------------------------------------------

    Molecular point group: c1
  Charge       = 0
  Multiplicity = 1
  Basis Set: 6-31G*
  Basis Set:
  @DF-RHF Final Energy:  -251.34665785042753
    Total Energy =                       -251.3466578504277322
    Molecular point group: c1
  Basis Set: 6-31G*
  Basis Set:
  Basis Set: 6-31G*
  Basis Set:
  @DF-RHF Final Energy:  -251.34722494857243
    Total Energy =                       -251.3472249485722614
  Basis Set: 6-31G*
  Basis Set:
  Basis Set: 6-31G*
  Basis Set:
  @DF-RHF Final Energy:  -251.34829300157665
    Total Energy =                       -251.3482930015766215
  Basis Set: 6-31G*
  Basis Set:
  Basis Set: 6-31G*
  Basis Set:
  @DF-RHF Final Energy:  -251.34836820747466
    Total Energy =                       -251.3483682074747776
  Basis Set: 6-31G*
  Basis Set:
  Basis Set: 6-31G*
  Basis Set:
  @DF-RHF Final Energy:  -251.34837013012137
    Total Energy =                       -251.3483701301213955
  Basis Set: 6-31G*
  Basis Set:
  Basis Set: 6-31G*
  Basis Set:
  @DF-RHF Final Energy:  -251.34837647840897
    Total Energy =                       -251.3483764784087953
  Basis Set: 6-31G*
  Basis Set:
  Charge       = 0
  Multiplicity = 1
  Basis Set: 6-31G*
  Basis Set:

    Orbital Energies (a.u.)
    -----------------------

    Doubly Occupied:

       1A    -15.532039     2A    -11.240585     3A    -11.212295
       4A    -11.209646     5A    -11.209047     6A    -11.206224
       7A     -1.176160     8A     -1.069054     9A     -0.995213
      10A     -0.905952    11A     -0.813873    12A     -0.777172
      13A     -0.663926    14A     -0.652015    15A     -0.612490
      16A     -0.583667    17A     -0.559986    18A     -0.550693
      19A     -0.525364    20A     -0.499240    21A     -0.487600
      22A     -0.462448    23A     -0.459138    24A     -0.443758
      25A     -0.379824

  @DF-RHF Final Energy:  -251.34837731612157

   => Energetics <=

    Nuclear Repulsion Energy =            249.8681514521085205
    One-Electron Energy =                -833.9782453125446864
    Two-Electron Energy =                 332.7617165443144813
    DFT Exchange-Correlation Energy =       0.0000000000000000
    Empirical Dispersion Energy =           0.0000000000000000
    PCM Polarization Energy =               0.0000000000000000
    EFP Energy =                            0.0000000000000000
    Total Energy =                       -251.3483773161216277
    Molecular point group: c1
  Basis Set: 6-31G*
  Basis Set:

  -Total Gradient:
     Atom            X                  Y                   Z
    ------   -----------------  -----------------  -----------------
       1       -0.000001722952    -0.000022650218    -0.000013790300
       2       -0.000037052522    -0.000002384538     0.000007556812
       3        0.000581229685    -0.000956874752    -0.007128962837
       4       -0.000003413716     0.000004915573     0.000008772729
       5        0.003381930700    -0.004442596186     0.004501051153
       6       -0.000997982028     0.001486389032     0.005322787380
       7        0.000004523436    -0.000011282276    -0.000012318823
       8       -0.000001708548     0.000026695217    -0.000012133968
       9       -0.002934616339     0.003945578462    -0.002676671703
      10       -0.000000088927    -0.000015888649     0.000001292831
      11       -0.000002849820    -0.000012126162     0.000016954322
      12       -0.000009594153     0.000006339036    -0.000004706872
      13        0.000013085308     0.000000728299    -0.000003567869
      14        0.000010440669     0.000003018466    -0.000011978549
      15       -0.000003127537    -0.000006502597     0.000002521548
      16       -0.000004436549    -0.000001514543     0.000005123595
      17        0.000000145944     0.000005584145     0.000002269467
      18        0.000005418237    -0.000001619253    -0.000006027294
      19       -0.000000180883    -0.000005809056     0.000001828380

  **** Optimization is complete! (in 7 steps) ****
    Final optimized geometry and variables:
    Molecular point group: c1

    Geometry (in Angstrom), charge = 0, multiplicity = 1:

    H            2.889530143629     1.772429456432     0.875891109530
    N            2.007207141490     1.308560127003     0.778333441019
    C            2.118486938503     0.207374761637    -0.173010361079
    H            1.355171342068     1.997872112166     0.458498502129
    C            0.884677480050    -0.702735515267    -0.143788870701
    H            2.978861305018    -0.369421126672     0.149105790401
    H            2.303152122370     0.545369959456    -1.194057211380
    C           -0.452477567354     0.045335796504    -0.118190530864
    H            0.895408503558    -1.311310166597    -1.045915438621
    H            0.939885195965    -1.365851518489     0.713977000251
    C           -1.656992018920    -0.893952379160    -0.207411601698
    H           -0.491991032264     0.750969203611    -0.949017305968
    H           -0.524536824628     0.630217261283     0.793542235124
    C           -2.994331962126    -0.155354071581    -0.166841818927
    H           -1.594946652511    -1.477189965003    -1.123790221074
    H           -1.615090095161    -1.608330522838     0.612023421763
    H           -3.080909486927     0.545093025997    -0.992982783534
    H           -3.828628633870    -0.847112482676    -0.231854189674
    H           -3.102818540504     0.407954225130     0.755661582618

  Mulliken Charges: (a.u.)
   Center  Symbol    Alpha    Beta     Spin     Total
       1     H     0.33215  0.33215  0.00000  0.33569
       2     N     3.92353  3.92353  0.00000 -0.84705
       3     C     3.06597  3.06597  0.00000 -0.13194
       4     H     0.33293  0.33293  0.00000  0.33415
       5     C     3.14703  3.14703  0.00000 -0.29406
       6     H     0.41903  0.41903  0.00000  0.16193
       7     H     0.43271  0.43271  0.00000  0.13459
       8     C     3.16070  3.16070  0.00000 -0.32140
       9     H     0.42579  0.42579  0.00000  0.14842
      10     H     0.41774  0.41774  0.00000  0.16452
      11     C     3.15060  3.15060  0.00000 -0.30120
      12     H     0.42967  0.42967  0.00000  0.14066
      13     H     0.41260  0.41260  0.00000  0.17480
      14     C     3.23913  3.23913  0.00000 -0.47825
      15     H     0.42429  0.42429  0.00000  0.15143
      16     H     0.42205  0.42205  0.00000  0.15590
      17     H     0.42299  0.42299  0.00000  0.15403
      18     H     0.41980  0.41980  0.00000  0.16040
      19     H     0.42130  0.42130  0.00000  0.15739

   Total alpha = 25.00000, Total beta = 25.00000, Total charge = -0.00000
