  ==> Input File <==

--------------------------------------------------------------------------
set {
	reference rhf
	basis 6-31G*
}

set_num_threads( 4 )
memory 2 gb

molecule MOL {
0 1

H	 2.273252	 2.489668	 0.416526
N	 1.469161	 1.899910	 0.320772
C	 1.865559	 0.531981	 0.018834
H	 0.919435	 2.279232	 -0.426721
C	 0.645745	 -0.382037	 -0.029944
H	 2.531232	 0.199591	 0.809564
H	 2.422632	 0.443279	 -0.917222
C	 -0.679275	 0.379305	 0.025956
H	 0.698998	 -0.976915	 -0.937203
H	 0.693479	 -1.083846	 0.802235
C	 -1.903357	 -0.536963	 -0.023547
H	 -0.726309	 1.082987	 -0.803784
H	 -0.717680	 0.977832	 0.934877
C	 -3.225172	 0.228290	 0.028445
H	 -1.867824	 -1.134999	 -0.931459
H	 -1.860449	 -1.239604	 0.805977
H	 -3.313397	 0.915643	 -0.808262
H	 -4.073500	 -0.448134	 -0.008893
H	 -3.306061	 0.809945	 0.942516

	symmetry c1
}
set optking {
	frozen_dihedral = ("
		6 3 5 9
	")
}

ee = optimize('scf')
oeprop('DIPOLE', 'QUADRUPOLE', 'MULLIKEN_CHARGES')
f=open( 'psi4out.xyz', 'w' )
f.write( "19  " )
f.write( str(ee) + "\n" )
f.write( MOL.save_string_xyz() )
f.close()
--------------------------------------------------------------------------

    Molecular point group: c1
  Charge       = 0
  Multiplicity = 1
  Basis Set: 6-31G*
  Basis Set:
  @DF-RHF Final Energy:  -251.33961962804256
    Total Energy =                       -251.3396196280425556
    Molecular point group: c1
  Basis Set: 6-31G*
  Basis Set:
  Basis Set: 6-31G*
  Basis Set:
  @DF-RHF Final Energy:  -251.33967224748494
    Total Energy =                       -251.3396722474849412
  Basis Set: 6-31G*
  Basis Set:
  Basis Set: 6-31G*
  Basis Set:
  @DF-RHF Final Energy:  -251.34238400167794
    Total Energy =                       -251.3423840016779423
  Basis Set: 6-31G*
  Basis Set:
  Basis Set: 6-31G*
  Basis Set:
  @DF-RHF Final Energy:  -251.34262339210659
    Total Energy =                       -251.3426233921067592
  Basis Set: 6-31G*
  Basis Set:
  Basis Set: 6-31G*
  Basis Set:
  @DF-RHF Final Energy:  -251.34263818000983
    Total Energy =                       -251.3426381800095442
  Basis Set: 6-31G*
  Basis Set:
  Basis Set: 6-31G*
  Basis Set:
  @DF-RHF Final Energy:  -251.34264398654022
    Total Energy =                       -251.3426439865401107
  Basis Set: 6-31G*
  Basis Set:
  Basis Set: 6-31G*
  Basis Set:
  @DF-RHF Final Energy:  -251.34264818283623
    Total Energy =                       -251.3426481828362853
  Basis Set: 6-31G*
  Basis Set:
  Charge       = 0
  Multiplicity = 1
  Basis Set: 6-31G*
  Basis Set:

    Orbital Energies (a.u.)
    -----------------------

    Doubly Occupied:

       1A    -15.532260     2A    -11.241110     3A    -11.210079
       4A    -11.210033     5A    -11.205725     6A    -11.204321
       7A     -1.175255     8A     -1.066457     9A     -0.991975
      10A     -0.904501    11A     -0.813257    12A     -0.775415
      13A     -0.666132    14A     -0.642808    15A     -0.612747
      16A     -0.581690    17A     -0.562700    18A     -0.548780
      19A     -0.525102    20A     -0.497514    21A     -0.479829
      22A     -0.460285    23A     -0.457767    24A     -0.443605
      25A     -0.377197

  @DF-RHF Final Energy:  -251.34264845420165

   => Energetics <=

    Nuclear Repulsion Energy =            249.6756113996449926
    One-Electron Energy =                -833.6634360315871390
    Two-Electron Energy =                 332.6451761777405522
    DFT Exchange-Correlation Energy =       0.0000000000000000
    Empirical Dispersion Energy =           0.0000000000000000
    PCM Polarization Energy =               0.0000000000000000
    EFP Energy =                            0.0000000000000000
    Total Energy =                       -251.3426484542016510
    Molecular point group: c1
  Basis Set: 6-31G*
  Basis Set:

  -Total Gradient:
     Atom            X                  Y                   Z
    ------   -----------------  -----------------  -----------------
       1       -0.000000548307     0.000008785036    -0.000002046866
       2        0.000006486339     0.000001504865     0.000002628961
       3        0.001161372277    -0.001572235637    -0.002448252615
       4       -0.000001184324     0.000001176528     0.000002875051
       5        0.001346556829    -0.002008733915     0.001998552283
       6       -0.001197989686     0.001638301941     0.001767869995
       7        0.000003339672    -0.000007709781    -0.000002055032
       8        0.000004123147    -0.000000368907    -0.000007801152
       9       -0.001321939764     0.001945572802    -0.001302390218
      10        0.000004326657    -0.000009983952    -0.000002262259
      11       -0.000000457329     0.000000519821     0.000003769901
      12       -0.000008436594    -0.000005934374    -0.000008145359
      13        0.000001265234     0.000006028516    -0.000007380444
      14        0.000000600427     0.000001202602     0.000011222157
      15        0.000001996324     0.000003219611    -0.000003255400
      16        0.000000823274    -0.000001056355    -0.000003808294
      17        0.000002650064    -0.000001260924     0.000000978556
      18       -0.000000018276    -0.000000168362    -0.000001098619
      19       -0.000002965959     0.000001140488     0.000000599354

  **** Optimization is complete! (in 8 steps) ****
    Final optimized geometry and variables:
    Molecular point group: c1

    Geometry (in Angstrom), charge = 0, multiplicity = 1:

    H            2.753953370170     2.041338528698     0.434420154564
    N            1.893697289417     1.552354017072     0.278635588552
    C            2.168257440959     0.156394168278    -0.046890553501
    H            1.433940411609     2.016540624686    -0.480379260205
    C            0.897407109381    -0.731997876500    -0.080294159369
    H            2.826306754322    -0.205284338121     0.734844973517
    H            2.708243290057     0.049281218864    -0.988073732352
    C           -0.442799685593     0.009925791341    -0.036066630178
    H            0.914691485061    -1.329082215694    -0.988710380593
    H            0.927412361182    -1.432258243265     0.749458688999
    C           -1.635153190548    -0.948534715093    -0.068526573574
    H           -0.519159701633     0.690272651405    -0.883265562063
    H           -0.491322552771     0.625027139686     0.855224778391
    C           -2.980986586482    -0.225332637169    -0.025948287942
    H           -1.584944497398    -1.563290197576    -0.965100734668
    H           -1.568843201832    -1.633826659144     0.774069161937
    H           -3.094629361701     0.442238548997    -0.875647505011
    H           -3.807647789795    -0.929058642393    -0.046178150527
    H           -3.076111108570     0.371618637416     0.876578868489

  Mulliken Charges: (a.u.)
   Center  Symbol    Alpha    Beta     Spin     Total
       1     H     0.33173  0.33173  0.00000  0.33654
       2     N     3.92396  3.92396  0.00000 -0.84792
       3     C     3.06259  3.06259  0.00000 -0.12518
       4     H     0.33369  0.33369  0.00000  0.33262
       5     C     3.16170  3.16170  0.00000 -0.32340
       6     H     0.41871  0.41871  0.00000  0.16258
       7     H     0.43148  0.43148  0.00000  0.13704
       8     C     3.15026  3.15026  0.00000 -0.30052
       9     H     0.42360  0.42360  0.00000  0.15279
      10     H     0.41957  0.41957  0.00000  0.16086
      11     C     3.15173  3.15173  0.00000 -0.30347
      12     H     0.43180  0.43180  0.00000  0.13641
      13     H     0.40706  0.40706  0.00000  0.18587
      14     C     3.23871  3.23871  0.00000 -0.47741
      15     H     0.42528  0.42528  0.00000  0.14944
      16     H     0.42352  0.42352  0.00000  0.15296
      17     H     0.42310  0.42310  0.00000  0.15380
      18     H     0.42050  0.42050  0.00000  0.15900
      19     H     0.42101  0.42101  0.00000  0.15799

   Total alpha = 25.00000, Total beta = 25.00000, Total charge =  0.00000
