  ==> Input File <==

--------------------------------------------------------------------------
set {
	reference rhf
	basis 6-31G*
}

set_num_threads( 1 )
memory 2 gb

molecule MOL {
0 1

H	 -3.135461	 -1.215070	 0.001379
O	 -2.310168	 -0.871793	 -0.309793
C	 -2.026376	 0.340750	 0.341611
C	 -0.673256	 0.843270	 -0.132153
H	 -2.792215	 1.080697	 0.115987
H	 -2.013526	 0.200402	 1.421792
C	 0.486613	 -0.083066	 0.235839
H	 -0.715586	 0.970948	 -1.210718
H	 -0.508072	 1.829858	 0.297090
C	 1.650948	 -0.001797	 -0.752864
H	 0.123281	 -1.104214	 0.288372
H	 0.844911	 0.170032	 1.233038
C	 2.812469	 -0.923175	 -0.381911
H	 1.294649	 -0.255151	 -1.749148
H	 2.008939	 1.024420	 -0.809106
H	 2.493806	 -1.961165	 -0.351580
H	 3.622097	 -0.846260	 -1.101308
H	 3.214292	 -0.673254	 0.596142

	symmetry c1
}
set optking {
	frozen_dihedral = ("
		14 10 7 11,
		2 3 4 8,
		1 2 3 4
	")
}

ee = energy('scf')
oeprop('DIPOLE', 'QUADRUPOLE', 'MULLIKEN_CHARGES')
f=open( 'psi4out.xyz', 'w' )
f.write( "18  " )
f.write( str(ee) + "\n" )
f.write( MOL.save_string_xyz() )
f.close()
--------------------------------------------------------------------------

    Molecular point group: c1

    Geometry (in Angstrom), charge = 0, multiplicity = 1:

       Center              X                  Y                   Z               Mass
    ------------   -----------------  -----------------  -----------------  -----------------
           H         -3.073315444411    -1.071835908376     0.166063145134     1.007825032070
           O         -2.248022444411    -0.728558908376    -0.145108854866    15.994914619560
           C         -1.964230444411     0.483984091624     0.506295145134    12.000000000000
           C         -0.611110444411     0.986504091624     0.032531145134    12.000000000000
           H         -2.730069444411     1.223931091624     0.280671145134     1.007825032070
           H         -1.951380444411     0.343636091624     1.586476145134     1.007825032070
           C          0.548758555589     0.060168091624     0.400523145134    12.000000000000
           H         -0.653440444411     1.114182091624    -1.046033854866     1.007825032070
           H         -0.445926444411     1.973092091624     0.461774145134     1.007825032070
           C          1.713093555589     0.141437091624    -0.588179854866    12.000000000000
           H          0.185426555589    -0.960979908376     0.453056145134     1.007825032070
           H          0.907056555589     0.313266091624     1.397722145134     1.007825032070
           C          2.874614555589    -0.779940908376    -0.217226854866    12.000000000000
           H          1.356794555589    -0.111916908376    -1.584463854866     1.007825032070
           H          2.071084555589     1.167654091624    -0.644421854866     1.007825032070
           H          2.555951555589    -1.817930908376    -0.186895854866     1.007825032070
           H          3.684242555589    -0.703025908376    -0.936623854866     1.007825032070
           H          3.276437555589    -0.530019908376     0.760826145134     1.007825032070

  Charge       = 0
  Multiplicity = 1
  Basis Set: 6-31G*
  Basis Set:

    Orbital Energies (a.u.)
    -----------------------

    Doubly Occupied:

       1A    -20.553633     2A    -11.268225     3A    -11.211210
       4A    -11.209506     5A    -11.205222     6A    -11.203290
       7A     -1.360379     8A     -1.073980     9A     -1.007999
      10A     -0.912557    11A     -0.817287    12A     -0.783385
      13A     -0.706121    14A     -0.636872    15A     -0.627398
      16A     -0.581293    17A     -0.568933    18A     -0.559183
      19A     -0.521160    20A     -0.496088    21A     -0.491090
      22A     -0.467611    23A     -0.455972    24A     -0.445944
      25A     -0.428938

  @DF-RHF Final Energy:  -271.17761171690870

   => Energetics <=

    Nuclear Repulsion Energy =            250.0297692904003668
    One-Electron Energy =                -863.2280830883760245
    Two-Electron Energy =                 342.0207020810669292
    DFT Exchange-Correlation Energy =       0.0000000000000000
    Empirical Dispersion Energy =           0.0000000000000000
    PCM Polarization Energy =               0.0000000000000000
    EFP Energy =                            0.0000000000000000
    Total Energy =                       -271.1776117169087001

  Mulliken Charges: (a.u.)
   Center  Symbol    Alpha    Beta     Spin     Total
       1     H     0.28043  0.28043  0.00000  0.43914
       2     O     4.36909  4.36909  0.00000 -0.73817
       3     C     2.99898  2.99898  0.00000  0.00204
       4     C     3.16063  3.16063  0.00000 -0.32127
       5     H     0.42928  0.42928  0.00000  0.14145
       6     H     0.43275  0.43275  0.00000  0.13450
       7     C     3.15557  3.15557  0.00000 -0.31113
       8     H     0.41444  0.41444  0.00000  0.17112
       9     H     0.42272  0.42272  0.00000  0.15457
      10     C     3.15285  3.15285  0.00000 -0.30569
      11     H     0.40735  0.40735  0.00000  0.18530
      12     H     0.42665  0.42665  0.00000  0.14670
      13     C     3.23945  3.23945  0.00000 -0.47890
      14     H     0.42003  0.42003  0.00000  0.15993
      15     H     0.42530  0.42530  0.00000  0.14939
      16     H     0.42080  0.42080  0.00000  0.15841
      17     H     0.42048  0.42048  0.00000  0.15904
      18     H     0.42321  0.42321  0.00000  0.15358

   Total alpha = 25.00000, Total beta = 25.00000, Total charge = -0.00000
