  ==> Input File <==

--------------------------------------------------------------------------
set {
	reference rhf
	basis 6-31G*
}

set_num_threads( 1 )
memory 2 gb

molecule MOL {
0 1

H	 2.370596	 -0.153586	 -0.859790
O	 1.654024	 -0.625927	 -0.460906
C	 1.135793	 0.118896	 0.612333
C	 0.031547	 1.023609	 0.088541
H	 1.915668	 0.729681	 1.063582
H	 0.754543	 -0.542641	 1.387006
C	 -1.134819	 0.293262	 -0.585751
H	 0.474374	 1.714721	 -0.623187
H	 -0.338529	 1.620940	 0.920081
C	 -1.917817	 -0.639439	 0.339494
H	 -0.758119	 -0.268455	 -1.433105
H	 -1.813832	 1.041889	 -0.986690
H	 -2.777680	 -1.057197	 -0.174994
H	 -1.310268	 -1.471279	 0.680599
H	 -2.283753	 -0.111424	 1.216626

	symmetry c1
}
set optking {
	frozen_dihedral = ("
		8 4 7 11,
		2 3 4 8
	")
}

ee = energy('scf')
oeprop('DIPOLE', 'QUADRUPOLE', 'MULLIKEN_CHARGES')
f=open( 'psi4out.xyz', 'w' )
f.write( "15  " )
f.write( str(ee) + "\n" )
f.write( MOL.save_string_xyz() )
f.close()
--------------------------------------------------------------------------

    Molecular point group: c1

    Geometry (in Angstrom), charge = 0, multiplicity = 1:

       Center              X                  Y                   Z               Mass
    ------------   -----------------  -----------------  -----------------  -----------------
           H          2.370110753245    -0.167878549190    -0.850106232222     1.007825032070
           O          1.653538753245    -0.640219549190    -0.451222232222    15.994914619560
           C          1.135307753245     0.104603450810     0.622016767778    12.000000000000
           C          0.031061753245     1.009316450810     0.098224767778    12.000000000000
           H          1.915182753245     0.715388450810     1.073265767778     1.007825032070
           H          0.754057753245    -0.556933549190     1.396689767778     1.007825032070
           C         -1.135304246755     0.278969450810    -0.576067232222    12.000000000000
           H          0.473888753245     1.700428450810    -0.613503232222     1.007825032070
           H         -0.339014246755     1.606647450810     0.929764767778     1.007825032070
           C         -1.918302246755    -0.653731549190     0.349177767778    12.000000000000
           H         -0.758604246755    -0.282747549190    -1.423421232222     1.007825032070
           H         -1.814317246755     1.027596450810    -0.977006232222     1.007825032070
           H         -2.778165246755    -1.071489549190    -0.165310232222     1.007825032070
           H         -1.310753246755    -1.485571549190     0.690282767778     1.007825032070
           H         -2.284238246755    -0.125716549190     1.226309767778     1.007825032070

  Charge       = 0
  Multiplicity = 1
  Basis Set: 6-31G*
  Basis Set:

    Orbital Energies (a.u.)
    -----------------------

    Doubly Occupied:

       1A    -20.552804     2A    -11.268457     3A    -11.211754
       4A    -11.209400     5A    -11.204300     6A     -1.360796
       7A     -1.063630     8A     -0.969517     9A     -0.871786
      10A     -0.781330    11A     -0.692064    12A     -0.642951
      13A     -0.621007    14A     -0.576962    15A     -0.560132
      16A     -0.535465    17A     -0.504548    18A     -0.483741
      19A     -0.467626    20A     -0.452637    21A     -0.423968

  @DF-RHF Final Energy:  -232.14158779597338

   => Energetics <=

    Nuclear Repulsion Energy =            192.1330860492730324
    One-Electron Energy =                -695.6396157075148494
    Two-Electron Energy =                 271.3649418622688927
    DFT Exchange-Correlation Energy =       0.0000000000000000
    Empirical Dispersion Energy =           0.0000000000000000
    PCM Polarization Energy =               0.0000000000000000
    EFP Energy =                            0.0000000000000000
    Total Energy =                       -232.1415877959728959

  Mulliken Charges: (a.u.)
   Center  Symbol    Alpha    Beta     Spin     Total
       1     H     0.28017  0.28017  0.00000  0.43967
       2     O     4.36887  4.36887  0.00000 -0.73773
       3     C     3.00544  3.00544  0.00000 -0.01089
       4     C     3.15850  3.15850  0.00000 -0.31701
       5     H     0.42829  0.42829  0.00000  0.14342
       6     H     0.41586  0.41586  0.00000  0.16828
       7     C     3.15162  3.15162  0.00000 -0.30324
       8     H     0.42592  0.42592  0.00000  0.14816
       9     H     0.42755  0.42755  0.00000  0.14490
      10     C     3.24420  3.24420  0.00000 -0.48840
      11     H     0.40969  0.40969  0.00000  0.18062
      12     H     0.42324  0.42324  0.00000  0.15352
      13     H     0.41884  0.41884  0.00000  0.16231
      14     H     0.41694  0.41694  0.00000  0.16613
      15     H     0.42487  0.42487  0.00000  0.15027

   Total alpha = 21.00000, Total beta = 21.00000, Total charge = -0.00000
