  ==> Input File <==

--------------------------------------------------------------------------
set {
	reference rhf
	basis cc-pvtz
}

set_num_threads( 4 )
memory 2 gb

molecule MOL {
0 1

H	 2.437533	 -0.908288	 0.145466
O	 2.063695	 -0.083403	 -0.105237
C	 0.742924	 0.005675	 0.350750
H	 0.731380	 0.039219	 1.440080
C	 -0.064076	 -1.193495	 -0.124425
C	 -0.047832	 1.190568	 -0.194462
H	 0.194729	 -1.376165	 -1.161308
H	 0.163013	 -2.094508	 0.429933
C	 -1.533112	 -0.752002	 0.006102
H	 0.148003	 1.266545	 -1.259275
H	 0.226235	 2.136493	 0.259722
C	 -1.506634	 0.799189	 0.067162
H	 -2.124360	 -1.110499	 -0.826089
H	 -1.983103	 -1.158030	 0.903403
H	 -2.183808	 1.252169	 -0.644677
H	 -1.813926	 1.138698	 1.049457

	symmetry c1
}
set optking {
	frozen_dihedral = ("
		1 2 3 6
	")
}

ee = optimize('scf')
oeprop('DIPOLE', 'QUADRUPOLE', 'MULLIKEN_CHARGES')
f=open( 'psi4out.xyz', 'w' )
f.write( "16  " )
f.write( str(ee) + "\n" )
f.write( MOL.save_string_xyz() )
f.close()
--------------------------------------------------------------------------

    Molecular point group: c1
  Charge       = 0
  Multiplicity = 1
  Basis Set: CC-PVTZ
  Basis Set:
  @DF-RHF Final Energy:  -270.11500837780841
    Total Energy =                       -270.1150083778083513
    Molecular point group: c1
  Basis Set: CC-PVTZ
  Basis Set:
  Basis Set: CC-PVTZ
  Basis Set:
  @DF-RHF Final Energy:  -270.11653275265132
    Total Energy =                       -270.1165327526512101
  Basis Set: CC-PVTZ
  Basis Set:
  Basis Set: CC-PVTZ
  Basis Set:
  @DF-RHF Final Energy:  -270.11668949504821
    Total Energy =                       -270.1166894950478650
  Basis Set: CC-PVTZ
  Basis Set:
  Basis Set: CC-PVTZ
  Basis Set:
  @DF-RHF Final Energy:  -270.11669515687902
    Total Energy =                       -270.1166951568790182
  Basis Set: CC-PVTZ
  Basis Set:
  @DF-RHF Final Energy:  -270.11669726132322
    Total Energy =                       -270.1166972613232815
  @DF-RHF Final Energy:  -270.11670319759440
    Total Energy =                       -270.1167031975946884
  @DF-RHF Final Energy:  -270.11670884269097
    Total Energy =                       -270.1167088426907412
  Basis Set: CC-PVTZ
  Basis Set:
  @DF-RHF Final Energy:  -270.11671391252855
    Total Energy =                       -270.1167139125284962
  Basis Set: CC-PVTZ
  Basis Set:
  Basis Set: CC-PVTZ
  Basis Set:
  @DF-RHF Final Energy:  -270.11671702138506
    Total Energy =                       -270.1167170213851705
  Basis Set: CC-PVTZ
  Basis Set:
  Basis Set: CC-PVTZ
  Basis Set:
  @DF-RHF Final Energy:  -270.11671907957964
    Total Energy =                       -270.1167190795797524
  Basis Set: CC-PVTZ
  Basis Set:
  Charge       = 0
  Multiplicity = 1
  Basis Set: CC-PVTZ
  Basis Set:

    Orbital Energies (a.u.)
    -----------------------

    Doubly Occupied:

       1A    -20.545578     2A    -11.267129     3A    -11.215767
       4A    -11.213676     5A    -11.212021     6A    -11.207102
       7A     -1.365706     8A     -1.115446     9A     -0.967496
      10A     -0.949381    11A     -0.791686    12A     -0.778636
      13A     -0.701405    14A     -0.660463    15A     -0.618961
      16A     -0.593373    17A     -0.569796    18A     -0.526842
      19A     -0.505026    20A     -0.482471    21A     -0.471567
      22A     -0.456785    23A     -0.448196    24A     -0.424611

  @DF-RHF Final Energy:  -270.11671946845786

   => Energetics <=

    Nuclear Repulsion Energy =            255.6622963384659499
    One-Electron Energy =                -873.3797864791840766
    Two-Electron Energy =                 347.6007706722600687
    DFT Exchange-Correlation Energy =       0.0000000000000000
    Empirical Dispersion Energy =           0.0000000000000000
    PCM Polarization Energy =               0.0000000000000000
    EFP Energy =                            0.0000000000000000
    Total Energy =                       -270.1167194684580863
    Molecular point group: c1
  Basis Set: CC-PVTZ
  Basis Set:

  -Total Gradient:
     Atom            X                  Y                   Z
    ------   -----------------  -----------------  -----------------
       1       -0.000300354255    -0.000375133780    -0.000916366565
       2        0.000294707210     0.000342321196     0.000928130463
       3        0.000168548461     0.000371992077     0.000500143433
       4        0.000000227748     0.000001394638     0.000000340883
       5       -0.000028411489     0.000003731497     0.000023689139
       6       -0.000155625190    -0.000337447000    -0.000507270470
       7        0.000000558992    -0.000003321662    -0.000005035500
       8        0.000002097739    -0.000003413533     0.000000367960
       9        0.000030516963    -0.000004888264    -0.000012946477
      10       -0.000002490734     0.000000407571    -0.000003712334
      11       -0.000003444370     0.000001932553    -0.000003364779
      12       -0.000004650178     0.000001788184    -0.000012640343
      13        0.000000098064     0.000003520153    -0.000004875128
      14       -0.000005775736     0.000001264665     0.000001683832
      15       -0.000002678522    -0.000001116091     0.000003533194
      16        0.000006675300    -0.000003032203     0.000008322691

  **** Optimization is complete! (in 11 steps) ****
    Final optimized geometry and variables:
    Molecular point group: c1

    Geometry (in Angstrom), charge = 0, multiplicity = 1:

    H            2.490479327732    -0.809334557281     0.110577383176
    O            2.068498434631     0.007215647546    -0.085498982930
    C            0.740258848125    -0.018776107774     0.356087427756
    H            0.715743893839    -0.016177726293     1.445823038828
    C           -0.086416044823    -1.192291298944    -0.161243185153
    C           -0.022188756912     1.188271322492    -0.167429445587
    H            0.129547018376    -1.317496759820    -1.217538673590
    H            0.141567061058    -2.129396988123     0.334977503800
    C           -1.538903910381    -0.741537152969     0.048653756043
    H            0.221009800315     1.304954560916    -1.217750116848
    H            0.250514659704     2.107327968640     0.334533431700
    C           -1.500626404289     0.810885789027     0.016101834664
    H           -2.198533454572    -1.151750007559    -0.704375373857
    H           -1.907585603494    -1.087281369743     1.006831621863
    H           -2.114590723244     1.215397393155    -0.777526980275
    H           -1.886552991687     1.214946663831     0.943922053069

  Mulliken Charges: (a.u.)
   Center  Symbol    Alpha    Beta     Spin     Total
       1     H     0.39474  0.39474  0.00000  0.21051
       2     O     4.20102  4.20102  0.00000 -0.40203
       3     C     2.92247  2.92247  0.00000  0.15505
       4     H     0.46551  0.46551  0.00000  0.06898
       5     C     3.10884  3.10884  0.00000 -0.21768
       6     C     3.09913  3.09913  0.00000 -0.19826
       7     H     0.45270  0.45270  0.00000  0.09459
       8     H     0.44811  0.44811  0.00000  0.10379
       9     C     3.11379  3.11379  0.00000 -0.22758
      10     H     0.45230  0.45230  0.00000  0.09540
      11     H     0.44327  0.44327  0.00000  0.11346
      12     C     3.11112  3.11112  0.00000 -0.22225
      13     H     0.44378  0.44378  0.00000  0.11245
      14     H     0.44940  0.44940  0.00000  0.10120
      15     H     0.44464  0.44464  0.00000  0.11072
      16     H     0.44917  0.44917  0.00000  0.10167

   Total alpha = 24.00000, Total beta = 24.00000, Total charge = -0.00000
