                              Psi4 1.0.54 Driver

  ==> Input File <==

--------------------------------------------------------------------------
set {
	reference rhf
	basis cc-pvtz
}

set_num_threads( 4 )
memory 2 gb

molecule MOL {
0 1

H	 -1.835082	 1.385983	 0.000069
C	 -1.300516	 0.441153	 -0.000028
O	 -0.006604	 0.654344	 -0.000106
O	 -1.828920	 -0.612308	 0.000113
C	 0.852093	 -0.482521	 -0.000161
C	 0.534154	 -1.300568	 1.228828
H	 1.878684	 -0.144780	 -0.000222
H	 0.686628	 -1.045153	 -0.907921
H	 0.700573	 -0.723634	 2.129618
H	 1.172191	 -2.175700	 1.258961
H	 -0.497490	 -1.628513	 1.217371

	symmetry c1
}
set optking {
	frozen_dihedral = ("
		7 5 3 2
	")
}

ee,wfn = optimize('scf', return_wfn=True)
oeprop( wfn, 'DIPOLE', 'QUADRUPOLE', 'MULLIKEN_CHARGES')
f=open( 'psi4out.xyz', 'w' )
f.write( "11  " )
f.write( str(ee) + "\n" )
f.write( MOL.save_string_xyz() )
f.close()
--------------------------------------------------------------------------

    Molecular point group: c1
  Charge       = 0
  Multiplicity = 1
  Basis Set: CC-PVTZ
  Basis Set:
  @DF-RHF Final Energy:  -266.92178061827042
    Total Energy =                       -266.9217806182706454
    Molecular point group: c1
  Basis Set: CC-PVTZ
  Basis Set:
  Basis Set: CC-PVTZ
  Basis Set:
  @DF-RHF Final Energy:  -266.92801167463415
    Total Energy =                       -266.9280116746342060
  Basis Set: CC-PVTZ
  Basis Set:
  Basis Set: CC-PVTZ
  Basis Set:
  @DF-RHF Final Energy:  -266.92493241676607
    Total Energy =                       -266.9249324167658983
  Basis Set: CC-PVTZ
  Basis Set:
  Basis Set: CC-PVTZ
  Basis Set:
  @DF-RHF Final Energy:  -266.92832641907421
    Total Energy =                       -266.9283264190742102
  Basis Set: CC-PVTZ
  Basis Set:
  Basis Set: CC-PVTZ
  Basis Set:
  @DF-RHF Final Energy:  -266.92879140307406
    Total Energy =                       -266.9287914030741149
  Basis Set: CC-PVTZ
  Basis Set:
  Basis Set: CC-PVTZ
  Basis Set:
  @DF-RHF Final Energy:  -266.92879869528031
    Total Energy =                       -266.9287986952803067
  Basis Set: CC-PVTZ
  Basis Set:
  Charge       = 0
  Multiplicity = 1
  Basis Set: CC-PVTZ
  Basis Set:

    Orbital Energies (a.u.)
    -----------------------

    Doubly Occupied:

       1A    -20.604755     2A    -20.545220     3A    -11.370750
       4A    -11.292218     5A    -11.219358     6A     -1.477621
       7A     -1.377406     8A     -1.048952     9A     -0.915472
      10A     -0.795443    11A     -0.742588    12A     -0.687340
      13A     -0.660170    14A     -0.627549    15A     -0.577366
      16A     -0.542933    17A     -0.532993    18A     -0.504354
      19A     -0.462314    20A     -0.453686

  @DF-RHF Final Energy:  -266.92879966172796

   => Energetics <=

    Nuclear Repulsion Energy =            183.1245755093814864
    One-Electron Energy =                -727.2297715686829633
    Two-Electron Energy =                 277.1763963975733986
    DFT Exchange-Correlation Energy =       0.0000000000000000
    Empirical Dispersion Energy =           0.0000000000000000
    PCM Polarization Energy =               0.0000000000000000
    EFP Energy =                            0.0000000000000000
    Total Energy =                       -266.9287996617281351
    Molecular point group: c1
  Basis Set: CC-PVTZ
  Basis Set:

  -Total Gradient:
     Atom            X                  Y                   Z
    ------   -----------------  -----------------  -----------------
       1       -0.000048898496     0.000067360624     0.000004413626
       2       -0.000453477475    -0.000121654138     0.004324706637
       3        0.000504954021     0.000136894248    -0.005521207038
       4        0.000050047697     0.000010004356     0.000018854085
       5        0.000523149164     0.000069002327    -0.003490683625
       6        0.000021104842    -0.000032579394    -0.000026246222
       7       -0.000568438350    -0.000137233704     0.004682943429
       8       -0.000019105136    -0.000004847857     0.000009457782
       9       -0.000007571494     0.000008020036    -0.000008145751
      10       -0.000008447974    -0.000009439419     0.000018067440
      11        0.000006683200     0.000014472922    -0.000012160364

  **** Optimization is complete! (in 7 steps) ****
    Final optimized geometry and variables:
    Molecular point group: c1

    Geometry (in Angstrom), charge = 0, multiplicity = 1:

    H           -1.445926539235     1.711272693791    -0.275920891777
    C           -0.944994769744     0.749172321923    -0.327201184697
    O            0.345974949470     0.910997852926    -0.168387566110
    O           -1.506414482557    -0.269519338682    -0.518623580050
    C            1.203594739560    -0.227514113736    -0.092390449335
    C            0.912506135119    -1.130995473741     1.091903066898
    H            2.184322873178     0.203080539803     0.035557361212
    H            1.156671031537    -0.768317519132    -1.026572213781
    H            0.916834707332    -0.558885392557     2.012455352724
    H            1.696378331020    -1.877169400361     1.157681652762
    H           -0.035422665426    -1.635436020539     0.995067126900

  Mulliken Charges: (a.u.)
   Center  Symbol    Alpha    Beta     Spin     Total
       1     H     0.44626  0.44626  0.00000  0.10749
       2     C     2.84121  2.84121  0.00000  0.31759
       3     O     4.14869  4.14869  0.00000 -0.29738
       4     O     4.19778  4.19778  0.00000 -0.39556
       5     C     2.97807  2.97807  0.00000  0.04386
       6     C     3.15361  3.15361  0.00000 -0.30721
       7     H     0.44468  0.44468  0.00000  0.11063
       8     H     0.45149  0.45149  0.00000  0.09701
       9     H     0.45239  0.45239  0.00000  0.09522
      10     H     0.45020  0.45020  0.00000  0.09960
      11     H     0.43562  0.43562  0.00000  0.12875

   Total alpha = 20.00000, Total beta = 20.00000, Total charge =  0.00000

*** Psi4 exiting successfully. Buy a developer a beer!
