                              Psi4 1.0.54 Driver

  ==> Input File <==

--------------------------------------------------------------------------
set {
	reference rhf
	basis cc-pvtz
}

set_num_threads( 4 )
memory 2 gb

molecule MOL {
0 1

H	 0.873961	 3.061909	 2.006470
O	 1.574654	 2.666436	 1.519283
C	 1.139575	 1.625168	 0.787814
C	 2.074736	 0.948465	 0.017964
C	 -0.178894	 1.222706	 0.783227
H	 3.094659	 1.277985	 0.036128
C	 1.687380	 -0.124942	 -0.750868
H	 -0.921062	 1.726154	 1.367201
C	 -0.532034	 0.141680	 0.000000
H	 2.417017	 -0.641853	 -1.342629
C	 0.368857	 -0.548019	 -0.772006
N	 -1.937041	 -0.281114	 0.000000
H	 0.053693	 -1.379381	 -1.363808
O	 -2.159542	 -1.446261	 0.000000
O	 -2.764978	 0.565773	 0.000000

	symmetry c1
}
set optking {
	frozen_dihedral = ("
		11 9 12 14
	")
}

ee,wfn = optimize('scf', return_wfn=True)
oeprop( wfn, 'DIPOLE', 'QUADRUPOLE', 'MULLIKEN_CHARGES')
f=open( 'psi4out.xyz', 'w' )
f.write( "15  " )
f.write( str(ee) + "\n" )
f.write( MOL.save_string_xyz() )
f.close()
--------------------------------------------------------------------------

    Molecular point group: c1
  Charge       = 0
  Multiplicity = 1
  Basis Set: CC-PVTZ
  Basis Set:
  @DF-RHF Final Energy:  -509.21594969900957
    Total Energy =                       -509.2159496990091156
    Molecular point group: c1
  Basis Set: CC-PVTZ
  Basis Set:
  Basis Set: CC-PVTZ
  Basis Set:
  @DF-RHF Final Energy:  -509.20881058381968
    Total Energy =                       -509.2088105838197407
  Basis Set: CC-PVTZ
  Basis Set:
  Basis Set: CC-PVTZ
  Basis Set:
  @DF-RHF Final Energy:  -509.21496991969258
    Total Energy =                       -509.2149699196922938
  Basis Set: CC-PVTZ
  Basis Set:
  Basis Set: CC-PVTZ
  Basis Set:
  @DF-RHF Final Energy:  -509.21617969187861
    Total Energy =                       -509.2161796918785512
  Basis Set: CC-PVTZ
  Basis Set:
  Basis Set: CC-PVTZ
  Basis Set:
  @DF-RHF Final Energy:  -509.21611278709656
    Total Energy =                       -509.2161127870965629
  Basis Set: CC-PVTZ
  Basis Set:
  Basis Set: CC-PVTZ
  Basis Set:
  @DF-RHF Final Energy:  -509.21630094543633
    Total Energy =                       -509.2163009454368421
  Basis Set: CC-PVTZ
  Basis Set:
  Charge       = 0
  Multiplicity = 1
  Basis Set: CC-PVTZ
  Basis Set:

    Orbital Energies (a.u.)
    -----------------------

    Doubly Occupied:

       1A    -20.609409     2A    -20.597214     3A    -20.596554
       4A    -15.850246     5A    -11.329088     6A    -11.310838
       7A    -11.264176     8A    -11.263651     9A    -11.258872
      10A    -11.254515    11A     -1.645105    12A     -1.442159
      13A     -1.428092    14A     -1.203764    15A     -1.096435
      16A     -1.049140    17A     -0.967007    18A     -0.884004
      19A     -0.832587    20A     -0.794331    21A     -0.762612
      22A     -0.740976    23A     -0.725736    24A     -0.711819
      25A     -0.675463    26A     -0.636328    27A     -0.622637
      28A     -0.597808    29A     -0.563281    30A     -0.548483
      31A     -0.528259    32A     -0.494892    33A     -0.491862
      34A     -0.459365    35A     -0.378574    36A     -0.346526

  @DF-RHF Final Energy:  -509.21630146114512

   => Energetics <=

    Nuclear Repulsion Energy =            504.5892727844476440
    One-Electron Energy =               -1695.6875351005542143
    Two-Electron Energy =                 681.8819608549615623
    DFT Exchange-Correlation Energy =       0.0000000000000000
    Empirical Dispersion Energy =           0.0000000000000000
    PCM Polarization Energy =               0.0000000000000000
    EFP Energy =                            0.0000000000000000
    Total Energy =                       -509.2163014611451217
    Molecular point group: c1
  Basis Set: CC-PVTZ
  Basis Set:

  -Total Gradient:
     Atom            X                  Y                   Z
    ------   -----------------  -----------------  -----------------
       1        0.000000004456    -0.000007406311     0.000008150533
       2        0.000004319971     0.000014847269    -0.000002607968
       3       -0.000029665517     0.000002694221    -0.000036559605
       4        0.000006275865    -0.000008974207    -0.000001369102
       5       -0.000006764665    -0.000007281255     0.000044992427
       6       -0.000000729472     0.000000422976    -0.000001765106
       7        0.000023675165    -0.000013804119     0.000016437005
       8        0.000008149843    -0.000002650513    -0.000003970624
       9        0.000987631652    -0.003662619228     0.005738691361
      10       -0.000000809175     0.000002276022    -0.000004758947
      11       -0.000698032650     0.002455835838    -0.002860253894
      12       -0.000357289655     0.001295214927    -0.007251523799
      13        0.000001372238     0.000003919420     0.000001775707
      14        0.000121818469    -0.000241356828     0.004355259136
      15       -0.000059956524     0.000168881796    -0.000002497124

  **** Optimization is complete! (in 7 steps) ****
    Final optimized geometry and variables:
    Molecular point group: c1

    Geometry (in Angstrom), charge = 0, multiplicity = 1:

    H            1.019149812476     2.565533035663     1.828504219740
    O            1.718365212364     2.171819807072     1.337847971678
    C            1.282357670554     1.135450542444     0.601489300234
    C            2.212849143301     0.473992402742    -0.187603352814
    C           -0.035617604471     0.728048793522     0.602171627891
    H            3.229296417543     0.814113448718    -0.181627376152
    C            1.824599889099    -0.593951071716    -0.963421696187
    H           -0.781891336654     1.238330862227     1.177068560540
    C           -0.379463244970    -0.363450884755    -0.166892146898
    H            2.548954085571    -1.091306552632    -1.578091369060
    C            0.511750445143    -1.036305098004    -0.961494176513
    N           -1.783981165036    -0.774677467636    -0.183720740772
    H            0.196146188664    -1.873297926701    -1.547586894115
    O           -2.008757297859    -1.937176652403    -0.223651618180
    O           -2.602824788489     0.081466012252    -0.127273024147

  Mulliken Charges: (a.u.)
   Center  Symbol    Alpha    Beta     Spin     Total
       1     H     0.38437  0.38437  0.00000  0.23125
       2     O     4.16777  4.16777  0.00000 -0.33553
       3     C     2.84425  2.84425  0.00000  0.31150
       4     C     3.10029  3.10029  0.00000 -0.20058
       5     C     3.13941  3.13941  0.00000 -0.27882
       6     H     0.41354  0.41354  0.00000  0.17292
       7     C     3.05470  3.05470  0.00000 -0.10940
       8     H     0.41439  0.41439  0.00000  0.17122
       9     C     2.94449  2.94449  0.00000  0.11103
      10     H     0.41614  0.41614  0.00000  0.16771
      11     C     3.10453  3.10453  0.00000 -0.20905
      12     N     3.26927  3.26927  0.00000  0.46147
      13     H     0.40593  0.40593  0.00000  0.18814
      14     O     4.16874  4.16874  0.00000 -0.33748
      15     O     4.17218  4.17218  0.00000 -0.34436

   Total alpha = 36.00000, Total beta = 36.00000, Total charge = -0.00000

*** Psi4 exiting successfully. Buy a developer a beer!
