  ==> Input File <==

--------------------------------------------------------------------------
set {
	reference rhf
	basis 6-31G*
}

set_num_threads( 4 )
memory 2 gb

molecule MOL {
0 1

H	 -3.261111	 -0.295142	 1.469456
C	 -3.306842	 -0.277400	 0.373456
C	 -2.660244	 0.921717	 -0.272021
O	 -3.838538	 -1.161155	 -0.216482
C	 -1.220012	 1.144545	 0.209990
H	 -2.705793	 0.797307	 -1.347733
H	 -3.263782	 1.790044	 -0.010477
C	 -0.252658	 0.041456	 -0.226725
H	 -0.873521	 2.100229	 -0.171974
H	 -1.211708	 1.231594	 1.295398
C	 1.180775	 0.282413	 0.250794
H	 -0.266029	 -0.034465	 -1.312038
H	 -0.597733	 -0.921000	 0.146291
C	 2.148627	 -0.814315	 -0.201312
H	 1.516199	 1.249228	 -0.115937
H	 1.192670	 0.346017	 1.338083
C	 3.580890	 -0.659131	 0.322722
H	 2.166869	 -0.852443	 -1.289387
H	 1.762857	 -1.776509	 0.128956
C	 4.582868	 -1.656639	 -0.260919
H	 3.564935	 -0.774229	 1.403669
H	 3.926625	 0.354647	 0.131299
H	 4.254469	 -2.679881	 -0.098441
H	 4.719308	 -1.518438	 -1.328279
H	 5.555673	 -1.544188	 0.208124

	symmetry c1
}
set optking {
	frozen_dihedral = ("
		20 17 14 18
	")
}

ee = optimize('scf')
oeprop('DIPOLE', 'QUADRUPOLE', 'MULLIKEN_CHARGES')
f=open( 'psi4out.xyz', 'w' )
f.write( "25  " )
f.write( str(ee) + "\n" )
f.write( MOL.save_string_xyz() )
f.close()
--------------------------------------------------------------------------

    Molecular point group: c1
  Charge       = 0
  Multiplicity = 1
  Basis Set: 6-31G*
  Basis Set:
  @DF-RHF Final Energy:  -387.12307354707531
    Total Energy =                       -387.1230735470749096
    Molecular point group: c1
  Basis Set: 6-31G*
  Basis Set:
  Basis Set: 6-31G*
  Basis Set:
  @DF-RHF Final Energy:  -387.12317490012964
    Total Energy =                       -387.1231749001296976
  Basis Set: 6-31G*
  Basis Set:
  Basis Set: 6-31G*
  Basis Set:
  @DF-RHF Final Energy:  -387.12330661247944
    Total Energy =                       -387.1233066124798370
  Basis Set: 6-31G*
  Basis Set:
  Basis Set: 6-31G*
  Basis Set:
  @DF-RHF Final Energy:  -387.12343567689231
    Total Energy =                       -387.1234356768925409
  Basis Set: 6-31G*
  Basis Set:
  Basis Set: 6-31G*
  Basis Set:
  @DF-RHF Final Energy:  -387.12344037530255
    Total Energy =                       -387.1234403753023798
  Basis Set: 6-31G*
  Basis Set:
  Charge       = 0
  Multiplicity = 1
  Basis Set: 6-31G*
  Basis Set:

    Orbital Energies (a.u.)
    -----------------------

    Doubly Occupied:

       1A    -20.562070     2A    -11.326219     3A    -11.235399
       4A    -11.234719     5A    -11.224053     6A    -11.220444
       7A    -11.217707     8A    -11.216685     9A    -11.210239
      10A     -1.401991    11A     -1.104029    12A     -1.070116
      13A     -1.015284    14A     -0.943578    15A     -0.868157
      16A     -0.814516    17A     -0.794361    18A     -0.787062
      19A     -0.665153    20A     -0.664061    21A     -0.639298
      22A     -0.614700    23A     -0.606827    24A     -0.592124
      25A     -0.566909    26A     -0.554300    27A     -0.537599
      28A     -0.520912    29A     -0.506859    30A     -0.499988
      31A     -0.487328    32A     -0.477272    33A     -0.466751
      34A     -0.464703    35A     -0.440641    36A     -0.409605

  @DF-RHF Final Energy:  -387.12344119720944

   => Energetics <=

    Nuclear Repulsion Energy =            435.3695171298141986
    One-Electron Energy =               -1387.0626019630817609
    Two-Electron Energy =                 564.5696436360587995
    DFT Exchange-Correlation Energy =       0.0000000000000000
    Empirical Dispersion Energy =           0.0000000000000000
    PCM Polarization Energy =               0.0000000000000000
    EFP Energy =                            0.0000000000000000
    Total Energy =                       -387.1234411972087628
    Molecular point group: c1
  Basis Set: 6-31G*
  Basis Set:

  -Total Gradient:
     Atom            X                  Y                   Z
    ------   -----------------  -----------------  -----------------
       1       -0.000012910808    -0.000005051079    -0.000004734361
       2        0.000088781257     0.000007840882    -0.000070391107
       3        0.000045306548    -0.000020027420     0.000078372332
       4       -0.000048522056    -0.000053770412     0.000018946591
       5       -0.000017287762     0.000013702805    -0.000074429129
       6        0.000008024821    -0.000032079223     0.000035477946
       7        0.000002364657     0.000087548615    -0.000015037284
       8       -0.000095435388    -0.000057875534    -0.000017379989
       9       -0.000007997125     0.000017753000     0.000017338811
      10       -0.000009205013    -0.000038673586    -0.000010026767
      11        0.000063057141     0.000079631764     0.000044807654
      12       -0.000013596490     0.000012884949     0.000004098485
      13       -0.000030407423     0.000003388278     0.000005486577
      14       -0.000120789080     0.002264886079    -0.000530256375
      15        0.000012250205    -0.000006935900     0.000022329665
      16       -0.000004631883     0.000031100971     0.000000309441
      17       -0.000313338348    -0.001537337998     0.001325749960
      18        0.000140130238    -0.001582588765     0.000077082252
      19        0.000027941366     0.000018060653    -0.000026226809
      20        0.000219240697     0.000817305582    -0.000929604890
      21        0.000048970421     0.000038493750     0.000087799675
      22        0.000001285478    -0.000061278338    -0.000049783110
      23       -0.000029864895     0.000033754604    -0.000013322581
      24        0.000021949350    -0.000051793577     0.000002042433
      25        0.000024684094     0.000021059903     0.000021350582

  **** Optimization is complete! (in 6 steps) ****
    Final optimized geometry and variables:
    Molecular point group: c1

    Geometry (in Angstrom), charge = 0, multiplicity = 1:

    H           -3.311942048188    -0.035893812050     1.453049711233
    C           -3.343407605530    -0.007108990939     0.356691232034
    C           -2.677578530229     1.192268002132    -0.268601305844
    O           -3.881158307722    -0.877286397525    -0.247880562096
    C           -1.240037740601     1.394029005133     0.230240020945
    H           -2.713209828870     1.079641892542    -1.346006028525
    H           -3.274406212115     2.064351649820    -0.004143717922
    C           -0.278855599003     0.288698180522    -0.214261837798
    H           -0.880743428746     2.352673952882    -0.132505349041
    H           -1.241503662265     1.463110825054     1.316795828439
    C            1.153604837029     0.512471149538     0.273771501934
    H           -0.286449990945     0.226683997899    -1.300485203071
    H           -0.633643734930    -0.675582637973     0.144899941598
    C            2.120912944737    -0.583182842790    -0.175909386200
    H            1.509540894054     1.476299097830    -0.085944367270
    H            1.158531478563     0.572818796927     1.360941275268
    C            3.549021795912    -0.381810601470     0.335704995047
    H            2.131212003696    -0.640768414466    -1.262969796416
    H            1.754442364260    -1.549352147412     0.167457385903
    C            4.542565306489    -1.380056026391    -0.257409657929
    H            3.558379833665    -0.456286394016     1.420932522378
    H            3.877078205665     0.627966101817     0.097208611356
    H            4.257045452298    -2.403034042916    -0.028447727877
    H            4.592123616187    -1.286227989655    -1.338373068478
    H            5.542133440587    -1.220462627758     0.135036623618

  Mulliken Charges: (a.u.)
   Center  Symbol    Alpha    Beta     Spin     Total
       1     H     0.43262  0.43262  0.00000  0.13476
       2     C     2.83083  2.83083  0.00000  0.33833
       3     C     3.20817  3.20817  0.00000 -0.41633
       4     O     4.23775  4.23775  0.00000 -0.47550
       5     C     3.16668  3.16668  0.00000 -0.33337
       6     H     0.39970  0.39970  0.00000  0.20059
       7     H     0.40655  0.40655  0.00000  0.18689
       8     C     3.15506  3.15506  0.00000 -0.31012
       9     H     0.41279  0.41279  0.00000  0.17443
      10     H     0.41960  0.41960  0.00000  0.16080
      11     C     3.15249  3.15249  0.00000 -0.30498
      12     H     0.41799  0.41799  0.00000  0.16402
      13     H     0.41829  0.41829  0.00000  0.16343
      14     C     3.15158  3.15158  0.00000 -0.30315
      15     H     0.42273  0.42273  0.00000  0.15453
      16     H     0.42326  0.42326  0.00000  0.15348
      17     C     3.15176  3.15176  0.00000 -0.30352
      18     H     0.42273  0.42273  0.00000  0.15455
      19     H     0.42229  0.42229  0.00000  0.15543
      20     C     3.23959  3.23959  0.00000 -0.47918
      21     H     0.42252  0.42252  0.00000  0.15496
      22     H     0.42349  0.42349  0.00000  0.15303
      23     H     0.42121  0.42121  0.00000  0.15758
      24     H     0.42127  0.42127  0.00000  0.15745
      25     H     0.41906  0.41906  0.00000  0.16188

   Total alpha = 36.00000, Total beta = 36.00000, Total charge = -0.00000
