                              Psi4 1.0.54 Driver

  ==> Input File <==

--------------------------------------------------------------------------
set {
	reference rhf
	basis cc-pvtz
}

set_num_threads( 4 )
memory 2 gb

molecule MOL {
0 1

H	 -1.088256	 -1.364742	 0.152233
O	 -1.432053	 -0.565244	 -0.200812
C	 -0.727158	 0.534527	 0.310686
C	 0.680222	 0.664433	 -0.252229
H	 -1.306802	 1.408001	 0.044211
H	 -0.690821	 0.490158	 1.397609
C	 1.782031	 0.422081	 0.775063
H	 0.788785	 -0.031712	 -1.077352
H	 0.784913	 1.664052	 -0.665086
H	 1.746352	 -0.588709	 1.166412
H	 2.761606	 0.558923	 0.333182
H	 1.698925	 1.110071	 1.610958

	symmetry c1
}
set optking {
	frozen_dihedral = ("
		8 4 3 2
	")
}

ee,wfn = optimize('scf', return_wfn=True)
oeprop( wfn, 'DIPOLE', 'QUADRUPOLE', 'MULLIKEN_CHARGES')
f=open( 'psi4out.xyz', 'w' )
f.write( "12  " )
f.write( str(ee) + "\n" )
f.write( MOL.save_string_xyz() )
f.close()
--------------------------------------------------------------------------

    Molecular point group: c1
  Charge       = 0
  Multiplicity = 1
  Basis Set: CC-PVTZ
  Basis Set:
  @DF-RHF Final Energy:  -193.18452649425132
    Total Energy =                       -193.1845264942511449
    Molecular point group: c1
  Basis Set: CC-PVTZ
  Basis Set:
  Basis Set: CC-PVTZ
  Basis Set:
  @DF-RHF Final Energy:  -193.18492572772644
    Total Energy =                       -193.1849257277265224
  Basis Set: CC-PVTZ
  Basis Set:
  Basis Set: CC-PVTZ
  Basis Set:
  @DF-RHF Final Energy:  -193.18500741134488
    Total Energy =                       -193.1850074113448557
  Basis Set: CC-PVTZ
  Basis Set:
  Basis Set: CC-PVTZ
  Basis Set:
  @DF-RHF Final Energy:  -193.18501128708783
    Total Energy =                       -193.1850112870878036
  Basis Set: CC-PVTZ
  Basis Set:
  Charge       = 0
  Multiplicity = 1
  Basis Set: CC-PVTZ
  Basis Set:

    Orbital Energies (a.u.)
    -----------------------

    Doubly Occupied:

       1A    -20.545871     2A    -11.265833     3A    -11.216670
       4A    -11.214632     5A     -1.363240     6A     -1.050607
       7A     -0.921963     8A     -0.816926     9A     -0.694779
      10A     -0.640158    11A     -0.595172    12A     -0.576707
      13A     -0.562486    14A     -0.509645    15A     -0.487823
      16A     -0.465020    17A     -0.432694

  @DF-RHF Final Energy:  -193.18501188211826

   => Energetics <=

    Nuclear Repulsion Energy =            131.4662094936627454
    One-Electron Energy =                -522.5819931895706532
    Two-Electron Energy =                 197.9307718137896472
    DFT Exchange-Correlation Energy =       0.0000000000000000
    Empirical Dispersion Energy =           0.0000000000000000
    PCM Polarization Energy =               0.0000000000000000
    EFP Energy =                            0.0000000000000000
    Total Energy =                       -193.1850118821182605
    Molecular point group: c1
  Basis Set: CC-PVTZ
  Basis Set:

  -Total Gradient:
     Atom            X                  Y                   Z
    ------   -----------------  -----------------  -----------------
       1       -0.000028665928     0.000084612584    -0.000018946788
       2       -0.000713526750     0.001126575801    -0.001493072968
       3        0.001181305007    -0.002027814997     0.002435489807
       4       -0.001221945241     0.002668474438    -0.002565019544
       5        0.000009306610    -0.000000117313    -0.000016627321
       6        0.000005198955    -0.000021387940    -0.000031301205
       7        0.000008793004     0.000002180929    -0.000027250396
       8        0.000802559920    -0.001842789671     0.001650834544
       9       -0.000036591474     0.000005394770     0.000051354016
      10       -0.000005314776    -0.000000969923     0.000004582471
      11        0.000005439153    -0.000016208172     0.000004863072
      12       -0.000006558483     0.000022049493     0.000005094310

  **** Optimization is complete! (in 5 steps) ****
    Final optimized geometry and variables:
    Molecular point group: c1

    Geometry (in Angstrom), charge = 0, multiplicity = 1:

    H           -1.108617924227    -1.568922945901    -0.086350492854
    O           -1.496325238519    -0.758515648740    -0.362687776463
    C           -0.772523130559     0.325867569561     0.158407292691
    C            0.649749311301     0.444546635915    -0.413313856659
    H           -1.353373598083     1.200476623901    -0.097947687169
    H           -0.740284099129     0.271108711775     1.243496191341
    C            1.746289030057     0.134949440137     0.603921191936
    H            0.730601982213    -0.247401142509    -1.243591187658
    H            0.804957085020     1.439538825346    -0.814419091479
    H            1.633996427088    -0.865082965069     1.012059119387
    H            2.729620446586     0.196486063611     0.152522543693
    H            1.719949591931     0.831980790822     1.434691429926

  Mulliken Charges: (a.u.)
   Center  Symbol    Alpha    Beta     Spin     Total
       1     H     0.39503  0.39503  0.00000  0.20994
       2     O     4.20123  4.20123  0.00000 -0.40246
       3     C     2.97053  2.97053  0.00000  0.05894
       4     C     3.09814  3.09814  0.00000 -0.19628
       5     H     0.45374  0.45374  0.00000  0.09253
       6     H     0.47134  0.47134  0.00000  0.05733
       7     C     3.14851  3.14851  0.00000 -0.29702
       8     H     0.44833  0.44833  0.00000  0.10335
       9     H     0.45212  0.45212  0.00000  0.09576
      10     H     0.45868  0.45868  0.00000  0.08265
      11     H     0.44776  0.44776  0.00000  0.10447
      12     H     0.45460  0.45460  0.00000  0.09081

   Total alpha = 17.00000, Total beta = 17.00000, Total charge = -0.00000

*** Psi4 exiting successfully. Buy a developer a beer!
