                              Psi4 1.0.54 Driver

  ==> Input File <==

--------------------------------------------------------------------------
set {
	reference rhf
	basis cc-pvtz
}

set_num_threads( 4 )
memory 2 gb

molecule MOL {
0 1

O	 -1.874364	 -0.737057	 0.125666
C	 -1.081510	 0.147522	 0.122720
C	 0.327029	 -0.064006	 0.641890
C	 -1.436063	 1.527502	 -0.377495
C	 1.349460	 -0.017068	 -0.500215
H	 0.399029	 -1.014606	 1.159950
H	 0.538021	 0.726928	 1.350471
C	 2.779782	 -0.209014	 -0.009215
H	 1.115007	 -0.782959	 -1.233891
H	 1.259071	 0.936707	 -1.006644
H	 3.481860	 -0.160270	 -0.833072
H	 2.903471	 -1.171535	 0.475559
H	 3.052569	 0.559584	 0.705428
H	 -1.150773	 2.282165	 0.346970
H	 -2.494356	 1.589372	 -0.579199
H	 -0.880939	 1.731046	 -1.287583

	symmetry c1
}
set optking {
	frozen_dihedral = ("
		4 2 3 5
	")
}

ee,wfn = optimize('scf', return_wfn=True)
oeprop( wfn, 'DIPOLE', 'QUADRUPOLE', 'MULLIKEN_CHARGES')
f=open( 'psi4out.xyz', 'w' )
f.write( "16  " )
f.write( str(ee) + "\n" )
f.write( MOL.save_string_xyz() )
f.close()
--------------------------------------------------------------------------

    Molecular point group: c1
  Charge       = 0
  Multiplicity = 1
  Basis Set: CC-PVTZ
  Basis Set:
  @DF-RHF Final Energy:  -270.12818839880697
    Total Energy =                       -270.1281883988070263
    Molecular point group: c1
  Basis Set: CC-PVTZ
  Basis Set:
  Basis Set: CC-PVTZ
  Basis Set:
  @DF-RHF Final Energy:  -270.12172817104124
    Total Energy =                       -270.1217281710413545
  Basis Set: CC-PVTZ
  Basis Set:
  Basis Set: CC-PVTZ
  Basis Set:
  @DF-RHF Final Energy:  -270.12844746379290
    Total Energy =                       -270.1284474637927815
  Basis Set: CC-PVTZ
  Basis Set:
  Basis Set: CC-PVTZ
  Basis Set:
  @DF-RHF Final Energy:  -270.12768263807720
    Total Energy =                       -270.1276826380769762
  Basis Set: CC-PVTZ
  Basis Set:
  @DF-RHF Final Energy:  -270.12892171629733
    Total Energy =                       -270.1289217162972705
  @DF-RHF Final Energy:  -270.12886478607550
    Total Energy =                       -270.1288647860754963
  @DF-RHF Final Energy:  -270.12894860868778
    Total Energy =                       -270.1289486086874945
  @DF-RHF Final Energy:  -270.12896468468568
    Total Energy =                       -270.1289646846855703
  Basis Set: CC-PVTZ
  Basis Set:
  @DF-RHF Final Energy:  -270.12896674893602
    Total Energy =                       -270.1289667489362500
  Basis Set: CC-PVTZ
  Basis Set:
  Basis Set: CC-PVTZ
  Basis Set:
  @DF-RHF Final Energy:  -270.12896803642110
    Total Energy =                       -270.1289680364216679
  Basis Set: CC-PVTZ
  Basis Set:
  Basis Set: CC-PVTZ
  Basis Set:
  @DF-RHF Final Energy:  -270.12896944550977
    Total Energy =                       -270.1289694455098243
  Basis Set: CC-PVTZ
  Basis Set:
  Charge       = 0
  Multiplicity = 1
  Basis Set: CC-PVTZ
  Basis Set:

    Orbital Energies (a.u.)
    -----------------------

    Doubly Occupied:

       1A    -20.538079     2A    -11.319688     3A    -11.233629
       4A    -11.228743     5A    -11.226541     6A    -11.219007
       7A     -1.397567     8A     -1.085730     9A     -1.012238
      10A     -0.951516    11A     -0.832747    12A     -0.736517
      13A     -0.661177    14A     -0.651733    15A     -0.617942
      16A     -0.608943    17A     -0.577690    18A     -0.555457
      19A     -0.535446    20A     -0.522149    21A     -0.507838
      22A     -0.486253    23A     -0.477032    24A     -0.400987

  @DF-RHF Final Energy:  -270.12896967781143

   => Energetics <=

    Nuclear Repulsion Energy =            237.3606480884945427
    One-Electron Energy =                -836.2099422490884990
    Two-Electron Energy =                 328.7203244827823028
    DFT Exchange-Correlation Energy =       0.0000000000000000
    Empirical Dispersion Energy =           0.0000000000000000
    PCM Polarization Energy =               0.0000000000000000
    EFP Energy =                            0.0000000000000000
    Total Energy =                       -270.1289696778115967
    Molecular point group: c1
  Basis Set: CC-PVTZ
  Basis Set:

  -Total Gradient:
     Atom            X                  Y                   Z
    ------   -----------------  -----------------  -----------------
       1        0.000000326396     0.000006176658     0.000001817530
       2       -0.000083728795     0.000217419686     0.000319331142
       3       -0.000010005365    -0.000365361876    -0.000062603318
       4        0.000054182039    -0.000100099063    -0.000212321764
       5        0.000063265481     0.000224791605    -0.000038170351
       6       -0.000004704778     0.000004408397    -0.000004825424
       7        0.000004649023    -0.000002940018     0.000005528629
       8       -0.000043170429     0.000008125897    -0.000001547731
       9       -0.000004071305     0.000006854764     0.000005315053
      10        0.000001507052    -0.000006058372     0.000005552895
      11        0.000006925328     0.000000544791    -0.000000276957
      12        0.000005505801     0.000003635090    -0.000002581989
      13        0.000007019496    -0.000005614230    -0.000001371002
      14        0.000004164211     0.000005766965     0.000004211952
      15       -0.000007701366     0.000000821069    -0.000003867191
      16        0.000005837211     0.000001528637    -0.000014191475

  **** Optimization is complete! (in 12 steps) ****
    Final optimized geometry and variables:
    Molecular point group: c1

    Geometry (in Angstrom), charge = 0, multiplicity = 1:

    O           -1.862208249377    -0.800160635126     0.415492104824
    C           -1.096836173439     0.075736604242     0.173332558007
    C            0.348680114024    -0.000164624290     0.623541325136
    C           -1.529685233652     1.300214949951    -0.601606741366
    C            1.332232941657    -0.206084408103    -0.534392065931
    H            0.422004571902    -0.822855558329     1.321885604440
    H            0.602599042206     0.914731885256     1.151894994970
    C            2.767403411200    -0.372222974989    -0.047094264607
    H            1.037253789471    -1.085360883707    -1.098136913679
    H            1.282931329932     0.634131608096    -1.218458174665
    H            3.445282489274    -0.518369415248    -0.879618070526
    H            2.859198413000    -1.229032351076     0.610786031596
    H            3.098461522164     0.503454878348     0.500913552074
    H           -1.281443461529     2.202768294909    -0.054387559014
    H           -2.593334893039     1.258987398564    -0.778614537367
    H           -1.010158188264     1.345221742270    -1.551780431629

  Mulliken Charges: (a.u.)
   Center  Symbol    Alpha    Beta     Spin     Total
       1     O     4.17252  4.17252  0.00000 -0.34503
       2     C     2.85809  2.85809  0.00000  0.28383
       3     C     3.09521  3.09521  0.00000 -0.19043
       4     C     3.15896  3.15896  0.00000 -0.31792
       5     C     3.09737  3.09737  0.00000 -0.19474
       6     H     0.43889  0.43889  0.00000  0.12222
       7     H     0.45017  0.45017  0.00000  0.09966
       8     C     3.14821  3.14821  0.00000 -0.29642
       9     H     0.44454  0.44454  0.00000  0.11092
      10     H     0.45145  0.45145  0.00000  0.09709
      11     H     0.44617  0.44617  0.00000  0.10766
      12     H     0.45064  0.45064  0.00000  0.09873
      13     H     0.45454  0.45454  0.00000  0.09091
      14     H     0.45029  0.45029  0.00000  0.09941
      15     H     0.43381  0.43381  0.00000  0.13237
      16     H     0.44913  0.44913  0.00000  0.10175

   Total alpha = 24.00000, Total beta = 24.00000, Total charge = -0.00000

*** Psi4 exiting successfully. Buy a developer a beer!
