                              Psi4 1.0.54 Driver

  ==> Input File <==

--------------------------------------------------------------------------
set {
	reference rhf
	basis cc-pvtz
}

set_num_threads( 4 )
memory 2 gb

molecule MOL {
0 1

O	 3.741364	 -0.097573	 -0.728550
C	 2.841259	 0.166180	 -0.000295
C	 1.542794	 -0.614730	 -0.000853
C	 2.933684	 1.309730	 0.984578
C	 0.288398	 0.247429	 0.000314
H	 1.557171	 -1.273139	 -0.866508
H	 1.557484	 -1.274998	 0.863344
C	 -0.993089	 -0.581367	 -0.000217
H	 0.305153	 0.900562	 -0.864701
H	 0.305567	 0.898805	 0.866656
C	 -2.258482	 0.271340	 0.000669
H	 -1.002280	 -1.233920	 -0.870484
H	 -1.002061	 -1.235367	 0.868958
C	 -3.544441	 -0.550271	 -0.000253
H	 -2.250545	 0.925250	 -0.867923
H	 -2.250598	 0.923423	 0.870642
C	 -4.804551	 0.308747	 0.000556
H	 -3.553737	 -1.201524	 -0.870151
H	 -3.553831	 -1.203282	 0.868313
H	 -4.842050	 0.949078	 -0.874436
H	 -5.698404	 -0.304480	 -0.000254
H	 -4.842277	 0.947103	 0.876982
H	 2.797819	 0.943920	 1.996394
H	 3.895832	 1.790551	 0.898125
H	 2.146656	 2.031212	 0.794597

	symmetry c1
}
set optking {
	frozen_dihedral = ("
		1 2 3 6
	")
}

ee,wfn = optimize('scf', return_wfn=True)
oeprop( wfn, 'DIPOLE', 'QUADRUPOLE', 'MULLIKEN_CHARGES')
f=open( 'psi4out.xyz', 'w' )
f.write( "25  " )
f.write( str(ee) + "\n" )
f.write( MOL.save_string_xyz() )
f.close()
--------------------------------------------------------------------------

    Molecular point group: c1
  Charge       = 0
  Multiplicity = 1
  Basis Set: CC-PVTZ
  Basis Set:
  @DF-RHF Final Energy:  -387.27092705992499
    Total Energy =                       -387.2709270599249294
    Molecular point group: c1
  Basis Set: CC-PVTZ
  Basis Set:
  Basis Set: CC-PVTZ
  Basis Set:
  @DF-RHF Final Energy:  -387.26977205427943
    Total Energy =                       -387.2697720542789739
  Basis Set: CC-PVTZ
  Basis Set:
  Basis Set: CC-PVTZ
  Basis Set:
  @DF-RHF Final Energy:  -387.27188811625808
    Total Energy =                       -387.2718881162579692
  Basis Set: CC-PVTZ
  Basis Set:
  Basis Set: CC-PVTZ
  Basis Set:
  @DF-RHF Final Energy:  -387.27184698218451
    Total Energy =                       -387.2718469821851386
  Basis Set: CC-PVTZ
  Basis Set:
  Basis Set: CC-PVTZ
  Basis Set:
  @DF-RHF Final Energy:  -387.27222038133954
    Total Energy =                       -387.2722203813393662
  Basis Set: CC-PVTZ
  Basis Set:
  Basis Set: CC-PVTZ
  Basis Set:
  @DF-RHF Final Energy:  -387.27223992050386
    Total Energy =                       -387.2722399205046031
  Basis Set: CC-PVTZ
  Basis Set:
  Basis Set: CC-PVTZ
  Basis Set:
  @DF-RHF Final Energy:  -387.27224559170685
    Total Energy =                       -387.2722455917066782
  Basis Set: CC-PVTZ
  Basis Set:
  Charge       = 0
  Multiplicity = 1
  Basis Set: CC-PVTZ
  Basis Set:

    Orbital Energies (a.u.)
    -----------------------

    Doubly Occupied:

       1A    -20.536645     2A    -11.319295     3A    -11.229879
       4A    -11.228293     5A    -11.226035     6A    -11.221875
       7A    -11.218503     8A    -11.217871     9A    -11.210562
      10A     -1.396531    11A     -1.102897    12A     -1.062349
      13A     -1.011871    14A     -0.971968    15A     -0.898521
      16A     -0.821773    17A     -0.797845    18A     -0.732826
      19A     -0.669992    20A     -0.650111    21A     -0.639559
      22A     -0.620640    23A     -0.603198    24A     -0.589960
      25A     -0.564812    26A     -0.561383    27A     -0.547047
      28A     -0.534553    29A     -0.515842    30A     -0.500108
      31A     -0.489576    32A     -0.480580    33A     -0.469633
      34A     -0.469371    35A     -0.459304    36A     -0.398292

  @DF-RHF Final Energy:  -387.27224642062816

   => Energetics <=

    Nuclear Repulsion Energy =            439.6881395664005936
    One-Electron Energy =               -1395.9817679759721614
    Two-Electron Energy =                 569.0213819889438582
    DFT Exchange-Correlation Energy =       0.0000000000000000
    Empirical Dispersion Energy =           0.0000000000000000
    PCM Polarization Energy =               0.0000000000000000
    EFP Energy =                            0.0000000000000000
    Total Energy =                       -387.2722464206276527
    Molecular point group: c1
  Basis Set: CC-PVTZ
  Basis Set:

  -Total Gradient:
     Atom            X                  Y                   Z
    ------   -----------------  -----------------  -----------------
       1        0.000380635213    -0.000580076403     0.000619578474
       2       -0.000577425837     0.000954968577    -0.000992928893
       3        0.000589503018    -0.001028989769     0.000927459649
       4        0.000060054285    -0.000076605533    -0.000028331609
       5       -0.000017479183     0.000006720274    -0.000012430627
       6       -0.000377799447     0.000638950123    -0.000545712581
       7       -0.000011780257     0.000010837496    -0.000021204941
       8        0.000006495202     0.000008259754     0.000043013472
       9        0.000008954961     0.000007733060     0.000010060199
      10       -0.000002862031    -0.000012657309    -0.000004627869
      11        0.000004380039    -0.000004483689     0.000000215364
      12        0.000011041868    -0.000004957785     0.000003362211
      13       -0.000004284249     0.000001807937     0.000008291977
      14        0.000001231785     0.000005254252    -0.000020585917
      15       -0.000005374073     0.000009035646     0.000003751656
      16       -0.000001051365    -0.000008109596     0.000003949628
      17       -0.000004599391     0.000000827167    -0.000004152524
      18        0.000001711789    -0.000009626842    -0.000003837819
      19        0.000005076388     0.000007411784     0.000001476740
      20       -0.000000965837     0.000000942011    -0.000001113786
      21       -0.000002770660    -0.000000207083    -0.000000190022
      22        0.000000251158     0.000002390560     0.000001444088
      23       -0.000016076138     0.000005822833     0.000016135380
      24       -0.000008128961     0.000016860852     0.000007707286
      25       -0.000038738274     0.000047891681    -0.000011329538

  **** Optimization is complete! (in 8 steps) ****
    Final optimized geometry and variables:
    Molecular point group: c1

    Geometry (in Angstrom), charge = 0, multiplicity = 1:

    O            3.746250825518    -0.319356291934    -0.729679776606
    C            2.882645048205     0.034399906269     0.005728622880
    C            1.554025865797    -0.694715802460     0.055355670826
    C            3.090168860365     1.202697587142     0.943177669402
    C            0.314799789798     0.202554834050     0.019864123327
    H            1.543310434457    -1.384372644485    -0.777754808134
    H            1.547871004180    -1.284388344849     0.969664215116
    C           -0.982247542749    -0.601404726012    -0.012638634579
    H            0.360191824280     0.843927053144    -0.856370551031
    H            0.303456675464     0.859675772988     0.883309768968
    C           -2.232075719166     0.272801772080    -0.055272486182
    H           -0.973393856222    -1.259181403313    -0.877570996974
    H           -1.024352336784    -1.247675567996     0.860784810418
    C           -3.530214228887    -0.528590277309    -0.094093744201
    H           -2.186605544313     0.922101275385    -0.926357406961
    H           -2.242553726405     0.928638209926     0.812219492060
    C           -4.775683540819     0.350283278151    -0.138180160260
    H           -3.521103773629    -1.183796270612    -0.960742406631
    H           -3.577711406748    -1.176825982025     0.776653223121
    H           -4.775052044700     0.986180134330    -1.017203623940
    H           -5.678302618569    -0.249118649832    -0.164924592636
    H           -4.831933914449     0.993739188315     0.733583931764
    H            2.756265328618     0.961092582080     1.945825882640
    H            4.135251289420     1.471074427119     0.955297257117
    H            2.509182809211     2.053204710048     0.604291182451

  Mulliken Charges: (a.u.)
   Center  Symbol    Alpha    Beta     Spin     Total
       1     O     4.17235  4.17235  0.00000 -0.34470
       2     C     2.85849  2.85849  0.00000  0.28302
       3     C     3.09787  3.09787  0.00000 -0.19573
       4     C     3.16571  3.16571  0.00000 -0.33143
       5     C     3.10686  3.10686  0.00000 -0.21371
       6     H     0.43814  0.43814  0.00000  0.12371
       7     H     0.44668  0.44668  0.00000  0.10664
       8     C     3.09039  3.09039  0.00000 -0.18078
       9     H     0.44653  0.44653  0.00000  0.10693
      10     H     0.45015  0.45015  0.00000  0.09969
      11     C     3.08564  3.08564  0.00000 -0.17128
      12     H     0.45004  0.45004  0.00000  0.09992
      13     H     0.45344  0.45344  0.00000  0.09312
      14     C     3.08520  3.08520  0.00000 -0.17040
      15     H     0.45398  0.45398  0.00000  0.09204
      16     H     0.45515  0.45515  0.00000  0.08969
      17     C     3.15031  3.15031  0.00000 -0.30062
      18     H     0.45358  0.45358  0.00000  0.09283
      19     H     0.45429  0.45429  0.00000  0.09142
      20     H     0.45467  0.45467  0.00000  0.09065
      21     H     0.44768  0.44768  0.00000  0.10464
      22     H     0.45517  0.45517  0.00000  0.08965
      23     H     0.44864  0.44864  0.00000  0.10272
      24     H     0.43194  0.43194  0.00000  0.13611
      25     H     0.44707  0.44707  0.00000  0.10585

   Total alpha = 36.00000, Total beta = 36.00000, Total charge =  0.00000

*** Psi4 exiting successfully. Buy a developer a beer!
