                              Psi4 1.0.54 Driver

  ==> Input File <==

--------------------------------------------------------------------------
set {
	reference rhf
	basis cc-pvtz
}

set_num_threads( 4 )
memory 2 gb

molecule MOL {
0 1

H	 3.459259	 0.172688	 -0.754884
C	 2.749359	 -0.017997	 0.039447
C	 1.322304	 0.099773	 -0.484271
H	 2.945730	 -1.010636	 0.428647
H	 2.938604	 0.696883	 0.832210
C	 0.308557	 -0.162619	 0.622645
H	 1.159205	 -0.610523	 -1.285278
H	 1.153539	 1.090842	 -0.887058
N	 -1.069352	 -0.004081	 0.085342
H	 0.371632	 -1.172932	 0.991288
H	 0.400391	 0.548875	 1.426218
O	 -1.584901	 -0.965470	 -0.377818
O	 -1.548033	 1.079343	 0.130056

	symmetry c1
}
set optking {
	frozen_dihedral = ("
		7 3 6 9
	")
}

ee,wfn = optimize('scf', return_wfn=True)
oeprop( wfn, 'DIPOLE', 'QUADRUPOLE', 'MULLIKEN_CHARGES')
f=open( 'psi4out.xyz', 'w' )
f.write( "13  " )
f.write( str(ee) + "\n" )
f.write( MOL.save_string_xyz() )
f.close()
--------------------------------------------------------------------------

    Molecular point group: c1
  Charge       = 0
  Multiplicity = 1
  Basis Set: CC-PVTZ
  Basis Set:
  @DF-RHF Final Energy:  -321.86153117665083
    Total Energy =                       -321.8615311766508285
    Molecular point group: c1
  Basis Set: CC-PVTZ
  Basis Set:
  Basis Set: CC-PVTZ
  Basis Set:
  @DF-RHF Final Energy:  -321.86152533844006
    Total Energy =                       -321.8615253384402308
  Basis Set: CC-PVTZ
  Basis Set:
  Basis Set: CC-PVTZ
  Basis Set:
  @DF-RHF Final Energy:  -321.86139727020611
    Total Energy =                       -321.8613972702059982
  Basis Set: CC-PVTZ
  Basis Set:
  Basis Set: CC-PVTZ
  Basis Set:
  @DF-RHF Final Energy:  -321.86153133406947
    Total Energy =                       -321.8615313340694684
  Basis Set: CC-PVTZ
  Basis Set:
  Basis Set: CC-PVTZ
  Basis Set:
  @DF-RHF Final Energy:  -321.86153284046406
    Total Energy =                       -321.8615328404641218
  Basis Set: CC-PVTZ
  Basis Set:
  Charge       = 0
  Multiplicity = 1
  Basis Set: CC-PVTZ
  Basis Set:

    Orbital Energies (a.u.)
    -----------------------

    Doubly Occupied:

       1A    -20.590380     2A    -20.590323     3A    -15.836910
       4A    -11.297252     5A    -11.254344     6A    -11.237271
       7A     -1.635946     8A     -1.420287     9A     -1.134391
      10A     -1.027932    11A     -0.884028    12A     -0.834518
      13A     -0.761512    14A     -0.738546    15A     -0.727529
      16A     -0.673675    17A     -0.604141    18A     -0.588616
      19A     -0.551394    20A     -0.520519    21A     -0.515182
      22A     -0.486855    23A     -0.475159    24A     -0.452892

  @DF-RHF Final Energy:  -321.86153291767943

   => Energetics <=

    Nuclear Repulsion Energy =            248.0254839351655960
    One-Electron Energy =                -930.0948293489042271
    Two-Electron Energy =                 360.2078124960594323
    DFT Exchange-Correlation Energy =       0.0000000000000000
    Empirical Dispersion Energy =           0.0000000000000000
    PCM Polarization Energy =               0.0000000000000000
    EFP Energy =                            0.0000000000000000
    Total Energy =                       -321.8615329176791420
    Molecular point group: c1
  Basis Set: CC-PVTZ
  Basis Set:

  -Total Gradient:
     Atom            X                  Y                   Z
    ------   -----------------  -----------------  -----------------
       1       -0.000011293045    -0.000004751525     0.000017884096
       2        0.000008555177    -0.000000900995     0.000000059998
       3       -0.000235103568     0.000314961886    -0.000147937996
       4       -0.000001958172     0.000019250146    -0.000005710682
       5        0.000003639602    -0.000010742596    -0.000011173896
       6        0.000030434956    -0.000328461774    -0.000047681881
       7        0.000194574511    -0.000195650701     0.000127668974
       8       -0.000001020310    -0.000008399299     0.000007686183
       9       -0.000019339439     0.000243451517     0.000062637128
      10       -0.000003986361     0.000007520719    -0.000007488326
      11        0.000000965120     0.000001286186     0.000004916830
      12        0.000004942996    -0.000027236344    -0.000004756558
      13        0.000029588537    -0.000010327220     0.000003896132

  **** Optimization is complete! (in 6 steps) ****
    Final optimized geometry and variables:
    Molecular point group: c1

    Geometry (in Angstrom), charge = 0, multiplicity = 1:

    H            3.459499990897     0.160663526272    -0.757516320524
    C            2.749303234689    -0.023922447910     0.037955693669
    C            1.322338588250     0.095715103943    -0.485993515836
    H            2.942923423497    -1.015280765198     0.431814370609
    H            2.941026373391     0.694082338784     0.827236602289
    C            0.308791664580    -0.167506165347     0.620942822355
    H            1.159887690262    -0.614701876874    -1.287047077059
    H            1.154606053893     1.087322507082    -0.887666666494
    N           -1.069373619882    -0.010205568965     0.084008540494
    H            0.373333824079    -1.177068553026     0.991210575880
    H            0.399658028709     0.545397094859     1.423479655196
    O           -1.581335464944    -0.970138926550    -0.386486790648
    O           -1.552091187034     1.071018361313     0.136497878842

  Mulliken Charges: (a.u.)
   Center  Symbol    Alpha    Beta     Spin     Total
       1     H     0.44167  0.44167  0.00000  0.11666
       2     C     3.15112  3.15112  0.00000 -0.30224
       3     C     3.09592  3.09592  0.00000 -0.19184
       4     H     0.45169  0.45169  0.00000  0.09662
       5     H     0.45148  0.45148  0.00000  0.09705
       6     C     3.03940  3.03940  0.00000 -0.07879
       7     H     0.43806  0.43806  0.00000  0.12387
       8     H     0.43791  0.43791  0.00000  0.12419
       9     N     3.27591  3.27591  0.00000  0.44819
      10     H     0.43442  0.43442  0.00000  0.13116
      11     H     0.43478  0.43478  0.00000  0.13044
      12     O     4.17397  4.17397  0.00000 -0.34793
      13     O     4.17369  4.17369  0.00000 -0.34738

   Total alpha = 24.00000, Total beta = 24.00000, Total charge = -0.00000

*** Psi4 exiting successfully. Buy a developer a beer!
