  ==> Input File <==

--------------------------------------------------------------------------
set {
	reference rhf
	basis 6-31G*
}

set_num_threads( 4 )
memory 2 gb

molecule MOL {
0 1

O	 0.610822	 1.328943	 -0.336456
C	 0.478372	 0.158086	 -0.177419
C	 1.601187	 -0.851350	 -0.153081
O	 -0.698257	 -0.426125	 0.001050
C	 2.974150	 -0.222852	 -0.355392
H	 1.388914	 -1.592072	 -0.918273
H	 1.543603	 -1.378844	 0.794389
H	 3.032313	 0.288003	 -1.308811
H	 3.743001	 -0.987722	 -0.329755
H	 3.188576	 0.502971	 0.419544
C	 -1.853104	 0.406779	 0.000512
C	 -3.066105	 -0.499277	 -0.000959
H	 -1.828410	 1.043074	 -0.873618
H	 -1.829857	 1.042383	 0.875188
H	 -3.071820	 -1.133106	 -0.880383
H	 -3.972708	 0.097145	 -0.001528
H	 -3.073405	 -1.133813	 0.877999

	symmetry c1
}
set optking {
	frozen_dihedral = ("
		2 4 11 13
	")
}

ee = optimize('scf')
oeprop('DIPOLE', 'QUADRUPOLE', 'MULLIKEN_CHARGES')
f=open( 'psi4out.xyz', 'w' )
f.write( "17  " )
f.write( str(ee) + "\n" )
f.write( MOL.save_string_xyz() )
f.close()
--------------------------------------------------------------------------

    Molecular point group: c1
  Charge       = 0
  Multiplicity = 1
  Basis Set: 6-31G*
  Basis Set:
  @DF-RHF Final Energy:  -344.91183790179446
    Total Energy =                       -344.9118379017945131
    Molecular point group: c1
  Basis Set: 6-31G*
  Basis Set:
  Basis Set: 6-31G*
  Basis Set:
  @DF-RHF Final Energy:  -344.91181672614232
    Total Energy =                       -344.9118167261423196
  Basis Set: 6-31G*
  Basis Set:
  Basis Set: 6-31G*
  Basis Set:
  @DF-RHF Final Energy:  -344.91171624441347
    Total Energy =                       -344.9117162444129576
  Basis Set: 6-31G*
  Basis Set:
  Basis Set: 6-31G*
  Basis Set:
  @DF-RHF Final Energy:  -344.91185570466229
    Total Energy =                       -344.9118557046620026
  Basis Set: 6-31G*
  Basis Set:
  Charge       = 0
  Multiplicity = 1
  Basis Set: 6-31G*
  Basis Set:

    Orbital Energies (a.u.)
    -----------------------

    Doubly Occupied:

       1A    -20.600819     2A    -20.544266     3A    -11.371370
       4A    -11.284701     5A    -11.237514     6A    -11.222412
       7A    -11.215732     8A     -1.467383     9A     -1.361934
      10A     -1.069975    11A     -1.031797    12A     -0.910841
      13A     -0.847458    14A     -0.772720    15A     -0.695948
      16A     -0.689054    17A     -0.664192    18A     -0.629731
      19A     -0.582480    20A     -0.572108    21A     -0.558436
      22A     -0.523824    23A     -0.519140    24A     -0.514532
      25A     -0.504470    26A     -0.492605    27A     -0.452329
      28A     -0.436051

  @DF-RHF Final Energy:  -344.91185742175207

   => Energetics <=

    Nuclear Repulsion Energy =            314.6765528465014086
    One-Electron Energy =               -1093.6291738169304608
    Two-Electron Energy =                 434.0407635486767504
    DFT Exchange-Correlation Energy =       0.0000000000000000
    Empirical Dispersion Energy =           0.0000000000000000
    PCM Polarization Energy =               0.0000000000000000
    EFP Energy =                            0.0000000000000000
    Total Energy =                       -344.9118574217523019
    Molecular point group: c1
  Basis Set: 6-31G*
  Basis Set:

  -Total Gradient:
     Atom            X                  Y                   Z
    ------   -----------------  -----------------  -----------------
       1        0.000006863048    -0.000006152548     0.000002969840
       2       -0.000063612719    -0.000081034578    -0.000725212095
       3       -0.000010002074     0.000000535164    -0.000006352050
       4        0.000190234082     0.000261069087     0.001127125376
       5       -0.000001810194     0.000004462255     0.000004798584
       6       -0.000001990716     0.000000755460     0.000004229645
       7       -0.000000612122     0.000001140260     0.000005157190
       8        0.000001288540     0.000000879598    -0.000001895225
       9       -0.000001413451    -0.000000519880    -0.000000619059
      10       -0.000000542932    -0.000000565407    -0.000001266501
      11       -0.000536235057    -0.000755808165    -0.000829910743
      12        0.000000921928    -0.000007627279    -0.000003890590
      13        0.000413448274     0.000578376473     0.000430119541
      14       -0.000000395364     0.000000289036    -0.000001832599
      15       -0.000000119072    -0.000002007700    -0.000001460566
      16        0.000002401594     0.000002864586    -0.000000003910
      17        0.000001576230     0.000003343635    -0.000001956837

  **** Optimization is complete! (in 5 steps) ****
    Final optimized geometry and variables:
    Molecular point group: c1

    Geometry (in Angstrom), charge = 0, multiplicity = 1:

    O            0.620876027721     1.340756048261    -0.178849329993
    C            0.485660884526     0.169010027505    -0.029150144462
    C            1.606505676567    -0.842791521254    -0.011187320287
    O           -0.691645379986    -0.414673287607     0.146979714322
    C            2.980869095551    -0.215626372098    -0.208354044565
    H            1.393253646187    -1.578112998195    -0.781270907824
    H            1.547299813009    -1.376280496759     0.932815835788
    H            3.040706990723     0.301453415747    -1.158296197194
    H            3.748162778489    -0.982196248764    -0.187317123108
    H            3.196127232150     0.504561194186     0.571592239099
    C           -1.848994287143     0.414814291104     0.135652363837
    C           -3.060495096623    -0.492884819268     0.147629196078
    H           -1.824412342976     1.046423393224    -0.740812911933
    H           -1.825220530798     1.058093312535     1.005730103920
    H           -3.070707569763    -1.131756932454    -0.728168278979
    H           -3.967973079912     0.102211885617     0.149510120711
    H           -3.061393413626    -1.122402485743     1.030153240755

  Mulliken Charges: (a.u.)
   Center  Symbol    Alpha    Beta     Spin     Total
       1     O     4.28635  4.28635  0.00000 -0.57271
       2     C     2.60572  2.60572  0.00000  0.78856
       3     C     3.20502  3.20502  0.00000 -0.41003
       4     O     4.31329  4.31329  0.00000 -0.62659
       5     C     3.23876  3.23876  0.00000 -0.47751
       6     H     0.40088  0.40088  0.00000  0.19824
       7     H     0.40068  0.40068  0.00000  0.19863
       8     H     0.41002  0.41002  0.00000  0.17996
       9     H     0.41824  0.41824  0.00000  0.16352
      10     H     0.40994  0.40994  0.00000  0.18011
      11     C     3.00260  3.00260  0.00000 -0.00520
      12     C     3.24832  3.24832  0.00000 -0.49663
      13     H     0.40772  0.40772  0.00000  0.18455
      14     H     0.41238  0.41238  0.00000  0.17525
      15     H     0.41213  0.41213  0.00000  0.17575
      16     H     0.41630  0.41630  0.00000  0.16740
      17     H     0.41165  0.41165  0.00000  0.17671

   Total alpha = 28.00000, Total beta = 28.00000, Total charge =  0.00000
