  ==> Input File <==

--------------------------------------------------------------------------
set {
	reference rhf
	basis 6-31G*
}

set_num_threads( 1 )
memory 2 gb

molecule MOL {
0 1

H	 2.465338	 -2.224223	 0.000000
O	 2.784187	 -1.332015	 0.000000
C	 1.765313	 -0.449364	 0.000000
C	 0.877909	 -0.498355	 1.070540
C	 1.584081	 0.477600	 -1.007981
H	 1.040277	 -1.227880	 1.841441
C	 -0.185166	 0.378956	 1.127659
H	 2.252249	 0.537624	 -1.844328
C	 0.506071	 1.343506	 -0.918993
H	 -0.865421	 0.334158	 1.957782
C	 -0.388828	 1.319744	 0.127018
N	 0.318941	 2.322166	 -1.987962
H	 -1.208780	 2.006884	 0.157372
O	 1.108693	 2.322219	 -2.883687
O	 -0.611273	 3.063703	 -1.903774

	symmetry c1
}
set optking {
	frozen_dihedral = ("
		11 9 12 14
	")
}

ee = energy('scf')
oeprop('DIPOLE', 'QUADRUPOLE', 'MULLIKEN_CHARGES')
f=open( 'psi4out.xyz', 'w' )
f.write( "15  " )
f.write( str(ee) + "\n" )
f.write( MOL.save_string_xyz() )
f.close()
--------------------------------------------------------------------------

    Molecular point group: c1

    Geometry (in Angstrom), charge = 0, multiplicity = 1:

       Center              X                  Y                   Z               Mass
    ------------   -----------------  -----------------  -----------------  -----------------
           H          1.669950979455    -3.142365021617     0.701338138252     1.007825032070
           O          1.988799979455    -2.250157021617     0.701338138252    15.994914619560
           C          0.969925979455    -1.367506021617     0.701338138252    12.000000000000
           C          0.082521979455    -1.416497021617     1.771878138252    12.000000000000
           C          0.788693979455    -0.440542021617    -0.306642861748    12.000000000000
           H          0.244889979455    -2.146022021617     2.542779138252     1.007825032070
           C         -0.980553020545    -0.539186021617     1.828997138252    12.000000000000
           H          1.456861979455    -0.380518021617    -1.142989861748     1.007825032070
           C         -0.289316020545     0.425363978383    -0.217654861748    12.000000000000
           H         -1.660808020545    -0.583984021617     2.659120138252     1.007825032070
           C         -1.184215020545     0.401601978383     0.828356138252    12.000000000000
           N         -0.476446020545     1.404023978383    -1.286623861748    14.003074004780
           H         -2.004167020545     1.088741978383     0.858710138252     1.007825032070
           O          0.313305979455     1.404076978383    -2.182348861748    15.994914619560
           O         -1.406660020545     2.145560978383    -1.202435861748    15.994914619560

  Charge       = 0
  Multiplicity = 1
  Basis Set: 6-31G*
  Basis Set:

    Orbital Energies (a.u.)
    -----------------------

    Doubly Occupied:

       1A    -20.604252     2A    -20.603280     3A    -20.602690
       4A    -15.857813     5A    -11.323561     6A    -11.309155
       7A    -11.268059     8A    -11.266420     9A    -11.266309
      10A    -11.263754    11A     -1.636532    12A     -1.428779
      13A     -1.419751    14A     -1.200205    15A     -1.093975
      16A     -1.046250    17A     -0.963842    18A     -0.866792
      19A     -0.838538    20A     -0.794462    21A     -0.735633
      22A     -0.733291    23A     -0.721802    24A     -0.711529
      25A     -0.681975    26A     -0.641350    27A     -0.626084
      28A     -0.570223    29A     -0.563715    30A     -0.527055
      31A     -0.511091    32A     -0.489607    33A     -0.486147
      34A     -0.453062    35A     -0.377427    36A     -0.352819

  @DF-RHF Final Energy:  -509.02242517032852

   => Energetics <=

    Nuclear Repulsion Energy =            503.2041427900341546
    One-Electron Energy =               -1692.7784779473795425
    Two-Electron Energy =                 680.5519099870161881
    DFT Exchange-Correlation Energy =       0.0000000000000000
    Empirical Dispersion Energy =           0.0000000000000000
    PCM Polarization Energy =               0.0000000000000000
    EFP Energy =                            0.0000000000000000
    Total Energy =                       -509.0224251703291429

  Mulliken Charges: (a.u.)
   Center  Symbol    Alpha    Beta     Spin     Total
       1     H     0.26705  0.26705  0.00000  0.46590
       2     O     4.38211  4.38211  0.00000 -0.76421
       3     C     2.80797  2.80797  0.00000  0.38406
       4     C     3.11365  3.11365  0.00000 -0.22731
       5     C     3.11193  3.11193  0.00000 -0.22386
       6     H     0.38778  0.38778  0.00000  0.22443
       7     C     3.10394  3.10394  0.00000 -0.20789
       8     H     0.35797  0.35797  0.00000  0.28406
       9     C     2.91653  2.91653  0.00000  0.16695
      10     H     0.38771  0.38771  0.00000  0.22457
      11     C     3.09260  3.09260  0.00000 -0.18519
      12     N     3.24044  3.24044  0.00000  0.51913
      13     H     0.36422  0.36422  0.00000  0.27156
      14     O     4.23286  4.23286  0.00000 -0.46572
      15     O     4.23324  4.23324  0.00000 -0.46649

   Total alpha = 36.00000, Total beta = 36.00000, Total charge = -0.00000
