                              Psi4 1.0.54 Driver

  ==> Input File <==

--------------------------------------------------------------------------
set {
	reference rhf
	basis cc-pvtz
}

set_num_threads( 4 )
memory 2 gb

molecule MOL {
0 1

O	 2.749540	 -0.362833	 -0.275236
C	 1.704209	 0.119472	 -0.000093
C	 0.380337	 -0.600947	 -0.000234
O	 1.561519	 1.386729	 0.352209
C	 -0.824290	 0.329213	 -0.000115
H	 0.371455	 -1.255476	 -0.865660
H	 0.371410	 -1.255787	 0.864952
C	 -2.146151	 -0.432825	 -0.000068
H	 -0.773936	 0.979158	 -0.866319
H	 -0.773838	 0.979034	 0.866186
C	 -3.366283	 0.483552	 0.000557
H	 -2.189286	 -1.084450	 -0.869996
H	 -2.188867	 -1.085083	 0.869399
C	 -4.687436	 -0.278003	 0.000108
H	 -3.325150	 1.134819	 -0.867957
H	 -3.325087	 1.133730	 0.869885
H	 -4.773783	 -0.912098	 -0.876078
H	 -5.531922	 0.401392	 0.000363
H	 -4.773901	 -0.912898	 0.875703
C	 2.727874	 2.183667	 0.394985
H	 3.435098	 1.786527	 1.107955
H	 2.405769	 3.166569	 0.698299
H	 3.195217	 2.228059	 -0.577554

	symmetry c1
}
set optking {
	frozen_dihedral = ("
		1 2 3 6
	")
}

ee,wfn = optimize('scf', return_wfn=True)
oeprop( wfn, 'DIPOLE', 'QUADRUPOLE', 'MULLIKEN_CHARGES')
f=open( 'psi4out.xyz', 'w' )
f.write( "23  " )
f.write( str(ee) + "\n" )
f.write( MOL.save_string_xyz() )
f.close()
--------------------------------------------------------------------------

    Molecular point group: c1
  Charge       = 0
  Multiplicity = 1
  Basis Set: CC-PVTZ
  Basis Set:
  @DF-RHF Final Energy:  -423.12738776626406
    Total Energy =                       -423.1273877662636096
    Molecular point group: c1
  Basis Set: CC-PVTZ
  Basis Set:
  Basis Set: CC-PVTZ
  Basis Set:
  @DF-RHF Final Energy:  -423.08160863322854
    Total Energy =                       -423.0816086332283703
  Basis Set: CC-PVTZ
  Basis Set:
  Basis Set: CC-PVTZ
  Basis Set:
  @DF-RHF Final Energy:  -423.12659691071866
    Total Energy =                       -423.1265969107182627
  Basis Set: CC-PVTZ
  Basis Set:
  Basis Set: CC-PVTZ
  Basis Set:
  @DF-RHF Final Energy:  -423.12843347797735
    Total Energy =                       -423.1284334779779783
  Basis Set: CC-PVTZ
  Basis Set:
  @DF-RHF Final Energy:  -423.12796020469267
    Total Energy =                       -423.1279602046924992
  Basis Set: CC-PVTZ
  Basis Set:
  @DF-RHF Final Energy:  -423.12865059508283
    Total Energy =                       -423.1286505950831724
  Basis Set: CC-PVTZ
  Basis Set:
  Basis Set: CC-PVTZ
  Basis Set:
  @DF-RHF Final Energy:  -423.12866244927272
    Total Energy =                       -423.1286624492724968
  Basis Set: CC-PVTZ
  Basis Set:
  Basis Set: CC-PVTZ
  Basis Set:
  @DF-RHF Final Energy:  -423.12866385525547
    Total Energy =                       -423.1286638552550130
  Basis Set: CC-PVTZ
  Basis Set:
  Charge       = 0
  Multiplicity = 1
  Basis Set: CC-PVTZ
  Basis Set:

    Orbital Energies (a.u.)
    -----------------------

    Doubly Occupied:

       1A    -20.599038     2A    -20.529624     3A    -11.364660
       4A    -11.279320     5A    -11.233836     6A    -11.221717
       7A    -11.218256     8A    -11.217265     9A    -11.209740
      10A     -1.473222    11A     -1.363988    12A     -1.097217
      13A     -1.045798    14A     -0.984197    15A     -0.936961
      16A     -0.848894    17A     -0.797835    18A     -0.776495
      19A     -0.694798    20A     -0.687096    21A     -0.674427
      22A     -0.654818    23A     -0.611033    24A     -0.593665
      25A     -0.578696    26A     -0.563680    27A     -0.556866
      28A     -0.524790    29A     -0.523502    30A     -0.507309
      31A     -0.489398    32A     -0.482447    33A     -0.470662
      34A     -0.469647    35A     -0.455889    36A     -0.428498

  @DF-RHF Final Energy:  -423.12866407811754

   => Energetics <=

    Nuclear Repulsion Energy =            455.8236449363373026
    One-Electron Energy =               -1479.5740618536824513
    Two-Electron Energy =                 600.6217528392271561
    DFT Exchange-Correlation Energy =       0.0000000000000000
    Empirical Dispersion Energy =           0.0000000000000000
    PCM Polarization Energy =               0.0000000000000000
    EFP Energy =                            0.0000000000000000
    Total Energy =                       -423.1286640781179358
    Molecular point group: c1
  Basis Set: CC-PVTZ
  Basis Set:

  -Total Gradient:
     Atom            X                  Y                   Z
    ------   -----------------  -----------------  -----------------
       1        0.000037632432     0.000039776768     0.000652231675
       2       -0.000111252352    -0.000021667022    -0.001004535639
       3        0.000352900860    -0.000355083037     0.000835789764
       4       -0.000004077228     0.000034741099     0.000000442006
       5       -0.000014661236     0.000002147921    -0.000002616091
       6       -0.000251098320     0.000313495269    -0.000484375139
       7        0.000004113044     0.000005751164    -0.000001267866
       8        0.000007798185     0.000008745099     0.000010479961
       9        0.000001875048     0.000002776205    -0.000001285669
      10       -0.000004981282    -0.000001761751     0.000000884443
      11       -0.000002752843     0.000000783783     0.000005599667
      12        0.000004599344     0.000003019085     0.000002615446
      13       -0.000003032270     0.000001389335     0.000003582629
      14        0.000009081059    -0.000000858900    -0.000003426670
      15        0.000001338921     0.000002346524     0.000000033006
      16        0.000000230429    -0.000003286667     0.000000803468
      17       -0.000002769522    -0.000000442482     0.000000780681
      18        0.000004574254    -0.000002046366    -0.000002305943
      19        0.000000710689     0.000003241506    -0.000004072209
      20       -0.000017775116    -0.000019744963    -0.000036270693
      21       -0.000008966650    -0.000003838309    -0.000000907465
      22        0.000000439163    -0.000019173546     0.000005156420
      23       -0.000003926612     0.000009689286     0.000022664218

  **** Optimization is complete! (in 9 steps) ****
    Final optimized geometry and variables:
    Molecular point group: c1

    Geometry (in Angstrom), charge = 0, multiplicity = 1:

    O            2.950248546153    -0.526250266949    -0.032457938902
    C            1.888060615383    -0.006470625478     0.038968183779
    C            0.602103113363    -0.776201869135     0.230394317419
    O            1.721912851916     1.302163491846    -0.010711453771
    C           -0.697613812532    -0.034030662541    -0.062468416385
    H            0.689861759086    -1.661303166458    -0.386803039911
    H            0.616493420134    -1.122867811244     1.259419250354
    C           -1.921289836017    -0.925310601327     0.130467639893
    H           -0.679344132098     0.340540475143    -1.080957382161
    H           -0.774515542290     0.834918946537     0.579882666354
    C           -3.237303097816    -0.208604312658    -0.157330500040
    H           -1.840080987959    -1.796959764175    -0.514611998070
    H           -1.935346218888    -1.303097480940     1.150300105848
    C           -4.459220239436    -1.100357968795     0.035171397771
    H           -3.224052688112     0.169281372657    -1.175902594621
    H           -3.320376041981     0.661025773637     0.488601271002
    H           -4.422415007573    -1.962320015848    -0.622640124947
    H           -5.375403691204    -0.561688665625    -0.177315882548
    H           -4.519953181701    -1.466598123541     1.054609684720
    C            2.882131824847     2.096685843735    -0.157155982285
    H            3.554836966873     1.944014866215     0.673490384163
    H            2.541192333871     3.118992542983    -0.178613662127
    H            3.395530244782     1.854324985862    -1.075480489023

  Mulliken Charges: (a.u.)
   Center  Symbol    Alpha    Beta     Spin     Total
       1     O     4.20369  4.20369  0.00000 -0.40737
       2     C     2.81476  2.81476  0.00000  0.37049
       3     C     3.08970  3.08970  0.00000 -0.17941
       4     O     4.14106  4.14106  0.00000 -0.28211
       5     C     3.08625  3.08625  0.00000 -0.17250
       6     H     0.43642  0.43642  0.00000  0.12716
       7     H     0.44171  0.44171  0.00000  0.11658
       8     C     3.09112  3.09112  0.00000 -0.18225
       9     H     0.44998  0.44998  0.00000  0.10005
      10     H     0.44632  0.44632  0.00000  0.10736
      11     C     3.08406  3.08406  0.00000 -0.16812
      12     H     0.45400  0.45400  0.00000  0.09201
      13     H     0.45454  0.45454  0.00000  0.09091
      14     C     3.15033  3.15033  0.00000 -0.30065
      15     H     0.45394  0.45394  0.00000  0.09212
      16     H     0.45393  0.45393  0.00000  0.09213
      17     H     0.45474  0.45474  0.00000  0.09053
      18     H     0.44777  0.44777  0.00000  0.10446
      19     H     0.45487  0.45487  0.00000  0.09027
      20     C     3.03716  3.03716  0.00000 -0.07432
      21     H     0.45338  0.45338  0.00000  0.09324
      22     H     0.44701  0.44701  0.00000  0.10599
      23     H     0.45328  0.45328  0.00000  0.09343

   Total alpha = 36.00000, Total beta = 36.00000, Total charge = -0.00000

*** Psi4 exiting successfully. Buy a developer a beer!
