  ==> Input File <==

--------------------------------------------------------------------------
set {
	reference rhf
	basis 6-31G*
}

set_num_threads( 1 )
memory 2 gb

molecule MOL {
0 1

H	 1.830345	 -0.846749	 0.904779
O	 1.586534	 -0.678666	 -0.000226
C	 0.489431	 0.077273	 0.000046
C	 -0.764129	 -0.759190	 0.000191
O	 0.537743	 1.263962	 0.000257
C	 -2.038368	 0.075731	 -0.000248
H	 -0.717284	 -1.412404	 -0.866059
H	 -0.717458	 -1.411724	 0.866967
H	 -2.086483	 0.712501	 -0.875098
H	 -2.908485	 -0.571682	 -0.000042
H	 -2.086576	 0.713280	 0.874068

	symmetry c1
}
set optking {
	frozen_dihedral = ("
		2 3 4 7
	")
}

ee = energy('scf')
oeprop('DIPOLE', 'QUADRUPOLE', 'MULLIKEN_CHARGES')
f=open( 'psi4out.xyz', 'w' )
f.write( "11  " )
f.write( str(ee) + "\n" )
f.write( MOL.save_string_xyz() )
f.close()
--------------------------------------------------------------------------

    Molecular point group: c1

    Geometry (in Angstrom), charge = 0, multiplicity = 1:

       Center              X                  Y                   Z               Mass
    ------------   -----------------  -----------------  -----------------  -----------------
           H          1.837333708361    -0.836601451217     0.892460021639     1.007825032070
           O          1.593522708361    -0.668518451217    -0.012544978361    15.994914619560
           C          0.496419708361     0.087420548783    -0.012272978361    12.000000000000
           C         -0.757140291639    -0.749042451217    -0.012127978361    12.000000000000
           O          0.544731708361     1.274109548783    -0.012061978361    15.994914619560
           C         -2.031379291639     0.085878548783    -0.012566978361    12.000000000000
           H         -0.710295291639    -1.402256451217    -0.878377978361     1.007825032070
           H         -0.710469291639    -1.401576451217     0.854648021639     1.007825032070
           H         -2.079494291639     0.722648548783    -0.887416978361     1.007825032070
           H         -2.901496291639    -0.561534451217    -0.012360978361     1.007825032070
           H         -2.079587291639     0.723427548783     0.861749021639     1.007825032070

  Charge       = 0
  Multiplicity = 1
  Basis Set: 6-31G*
  Basis Set:

    Orbital Energies (a.u.)
    -----------------------

    Doubly Occupied:

       1A    -20.599071     2A    -20.561396     3A    -11.380786
       4A    -11.245509     5A    -11.220965     6A     -1.469947
       7A     -1.370215     8A     -1.064706     9A     -0.909898
      10A     -0.811197    11A     -0.713514    12A     -0.679169
      13A     -0.661733    14A     -0.617806    15A     -0.569169
      16A     -0.528643    17A     -0.519322    18A     -0.496387
      19A     -0.492493    20A     -0.446378

  @DF-RHF Final Energy:  -266.82298895156998

   => Energetics <=

    Nuclear Repulsion Energy =            179.8145026785770426
    One-Electron Energy =                -720.5583947720540436
    Two-Electron Energy =                 273.9209031419074449
    DFT Exchange-Correlation Energy =       0.0000000000000000
    Empirical Dispersion Energy =           0.0000000000000000
    PCM Polarization Energy =               0.0000000000000000
    EFP Energy =                            0.0000000000000000
    Total Energy =                       -266.8229889515695845

  Mulliken Charges: (a.u.)
   Center  Symbol    Alpha    Beta     Spin     Total
       1     H     0.26514  0.26514  0.00000  0.46971
       2     O     4.35622  4.35622  0.00000 -0.71244
       3     C     2.63827  2.63827  0.00000  0.72345
       4     C     3.20716  3.20716  0.00000 -0.41433
       5     O     4.25093  4.25093  0.00000 -0.50187
       6     C     3.24008  3.24008  0.00000 -0.48015
       7     H     0.39639  0.39639  0.00000  0.20722
       8     H     0.40990  0.40990  0.00000  0.18020
       9     H     0.40765  0.40765  0.00000  0.18470
      10     H     0.41749  0.41749  0.00000  0.16502
      11     H     0.41075  0.41075  0.00000  0.17849

   Total alpha = 20.00000, Total beta = 20.00000, Total charge = -0.00000
