  ==> Input File <==

--------------------------------------------------------------------------
set {
	reference rhf
	basis 6-31G*
}

set_num_threads( 4 )
memory 2 gb

molecule MOL {
0 1

H	 -1.730512	 -0.947887	 0.234402
O	 -2.035884	 -0.060112	 0.102722
C	 -0.955155	 0.788182	 -0.092531
C	 0.353668	 0.040312	 -0.004810
H	 -0.985057	 1.290372	 -1.054184
H	 -0.974469	 1.533190	 0.688632
F	 0.394464	 -0.937475	 -0.903053
F	 1.368604	 0.853376	 -0.249821
F	 0.546173	 -0.502608	 1.179981

	symmetry c1
}
set optking {
	frozen_dihedral = ("
		1 2 3 5
	")
}

ee = optimize('scf')
oeprop('DIPOLE', 'QUADRUPOLE', 'MULLIKEN_CHARGES')
f=open( 'psi4out.xyz', 'w' )
f.write( "9  " )
f.write( str(ee) + "\n" )
f.write( MOL.save_string_xyz() )
f.close()
--------------------------------------------------------------------------

    Molecular point group: c1
  Charge       = 0
  Multiplicity = 1
  Basis Set: 6-31G*
  Basis Set:
  @DF-RHF Final Energy:  -450.65737315409308
    Total Energy =                       -450.6573731540929657
    Molecular point group: c1
  Basis Set: 6-31G*
  Basis Set:
  Basis Set: 6-31G*
  Basis Set:
  @DF-RHF Final Energy:  -450.65806203047634
    Total Energy =                       -450.6580620304764579
  Basis Set: 6-31G*
  Basis Set:
  Basis Set: 6-31G*
  Basis Set:
  @DF-RHF Final Energy:  -450.65827400525222
    Total Energy =                       -450.6582740052519966
  Basis Set: 6-31G*
  Basis Set:
  Basis Set: 6-31G*
  Basis Set:
  @DF-RHF Final Energy:  -450.65828830470520
    Total Energy =                       -450.6582883047054793
  Basis Set: 6-31G*
  Basis Set:
  Charge       = 0
  Multiplicity = 1
  Basis Set: 6-31G*
  Basis Set:

    Orbital Energies (a.u.)
    -----------------------

    Doubly Occupied:

       1A    -26.351422     2A    -26.349235     3A    -26.349202
       4A    -20.586300     5A    -11.509142     6A    -11.309562
       7A     -1.748521     8A     -1.647749     9A     -1.644019
      10A     -1.397856    11A     -1.052334    12A     -0.929790
      13A     -0.837915    14A     -0.837007    15A     -0.816157
      16A     -0.720578    17A     -0.720517    18A     -0.678177
      19A     -0.675032    20A     -0.671453    21A     -0.650618
      22A     -0.643927    23A     -0.620892    24A     -0.524859
      25A     -0.476209

  @DF-RHF Final Energy:  -450.65829008145289

   => Energetics <=

    Nuclear Repulsion Energy =            277.3310038091954652
    One-Electron Energy =               -1176.4816462249682445
    Two-Electron Energy =                 448.4923523343197758
    DFT Exchange-Correlation Energy =       0.0000000000000000
    Empirical Dispersion Energy =           0.0000000000000000
    PCM Polarization Energy =               0.0000000000000000
    EFP Energy =                            0.0000000000000000
    Total Energy =                       -450.6582900814530603
    Molecular point group: c1
  Basis Set: 6-31G*
  Basis Set:

  -Total Gradient:
     Atom            X                  Y                   Z
    ------   -----------------  -----------------  -----------------
       1       -0.000004920341    -0.000023688410     0.000025732249
       2       -0.000020760349    -0.000024830432     0.000011820524
       3       -0.000012561068     0.000025258745    -0.000038912977
       4       -0.000026219503     0.000030535490     0.000080044997
       5        0.000046835271     0.000020853820     0.000033428607
       6        0.000006184046     0.000010238646     0.000011861339
       7        0.000037147291    -0.000084234438    -0.000076252412
       8       -0.000015253806    -0.000018835137     0.000019326239
       9       -0.000010451532     0.000064701714    -0.000067048566

  **** Optimization is complete! (in 5 steps) ****
    Final optimized geometry and variables:
    Molecular point group: c1

    Geometry (in Angstrom), charge = 0, multiplicity = 1:

    H           -1.791663490185    -0.954691082873     0.251971874338
    O           -2.054514247344    -0.057202877839     0.103557615971
    C           -0.960199419856     0.780388546056    -0.097029912480
    C            0.354649869426     0.046161634117    -0.024400357119
    H           -1.021776720371     1.245228847340    -1.072852994467
    H           -0.943502015804     1.556427276759     0.657742460007
    F            0.426892310982    -0.911800100799    -0.936895152416
    F            1.362766876362     0.874012109127    -0.219618941746
    F            0.521835861904    -0.534105576901     1.154681478827

  Mulliken Charges: (a.u.)
   Center  Symbol    Alpha    Beta     Spin     Total
       1     H     0.26994  0.26994  0.00000  0.46013
       2     O     4.37223  4.37223  0.00000 -0.74447
       3     C     3.02147  3.02147  0.00000 -0.04293
       4     C     2.48868  2.48868  0.00000  1.02263
       5     H     0.40473  0.40473  0.00000  0.19054
       6     H     0.40470  0.40470  0.00000  0.19060
       7     F     4.68038  4.68038  0.00000 -0.36076
       8     F     4.67761  4.67761  0.00000 -0.35522
       9     F     4.68026  4.68026  0.00000 -0.36053

   Total alpha = 25.00000, Total beta = 25.00000, Total charge =  0.00000
