  ==> Input File <==

--------------------------------------------------------------------------
set {
	reference rhf
	basis cc-pvtz
}

set_num_threads( 4 )
memory 2 gb

molecule MOL {
0 1

H	 -1.752232	 -2.214755	 -0.011938
C	 -1.343852	 -1.221619	 -0.018179
N	 -0.058800	 -1.097635	 -0.261688
C	 -2.148159	 -0.124236	 0.219734
C	 0.449026	 0.119242	 -0.273393
H	 -3.196988	 -0.237571	 0.417076
N	 -1.655094	 1.094230	 0.209506
C	 -0.370318	 1.215445	 -0.035100
C	 1.924033	 0.265863	 -0.538106
H	 0.033214	 2.210441	 -0.046812
C	 2.776155	 -0.631346	 0.360980
H	 2.107597	 0.013738	 -1.575651
H	 2.212150	 1.301712	 -0.403125
H	 3.826552	 -0.523533	 0.118129
H	 2.501913	 -1.670190	 0.232245
H	 2.644808	 -0.374166	 1.406041

	symmetry c1
}
set optking {
	frozen_dihedral = ("
		12 9 5 3
	")
}

ee = optimize('scf')
oeprop('DIPOLE', 'QUADRUPOLE', 'MULLIKEN_CHARGES')
f=open( 'psi4out.xyz', 'w' )
f.write( "16  " )
f.write( str(ee) + "\n" )
f.write( MOL.save_string_xyz() )
f.close()
--------------------------------------------------------------------------

    Molecular point group: c1
  Charge       = 0
  Multiplicity = 1
  Basis Set: CC-PVTZ
  Basis Set:
  @DF-RHF Final Energy:  -340.87191677047656
    Total Energy =                       -340.8719167704766164
    Molecular point group: c1
  Basis Set: CC-PVTZ
  Basis Set:
  Basis Set: CC-PVTZ
  Basis Set:
  @DF-RHF Final Energy:  -340.87199876196053
    Total Energy =                       -340.8719987619602989
  Basis Set: CC-PVTZ
  Basis Set:
  Basis Set: CC-PVTZ
  Basis Set:
  @DF-RHF Final Energy:  -340.87202179239745
    Total Energy =                       -340.8720217923975042
  Basis Set: CC-PVTZ
  Basis Set:
  Basis Set: CC-PVTZ
  Basis Set:
  @DF-RHF Final Energy:  -340.87202698924676
    Total Energy =                       -340.8720269892467059
  Basis Set: CC-PVTZ
  Basis Set:
  Charge       = 0
  Multiplicity = 1
  Basis Set: CC-PVTZ
  Basis Set:

    Orbital Energies (a.u.)
    -----------------------

    Doubly Occupied:

       1A    -15.580688     2A    -15.575962     3A    -11.278713
       4A    -11.272918     5A    -11.268234     6A    -11.268114
       7A    -11.232127     8A    -11.213818     9A     -1.316309
      10A     -1.224333    11A     -1.085617    12A     -1.014990
      13A     -0.908984    14A     -0.893493    15A     -0.828003
      16A     -0.720011    17A     -0.711734    18A     -0.659695
      19A     -0.619767    20A     -0.603459    21A     -0.578389
      22A     -0.562296    23A     -0.523965    24A     -0.505553
      25A     -0.500770    26A     -0.489319    27A     -0.433429
      28A     -0.397554    29A     -0.347021

  @DF-RHF Final Energy:  -340.87202715780489

   => Energetics <=

    Nuclear Repulsion Energy =            350.5022329648925847
    One-Electron Energy =               -1155.5179870097158528
    Two-Electron Energy =                 464.1437268870182038
    DFT Exchange-Correlation Energy =       0.0000000000000000
    Empirical Dispersion Energy =           0.0000000000000000
    PCM Polarization Energy =               0.0000000000000000
    EFP Energy =                            0.0000000000000000
    Total Energy =                       -340.8720271578051211
    Molecular point group: c1
  Basis Set: CC-PVTZ
  Basis Set:

  -Total Gradient:
     Atom            X                  Y                   Z
    ------   -----------------  -----------------  -----------------
       1       -0.000011968951     0.000002271609    -0.000017147347
       2        0.000091527024    -0.000034764784     0.000016497710
       3        0.000097838973    -0.000109534953     0.000806800490
       4       -0.000009587872     0.000094924489     0.000045950656
       5       -0.000232612949     0.000380712353    -0.001173424989
       6       -0.000007882277    -0.000004558658    -0.000024923862
       7       -0.000089357733    -0.000064126106     0.000027255926
       8        0.000081963882    -0.000022307244    -0.000080921543
       9        0.000206313723    -0.001148035216     0.000613222973
      10       -0.000002295851    -0.000004190926     0.000011422226
      11        0.000004172534     0.000018932342     0.000008655085
      12       -0.000133419470     0.000902576826    -0.000239877285
      13        0.000009572851    -0.000002557978     0.000008775784
      14        0.000000472950    -0.000004684457     0.000001002099
      15       -0.000005731339    -0.000002266713    -0.000008021450
      16        0.000000994506    -0.000002390587     0.000004733528

  **** Optimization is complete! (in 5 steps) ****
    Final optimized geometry and variables:
    Molecular point group: c1

    Geometry (in Angstrom), charge = 0, multiplicity = 1:

    H           -1.772581164363    -2.151361994646     0.019277888638
    C           -1.357139818345    -1.161202313783     0.014661868590
    N           -0.068432188909    -1.047407933096    -0.214760211860
    C           -2.155464457034    -0.057988905698     0.242290964460
    C            0.449444321750     0.164700239535    -0.224133207029
    H           -3.207164259241    -0.162759033182     0.428394567675
    N           -1.651804311126     1.156334936679     0.239638726111
    C           -0.363609916042     1.266890764940     0.009990587553
    C            1.924685972615     0.310784995767    -0.498009884090
    H            0.048956091826     2.258074437034     0.009996854158
    C            2.800586866507    -0.566816440550     0.393335735893
    H            2.102378752800     0.064560060494    -1.540117372620
    H            2.202270351028     1.351366425389    -0.377537206436
    H            3.845899039986    -0.432677722156     0.142017337066
    H            2.549954832947    -1.610965408821     0.270232719495
    H            2.670802428356    -0.310192007275     1.438667692119

  Mulliken Charges: (a.u.)
   Center  Symbol    Alpha    Beta     Spin     Total
       1     H     0.41422  0.41422  0.00000  0.17156
       2     C     3.04250  3.04250  0.00000 -0.08499
       3     N     3.59476  3.59476  0.00000 -0.18953
       4     C     3.04790  3.04790  0.00000 -0.09580
       5     C     2.94101  2.94101  0.00000  0.11797
       6     H     0.41367  0.41367  0.00000  0.17266
       7     N     3.58659  3.58659  0.00000 -0.17318
       8     C     3.07845  3.07845  0.00000 -0.15690
       9     C     3.07514  3.07514  0.00000 -0.15027
      10     H     0.41629  0.41629  0.00000  0.16742
      11     C     3.14475  3.14475  0.00000 -0.28950
      12     H     0.44739  0.44739  0.00000  0.10522
      13     H     0.44962  0.44962  0.00000  0.10075
      14     H     0.45010  0.45010  0.00000  0.09981
      15     H     0.44336  0.44336  0.00000  0.11329
      16     H     0.45426  0.45426  0.00000  0.09148

   Total alpha = 29.00000, Total beta = 29.00000, Total charge = -0.00000
