  ==> Input File <==

--------------------------------------------------------------------------
set {
	reference rhf
	basis 6-31G*
}

set_num_threads( 1 )
memory 2 gb

molecule MOL {
0 1

H	 2.933193	 -0.398230	 0.787027
N	 2.434251	 -0.367735	 -0.081097
C	 1.267428	 0.496480	 0.024474
H	 2.156861	 -1.308411	 -0.288698
C	 -0.016086	 -0.325158	 -0.029487
H	 1.288818	 1.183521	 -0.816092
H	 1.267576	 1.109062	 0.929528
C	 -1.282277	 0.529072	 0.046735
H	 -0.012495	 -0.908639	 -0.945788
H	 -0.015903	 -1.041248	 0.791956
C	 -2.563920	 -0.301775	 -0.006060
H	 -1.284084	 1.244622	 -0.773004
H	 -1.271387	 1.115393	 0.963286
H	 -2.621848	 -0.873522	 -0.927727
H	 -3.445135	 0.329952	 0.047812
H	 -2.609542	 -1.004582	 0.821105

	symmetry c1
}
set optking {
	frozen_dihedral = ("
		6 3 5 9,
		12 8 5 9
	")
}

ee = energy('scf')
oeprop('DIPOLE', 'QUADRUPOLE', 'MULLIKEN_CHARGES')
f=open( 'psi4out.xyz', 'w' )
f.write( "16  " )
f.write( str(ee) + "\n" )
f.write( MOL.save_string_xyz() )
f.close()
--------------------------------------------------------------------------

    Molecular point group: c1

    Geometry (in Angstrom), charge = 0, multiplicity = 1:

       Center              X                  Y                   Z               Mass
    ------------   -----------------  -----------------  -----------------  -----------------
           H          2.942681253048    -0.385609871204     0.788581898101     1.007825032070
           N          2.443739253048    -0.355114871204    -0.079542101899    14.003074004780
           C          1.276916253048     0.509100128796     0.026028898101    12.000000000000
           H          2.166349253048    -1.295790871204    -0.287143101899     1.007825032070
           C         -0.006597746952    -0.312537871204    -0.027932101899    12.000000000000
           H          1.298306253048     1.196141128796    -0.814537101899     1.007825032070
           H          1.277064253048     1.121682128796     0.931082898101     1.007825032070
           C         -1.272788746952     0.541692128796     0.048289898101    12.000000000000
           H         -0.003006746952    -0.896018871204    -0.944233101899     1.007825032070
           H         -0.006414746952    -1.028627871204     0.793510898101     1.007825032070
           C         -2.554431746952    -0.289154871204    -0.004505101899    12.000000000000
           H         -1.274595746952     1.257242128796    -0.771449101899     1.007825032070
           H         -1.261898746952     1.128013128796     0.964840898101     1.007825032070
           H         -2.612359746952    -0.860901871204    -0.926172101899     1.007825032070
           H         -3.435646746952     0.342572128796     0.049366898101     1.007825032070
           H         -2.600053746952    -0.991961871204     0.822659898101     1.007825032070

  Charge       = 0
  Multiplicity = 1
  Basis Set: 6-31G*
  Basis Set:

    Orbital Energies (a.u.)
    -----------------------

    Doubly Occupied:

       1A    -15.529453     2A    -11.239179     3A    -11.218239
       4A    -11.215543     5A    -11.210842     6A     -1.177390
       7A     -1.062116     8A     -0.959756     9A     -0.846948
      10A     -0.799583    11A     -0.668612    12A     -0.633978
      13A     -0.597588    14A     -0.584183    15A     -0.563825
      16A     -0.522885    17A     -0.510848    18A     -0.475575
      19A     -0.474771    20A     -0.464384    21A     -0.374181

  @DF-RHF Final Energy:  -212.31173974634598

   => Energetics <=

    Nuclear Repulsion Energy =            186.7428594727890925
    One-Electron Energy =                -655.8494545924539807
    Two-Electron Energy =                 256.7948553733187396
    DFT Exchange-Correlation Energy =       0.0000000000000000
    Empirical Dispersion Energy =           0.0000000000000000
    PCM Polarization Energy =               0.0000000000000000
    EFP Energy =                            0.0000000000000000
    Total Energy =                       -212.3117397463461771

  Mulliken Charges: (a.u.)
   Center  Symbol    Alpha    Beta     Spin     Total
       1     H     0.33297  0.33297  0.00000  0.33406
       2     N     3.92763  3.92763  0.00000 -0.85525
       3     C     3.04979  3.04979  0.00000 -0.09957
       4     H     0.33134  0.33134  0.00000  0.33732
       5     C     3.16753  3.16753  0.00000 -0.33505
       6     H     0.41942  0.41942  0.00000  0.16116
       7     H     0.42542  0.42542  0.00000  0.14915
       8     C     3.15504  3.15504  0.00000 -0.31008
       9     H     0.42108  0.42108  0.00000  0.15783
      10     H     0.42561  0.42561  0.00000  0.14877
      11     C     3.23901  3.23901  0.00000 -0.47803
      12     H     0.42065  0.42065  0.00000  0.15870
      13     H     0.42267  0.42267  0.00000  0.15466
      14     H     0.42113  0.42113  0.00000  0.15775
      15     H     0.41872  0.41872  0.00000  0.16256
      16     H     0.42199  0.42199  0.00000  0.15601

   Total alpha = 21.00000, Total beta = 21.00000, Total charge = -0.00000
