  ==> Input File <==

--------------------------------------------------------------------------
set {
	reference rhf
	basis 6-31G*
}

set_num_threads( 4 )
memory 2 gb

molecule MOL {
0 1

H	 -1.681779	 -0.403506	 0.757701
N	 -1.172117	 -0.314371	 -0.100254
C	 -0.024542	 0.565565	 0.069209
H	 -0.872469	 -1.236070	 -0.356690
C	 1.271298	 -0.229563	 -0.014192
H	 -0.049409	 1.297310	 -0.731596
H	 -0.046881	 1.125219	 1.006750
H	 1.332152	 -0.753033	 -0.961461
H	 2.134169	 0.422483	 0.080702
H	 1.326077	 -0.968298	 0.781395

	symmetry c1
}
set optking {
	frozen_dihedral = ("
		1 2 3 6
	")
}

ee = optimize('scf')
oeprop('DIPOLE', 'QUADRUPOLE', 'MULLIKEN_CHARGES')
f=open( 'psi4out.xyz', 'w' )
f.write( "10  " )
f.write( str(ee) + "\n" )
f.write( MOL.save_string_xyz() )
f.close()
--------------------------------------------------------------------------

    Molecular point group: c1
  Charge       = 0
  Multiplicity = 1
  Basis Set: 6-31G*
  Basis Set:
  @DF-RHF Final Energy:  -134.24222624473475
    Total Energy =                       -134.2422262447347521
    Molecular point group: c1
  Basis Set: 6-31G*
  Basis Set:
  Basis Set: 6-31G*
  Basis Set:
  @DF-RHF Final Energy:  -134.24349791581608
    Total Energy =                       -134.2434979158161354
  Basis Set: 6-31G*
  Basis Set:
  Basis Set: 6-31G*
  Basis Set:
  @DF-RHF Final Energy:  -134.24372648543556
    Total Energy =                       -134.2437264854355305
  Basis Set: 6-31G*
  Basis Set:
  Basis Set: 6-31G*
  Basis Set:
  @DF-RHF Final Energy:  -134.24374340349249
    Total Energy =                       -134.2437434034924877
  Basis Set: 6-31G*
  Basis Set:
  Basis Set: 6-31G*
  Basis Set:
  @DF-RHF Final Energy:  -134.24374536760445
    Total Energy =                       -134.2437453676044470
  Basis Set: 6-31G*
  Basis Set:
  Charge       = 0
  Multiplicity = 1
  Basis Set: 6-31G*
  Basis Set:

    Orbital Energies (a.u.)
    -----------------------

    Doubly Occupied:

       1A    -15.529089     2A    -11.242392     3A    -11.212730
       4A     -1.172595     5A     -0.988931     6A     -0.831447
       7A     -0.667861     8A     -0.604884     9A     -0.592770
      10A     -0.539323    11A     -0.507778    12A     -0.487318
      13A     -0.373922

  @DF-RHF Final Energy:  -134.24374555017653

   => Energetics <=

    Nuclear Repulsion Energy =             83.1916290470148141
    One-Electron Energy =                -345.3686696253413970
    Two-Electron Energy =                 127.9332950281500416
    DFT Exchange-Correlation Energy =       0.0000000000000000
    Empirical Dispersion Energy =           0.0000000000000000
    PCM Polarization Energy =               0.0000000000000000
    EFP Energy =                            0.0000000000000000
    Total Energy =                       -134.2437455501765271
    Molecular point group: c1
  Basis Set: 6-31G*
  Basis Set:

  -Total Gradient:
     Atom            X                  Y                   Z
    ------   -----------------  -----------------  -----------------
       1       -0.001442608332     0.002113032011    -0.000564485818
       2        0.001540536752    -0.002297765716     0.001066119566
       3        0.001113353885    -0.001265419530    -0.001967414774
       4        0.000004045564     0.000012792509     0.000006090365
       5       -0.000024597698    -0.000004250404     0.000011071835
       6       -0.001206936355     0.001465578947     0.001434680126
       7       -0.000012308642    -0.000000326859     0.000008983515
       8        0.000008223405    -0.000000355029     0.000002547128
       9        0.000002348988    -0.000008320111     0.000000884564
      10        0.000017942435    -0.000014965818     0.000001523494

  **** Optimization is complete! (in 6 steps) ****
    Final optimized geometry and variables:
    Molecular point group: c1

    Geometry (in Angstrom), charge = 0, multiplicity = 1:

    H           -1.698597886222    -0.384435103393     0.794680871170
    N           -1.217527072797    -0.282131308329    -0.074334336715
    C           -0.033603132483     0.562320014653     0.049353663007
    H           -0.998899982909    -1.193617733721    -0.422251817409
    C            1.284625352713    -0.203646893421    -0.008931252850
    H           -0.052519593349     1.320571797747    -0.728468944961
    H           -0.090187402715     1.104793576627     0.988585551589
    H            1.373078374937    -0.749312645480    -0.944875129044
    H            2.132453241471     0.471346726018     0.059068712739
    H            1.355713603639    -0.919974806162     0.804785354474

  Mulliken Charges: (a.u.)
   Center  Symbol    Alpha    Beta     Spin     Total
       1     H     0.33081  0.33081  0.00000  0.33839
       2     N     3.93019  3.93019  0.00000 -0.86038
       3     C     3.05193  3.05193  0.00000 -0.10387
       4     H     0.33150  0.33150  0.00000  0.33701
       5     C     3.24999  3.24999  0.00000 -0.49999
       6     H     0.41901  0.41901  0.00000  0.16198
       7     H     0.42487  0.42487  0.00000  0.15026
       8     H     0.42052  0.42052  0.00000  0.15896
       9     H     0.41896  0.41896  0.00000  0.16209
      10     H     0.42222  0.42222  0.00000  0.15556

   Total alpha = 13.00000, Total beta = 13.00000, Total charge = -0.00000
