                              Psi4 1.0.54 Driver

  ==> Input File <==

--------------------------------------------------------------------------
set {
	reference rhf
	basis cc-pvtz
}

set_num_threads( 4 )
memory 2 gb

molecule MOL {
0 1

H	 -3.417846	 -0.302435	 1.149575
C	 -3.360853	 -0.195924	 0.057654
C	 -2.607517	 1.014828	 -0.422405
O	 -3.879033	 -0.995140	 -0.642383
C	 -1.216901	 1.136108	 0.207794
H	 -2.554475	 0.981457	 -1.502872
H	 -3.202975	 1.881413	 -0.143542
C	 -0.247837	 0.040196	 -0.230469
H	 -0.806035	 2.105603	 -0.052221
H	 -1.310849	 1.128981	 1.290992
C	 1.181757	 0.280428	 0.247371
H	 -0.259600	 -0.030819	 -1.314870
H	 -0.591284	 -0.923375	 0.136958
C	 2.151032	 -0.811012	 -0.202643
H	 1.515939	 1.247397	 -0.115449
H	 1.191514	 0.341223	 1.333422
C	 3.580021	 -0.656538	 0.320835
H	 2.170545	 -0.847575	 -1.289412
H	 1.766632	 -1.772905	 0.124928
C	 4.327657	 0.562694	 -0.213579
H	 4.138806	 -1.549270	 0.057813
H	 3.561991	 -0.620783	 1.406976
H	 4.355973	 0.557257	 -1.298551
H	 3.867136	 1.491650	 0.100501
H	 5.351524	 0.571613	 0.142204

	symmetry c1
}
set optking {
	frozen_dihedral = ("
		3 5 8 12
	")
}

ee,wfn = optimize('scf', return_wfn=True)
oeprop( wfn, 'DIPOLE', 'QUADRUPOLE', 'MULLIKEN_CHARGES')
f=open( 'psi4out.xyz', 'w' )
f.write( "25  " )
f.write( str(ee) + "\n" )
f.write( MOL.save_string_xyz() )
f.close()
--------------------------------------------------------------------------

    Molecular point group: c1
  Charge       = 0
  Multiplicity = 1
  Basis Set: CC-PVTZ
  Basis Set:
  @DF-RHF Final Energy:  -387.26020463654021
    Total Energy =                       -387.2602046365404931
    Molecular point group: c1
  Basis Set: CC-PVTZ
  Basis Set:
  Basis Set: CC-PVTZ
  Basis Set:
  @DF-RHF Final Energy:  -387.26016913519743
    Total Energy =                       -387.2601691351975433
  Basis Set: CC-PVTZ
  Basis Set:
  Basis Set: CC-PVTZ
  Basis Set:
  @DF-RHF Final Energy:  -387.26021479455318
    Total Energy =                       -387.2602147945531215
  Basis Set: CC-PVTZ
  Basis Set:
  Basis Set: CC-PVTZ
  Basis Set:
  @DF-RHF Final Energy:  -387.26014940700378
    Total Energy =                       -387.2601494070039507
  Basis Set: CC-PVTZ
  Basis Set:
  Basis Set: CC-PVTZ
  Basis Set:
  @DF-RHF Final Energy:  -387.26022724268137
    Total Energy =                       -387.2602272426814807
  Basis Set: CC-PVTZ
  Basis Set:
  Basis Set: CC-PVTZ
  Basis Set:
  @DF-RHF Final Energy:  -387.26023688489056
    Total Energy =                       -387.2602368848910146
  Basis Set: CC-PVTZ
  Basis Set:
  Charge       = 0
  Multiplicity = 1
  Basis Set: CC-PVTZ
  Basis Set:

    Orbital Energies (a.u.)
    -----------------------

    Doubly Occupied:

       1A    -20.551242     2A    -11.320856     3A    -11.233813
       4A    -11.232833     5A    -11.221678     6A    -11.217806
       7A    -11.216276     8A    -11.215052     9A    -11.208826
      10A     -1.406231    11A     -1.105292    12A     -1.071016
      13A     -1.014619    14A     -0.943507    15A     -0.876023
      16A     -0.821454    17A     -0.788264    18A     -0.782060
      19A     -0.668213    20A     -0.662954    21A     -0.635093
      22A     -0.627633    23A     -0.601828    24A     -0.596530
      25A     -0.577794    26A     -0.549119    27A     -0.537428
      28A     -0.528297    29A     -0.508579    30A     -0.497551
      31A     -0.492469    32A     -0.479567    33A     -0.465102
      34A     -0.459574    35A     -0.442834    36A     -0.411605

  @DF-RHF Final Energy:  -387.26023689904582

   => Energetics <=

    Nuclear Repulsion Energy =            439.6160225941127919
    One-Electron Energy =               -1395.8144806340278592
    Two-Electron Energy =                 568.9382211408687908
    DFT Exchange-Correlation Energy =       0.0000000000000000
    Empirical Dispersion Energy =           0.0000000000000000
    PCM Polarization Energy =               0.0000000000000000
    EFP Energy =                            0.0000000000000000
    Total Energy =                       -387.2602368990462764
    Molecular point group: c1
  Basis Set: CC-PVTZ
  Basis Set:

  -Total Gradient:
     Atom            X                  Y                   Z
    ------   -----------------  -----------------  -----------------
       1       -0.000001988329     0.000002396686     0.000006877704
       2        0.000011592640    -0.000002829329     0.000003913905
       3        0.000300673572     0.000592349144    -0.000777661943
       4       -0.000005636065    -0.000001337700    -0.000009032958
       5       -0.000653105528    -0.001049376732     0.001113379898
       6       -0.000002491751    -0.000002151118    -0.000005050336
       7       -0.000003756441     0.000002490571     0.000001075179
       8        0.001376906988     0.001405666104    -0.000416929533
       9       -0.000002886001    -0.000001253497    -0.000003075491
      10        0.000002502714     0.000002186252     0.000002542702
      11       -0.000001323359    -0.000007447867     0.000014591239
      12       -0.001021276567    -0.000946122295     0.000069889632
      13       -0.000000048782     0.000001967226     0.000001054500
      14        0.000001606539     0.000003127945    -0.000006873373
      15       -0.000000590672    -0.000003764075    -0.000000546834
      16        0.000000429677     0.000001463137     0.000005106913
      17       -0.000001055770     0.000006179303    -0.000000132045
      18       -0.000002624418    -0.000001938209    -0.000002189810
      19        0.000000806397     0.000002195722     0.000001617632
      20        0.000001569688    -0.000004250738     0.000001070593
      21        0.000002032828     0.000001644353    -0.000000121672
      22       -0.000000731240     0.000002183967    -0.000000181828
      23       -0.000002787331     0.000000013916    -0.000000546104
      24       -0.000000459189    -0.000002353974     0.000002249339
      25        0.000002640396    -0.000001038785    -0.000001027311

  **** Optimization is complete! (in 7 steps) ****
    Final optimized geometry and variables:
    Molecular point group: c1

    Geometry (in Angstrom), charge = 0, multiplicity = 1:

    H           -3.393102795657    -0.385406350761     1.248416494782
    C           -3.345817720598    -0.252900262944     0.158848869094
    C           -2.613720692490     0.979441942835    -0.298618790141
    O           -3.857253082407    -1.043414705321    -0.555923385123
    C           -1.218302827781     1.105248996184     0.319891236225
    H           -2.569868594215     0.972719371153    -1.379870867565
    H           -3.217808167669     1.830962426938     0.006789588475
    C           -0.245583611596     0.018870665929    -0.135390531679
    H           -0.819470009609     2.078905046170     0.055829000228
    H           -1.297605230630     1.095822210553     1.403963786533
    C            1.183693341060     0.253340940672     0.344587304896
    H           -0.264680791318    -0.046217511733    -1.219988143274
    H           -0.588290253757    -0.949087717133     0.222194885537
    C            2.147950642832    -0.845999376297    -0.096738408709
    H            1.523879876848     1.216317478790    -0.022917252183
    H            1.191061234610     0.320373677993     1.430391364672
    C            3.577633411990    -0.693577110832     0.425385664662
    H            2.167126976606    -0.891278013588    -1.183181467812
    H            1.759375692520    -1.803528929349     0.238532618667
    C            4.330939984507     0.517425301905    -0.119672863011
    H            4.132236659403    -1.591153399800     0.170110726148
    H            3.559784737853    -0.648282304483     1.511180012272
    H            4.358018992861     0.502981730975    -1.204581832219
    H            3.875622006887     1.451302662068     0.187315500798
    H            5.355230471457     0.523902504417     0.234957052490

  Mulliken Charges: (a.u.)
   Center  Symbol    Alpha    Beta     Spin     Total
       1     H     0.46437  0.46437  0.00000  0.07125
       2     C     2.90349  2.90349  0.00000  0.19302
       3     C     3.09019  3.09019  0.00000 -0.18037
       4     O     4.16669  4.16669  0.00000 -0.33338
       5     C     3.11566  3.11566  0.00000 -0.23133
       6     H     0.44274  0.44274  0.00000  0.11452
       7     H     0.44049  0.44049  0.00000  0.11902
       8     C     3.09053  3.09053  0.00000 -0.18107
       9     H     0.44381  0.44381  0.00000  0.11239
      10     H     0.44910  0.44910  0.00000  0.10181
      11     C     3.09285  3.09285  0.00000 -0.18569
      12     H     0.44889  0.44889  0.00000  0.10222
      13     H     0.44868  0.44868  0.00000  0.10263
      14     C     3.09560  3.09560  0.00000 -0.19120
      15     H     0.45117  0.45117  0.00000  0.09765
      16     H     0.45428  0.45428  0.00000  0.09143
      17     C     3.09081  3.09081  0.00000 -0.18162
      18     H     0.45276  0.45276  0.00000  0.09447
      19     H     0.44802  0.44802  0.00000  0.10395
      20     C     3.15270  3.15270  0.00000 -0.30539
      21     H     0.44765  0.44765  0.00000  0.10470
      22     H     0.45476  0.45476  0.00000  0.09048
      23     H     0.45445  0.45445  0.00000  0.09111
      24     H     0.45442  0.45442  0.00000  0.09117
      25     H     0.44588  0.44588  0.00000  0.10823

   Total alpha = 36.00000, Total beta = 36.00000, Total charge = -0.00000

*** Psi4 exiting successfully. Buy a developer a beer!
