  ==> Input File <==

--------------------------------------------------------------------------
set {
	reference rhf
	basis 6-31G*
}

set_num_threads( 1 )
memory 2 gb

molecule MOL {
0 1

H	 -2.895624	 0.032436	 0.780863
O	 -2.347518	 -0.290803	 0.079804
C	 -1.184022	 0.487508	 -0.006784
C	 0.062599	 -0.378592	 0.031606
H	 -1.176523	 1.099369	 -0.904519
H	 -1.187323	 1.153111	 0.844927
O	 1.171513	 0.459272	 -0.058250
H	 0.050699	 -1.089204	 -0.797170
H	 0.078739	 -0.954914	 0.954740
C	 2.397842	 -0.198080	 -0.002151
H	 2.508049	 -0.905315	 -0.822092
H	 3.173794	 0.550865	 -0.078850
H	 2.517602	 -0.735921	 0.936026

	symmetry c1
}
set optking {
	frozen_dihedral = ("
		8 4 3 5,
		10 7 4 8,
		4 7 10 13
	")
}

ee = energy('scf')
oeprop('DIPOLE', 'QUADRUPOLE', 'MULLIKEN_CHARGES')
f=open( 'psi4out.xyz', 'w' )
f.write( "13  " )
f.write( str(ee) + "\n" )
f.write( MOL.save_string_xyz() )
f.close()
--------------------------------------------------------------------------

    Molecular point group: c1

    Geometry (in Angstrom), charge = 0, multiplicity = 1:

       Center              X                  Y                   Z               Mass
    ------------   -----------------  -----------------  -----------------  -----------------
           H         -2.890369199928     0.022331676704     0.760641648857     1.007825032070
           O         -2.342263199928    -0.300907323296     0.059582648857    15.994914619560
           C         -1.178767199928     0.477403676704    -0.027005351143    12.000000000000
           C          0.067853800072    -0.388696323296     0.011384648857    12.000000000000
           H         -1.171268199928     1.089264676704    -0.924740351143     1.007825032070
           H         -1.182068199928     1.143006676704     0.824705648857     1.007825032070
           O          1.176767800072     0.449167676704    -0.078471351143    15.994914619560
           H          0.055953800072    -1.099308323296    -0.817391351143     1.007825032070
           H          0.083993800072    -0.965018323296     0.934518648857     1.007825032070
           C          2.403096800072    -0.208184323296    -0.022372351143    12.000000000000
           H          2.513303800072    -0.915419323296    -0.842313351143     1.007825032070
           H          3.179048800072     0.540760676704    -0.099071351143     1.007825032070
           H          2.522856800072    -0.746025323296     0.915804648857     1.007825032070

  Charge       = 0
  Multiplicity = 1
  Basis Set: 6-31G*
  Basis Set:

    Orbital Energies (a.u.)
    -----------------------

    Doubly Occupied:

       1A    -20.560083     2A    -20.557325     3A    -11.269364
       4A    -11.268446     5A    -11.267991     6A     -1.386449
       7A     -1.363683     8A     -1.017370     9A     -0.911689
      10A     -0.833804    11A     -0.710598    12A     -0.678986
      13A     -0.645887    14A     -0.643092    15A     -0.608370
      16A     -0.551995    17A     -0.546025    18A     -0.490631
      19A     -0.475030    20A     -0.437298    21A     -0.418995

  @DF-RHF Final Energy:  -267.94820377709397

   => Energetics <=

    Nuclear Repulsion Energy =            189.9485279505570929
    One-Electron Energy =                -742.5071643541131152
    Two-Electron Energy =                 284.6104326264614883
    DFT Exchange-Correlation Energy =       0.0000000000000000
    Empirical Dispersion Energy =           0.0000000000000000
    PCM Polarization Energy =               0.0000000000000000
    EFP Energy =                            0.0000000000000000
    Total Energy =                       -267.9482037770944771

  Mulliken Charges: (a.u.)
   Center  Symbol    Alpha    Beta     Spin     Total
       1     H     0.27682  0.27682  0.00000  0.44636
       2     O     4.37573  4.37573  0.00000 -0.75146
       3     C     3.00128  3.00128  0.00000 -0.00256
       4     C     2.99293  2.99293  0.00000  0.01414
       5     H     0.41679  0.41679  0.00000  0.16642
       6     H     0.42683  0.42683  0.00000  0.14634
       7     O     4.30838  4.30838  0.00000 -0.61677
       8     H     0.42446  0.42446  0.00000  0.15107
       9     H     0.42925  0.42925  0.00000  0.14151
      10     C     3.07951  3.07951  0.00000 -0.15902
      11     H     0.42795  0.42795  0.00000  0.14409
      12     H     0.41130  0.41130  0.00000  0.17740
      13     H     0.42877  0.42877  0.00000  0.14247

   Total alpha = 21.00000, Total beta = 21.00000, Total charge = -0.00000
