  ==> Input File <==

--------------------------------------------------------------------------
set {
	reference rhf
	basis 6-31G*
}

set_num_threads( 4 )
memory 2 gb

molecule MOL {
0 1

H	 -3.420663	 1.227371	 -1.044276
O	 -3.452007	 0.283848	 -0.965577
C	 -3.181085	 -0.079926	 0.364119
C	 -1.765924	 0.277073	 0.805136
H	 -3.327791	 -1.152017	 0.410903
H	 -3.905698	 0.375695	 1.036898
C	 -1.020758	 -0.884158	 1.464520
H	 -1.203588	 0.630899	 -0.059472
H	 -1.823985	 1.118484	 1.493524
C	 0.405770	 -0.521863	 1.882777
H	 -0.999392	 -1.727795	 0.781490
H	 -1.580292	 -1.213433	 2.338530
C	 1.143252	 -1.687419	 2.547371
H	 0.956033	 -0.184706	 1.007588
H	 0.378175	 0.322771	 2.570117
C	 2.546002	 -1.347897	 3.064261
H	 1.211093	 -2.517088	 1.845416
H	 0.545489	 -2.046213	 3.382693
C	 3.559444	 -1.000914	 1.972042
H	 2.920147	 -2.198714	 3.628546
H	 2.479078	 -0.522434	 3.770190
H	 3.638287	 -1.803861	 1.243895
H	 4.546004	 -0.843961	 2.397368
H	 3.288290	 -0.095920	 1.438539

	symmetry c1
}
set optking {
	frozen_dihedral = ("
		7 4 3 2
	")
}

ee = optimize('scf')
oeprop('DIPOLE', 'QUADRUPOLE', 'MULLIKEN_CHARGES')
f=open( 'psi4out.xyz', 'w' )
f.write( "24  " )
f.write( str(ee) + "\n" )
f.write( MOL.save_string_xyz() )
f.close()
--------------------------------------------------------------------------

    Molecular point group: c1
  Charge       = 0
  Multiplicity = 1
  Basis Set: 6-31G*
  Basis Set:
  @DF-RHF Final Energy:  -349.24152645178827
    Total Energy =                       -349.2415264517881610
    Molecular point group: c1
  Basis Set: 6-31G*
  Basis Set:
  Basis Set: 6-31G*
  Basis Set:
  @DF-RHF Final Energy:  -349.24199827788937
    Total Energy =                       -349.2419982778894223
  Basis Set: 6-31G*
  Basis Set:
  Basis Set: 6-31G*
  Basis Set:
  @DF-RHF Final Energy:  -349.24206806599511
    Total Energy =                       -349.2420680659951131
  Basis Set: 6-31G*
  Basis Set:
  Charge       = 0
  Multiplicity = 1
  Basis Set: 6-31G*
  Basis Set:

    Orbital Energies (a.u.)
    -----------------------

    Doubly Occupied:

       1A    -20.551639     2A    -11.266602     3A    -11.217744
       4A    -11.215540     5A    -11.215295     6A    -11.214609
       7A    -11.213756     8A    -11.208182     9A     -1.357870
      10A     -1.090985    11A     -1.049160    12A     -0.984410
      13A     -0.913530    14A     -0.850936    15A     -0.805267
      16A     -0.777974    17A     -0.688815    18A     -0.646505
      19A     -0.625233    20A     -0.612980    21A     -0.597759
      22A     -0.586512    23A     -0.564308    24A     -0.532005
      25A     -0.519721    26A     -0.517158    27A     -0.488238
      28A     -0.479237    29A     -0.464481    30A     -0.462275
      31A     -0.459835    32A     -0.453750    33A     -0.416857

  @DF-RHF Final Energy:  -349.24206768754294

   => Energetics <=

    Nuclear Repulsion Energy =            380.1882366759861611
    One-Electron Energy =               -1226.7622777741225946
    Two-Electron Energy =                 497.3319734105933208
    DFT Exchange-Correlation Energy =       0.0000000000000000
    Empirical Dispersion Energy =           0.0000000000000000
    PCM Polarization Energy =               0.0000000000000000
    EFP Energy =                            0.0000000000000000
    Total Energy =                       -349.2420676875430559
    Molecular point group: c1
  Basis Set: 6-31G*
  Basis Set:

  -Total Gradient:
     Atom            X                  Y                   Z
    ------   -----------------  -----------------  -----------------
       1        0.000006454056    -0.000008467166     0.000030153671
       2        0.000780277808    -0.002281571728    -0.000703796570
       3       -0.000823239303     0.002807921524     0.000182739498
       4       -0.000715180131     0.000305889473     0.002596525687
       5        0.000041890172     0.000007660867    -0.000064608656
       6       -0.000028340514    -0.000030467760    -0.000014980535
       7        0.000722997269    -0.000648542710    -0.002001460450
       8       -0.000028901309    -0.000061513208     0.000022129425
       9        0.000010132645    -0.000010415395    -0.000000260923
      10        0.000063830967    -0.000027491266    -0.000074346909
      11       -0.000053470669    -0.000028859872    -0.000046277460
      12        0.000039348214    -0.000040020528     0.000025706455
      13       -0.000038864207     0.000035681288     0.000077910745
      14        0.000081514917     0.000006537916    -0.000026224565
      15       -0.000002508171    -0.000016714661    -0.000034063772
      16        0.000019741579    -0.000061118722     0.000018492263
      17       -0.000004329369     0.000006156190     0.000030994346
      18       -0.000035507222     0.000015608667     0.000004694194
      19       -0.000035409745     0.000026311718    -0.000004267615
      20        0.000028776691    -0.000004759863    -0.000025364449
      21        0.000008030735    -0.000030791802     0.000024267955
      22        0.000002886653     0.000001601334     0.000021028485
      23       -0.000002249563     0.000019561359    -0.000001043041
      24       -0.000037881498     0.000017804346    -0.000037947779

  **** Optimization is complete! (in 4 steps) ****
    Final optimized geometry and variables:
    Molecular point group: c1

    Geometry (in Angstrom), charge = 0, multiplicity = 1:

    H           -3.190040466338     1.812857699631    -2.397963185420
    O           -3.212534876348     0.870716288696    -2.303293076547
    C           -2.920386328828     0.526798711929    -0.972328853871
    C           -1.482126133855     0.879546872972    -0.552945371706
    H           -3.067805587344    -0.544495845808    -0.923949844696
    H           -3.642899769396     0.977028808280    -0.295173242472
    C           -0.742981700827    -0.283455077654     0.113884433067
    H           -0.940260849004     1.167268258614    -1.449678951775
    H           -1.477435674607     1.744245523387     0.107180878679
    C            0.683173112756     0.071573459562     0.537451098633
    H           -0.718351169766    -1.124309739702    -0.576230956742
    H           -1.303012963688    -0.620226051670     0.985447772048
    C            1.416748730217    -1.099269227590     1.197096306153
    H            1.234596168060     0.413060548364    -0.334912952145
    H            0.654177391302     0.911857789846     1.229748681861
    C            2.817859037025    -0.763869738504     1.721040004205
    H            1.487204708072    -1.924094665855     0.489765664989
    H            0.815783718008    -1.463319344730     2.028018206025
    C            3.831085484563    -0.396419959302     0.635406106435
    H            3.193772672485    -1.622385024606     2.272208255489
    H            2.747386525006     0.050076050003     2.439857729646
    H            3.914859991117    -1.188350899174    -0.104067049727
    H            4.816164319566    -0.240973734678     1.064612266968
    H            3.556385271781     0.514764467026     0.114486841717

  Mulliken Charges: (a.u.)
   Center  Symbol    Alpha    Beta     Spin     Total
       1     H     0.28369  0.28369  0.00000  0.43262
       2     O     4.36983  4.36983  0.00000 -0.73966
       3     C     2.99490  2.99490  0.00000  0.01020
       4     C     3.17450  3.17450  0.00000 -0.34901
       5     H     0.41390  0.41390  0.00000  0.17221
       6     H     0.42934  0.42934  0.00000  0.14131
       7     C     3.15847  3.15847  0.00000 -0.31694
       8     H     0.41354  0.41354  0.00000  0.17293
       9     H     0.42246  0.42246  0.00000  0.15509
      10     C     3.15416  3.15416  0.00000 -0.30833
      11     H     0.41852  0.41852  0.00000  0.16296
      12     H     0.42357  0.42357  0.00000  0.15286
      13     C     3.15261  3.15261  0.00000 -0.30523
      14     H     0.42042  0.42042  0.00000  0.15916
      15     H     0.42458  0.42458  0.00000  0.15083
      16     C     3.15231  3.15231  0.00000 -0.30463
      17     H     0.42350  0.42350  0.00000  0.15299
      18     H     0.42251  0.42251  0.00000  0.15498
      19     C     3.24126  3.24126  0.00000 -0.48251
      20     H     0.42089  0.42089  0.00000  0.15822
      21     H     0.42366  0.42366  0.00000  0.15267
      22     H     0.42192  0.42192  0.00000  0.15616
      23     H     0.41931  0.41931  0.00000  0.16139
      24     H     0.42013  0.42013  0.00000  0.15974

   Total alpha = 33.00000, Total beta = 33.00000, Total charge =  0.00000
