  ==> Input File <==

--------------------------------------------------------------------------
set {
	reference rhf
	basis 6-31G*
}

set_num_threads( 1 )
memory 2 gb

molecule MOL {
0 1

H	 3.729471	 -0.928294	 -0.070608
O	 2.826016	 -1.159218	 0.122261
C	 2.077727	 -0.067559	 -0.035091
C	 0.624473	 -0.343591	 0.253101
O	 2.542965	 0.974826	 -0.363729
C	 -0.265902	 0.883932	 0.072916
H	 0.324016	 -1.163849	 -0.390541
H	 0.565024	 -0.726111	 1.268924
C	 -1.728698	 0.646073	 0.462102
H	 -0.209144	 1.219470	 -0.958188
H	 0.135059	 1.692851	 0.673903
C	 -1.933463	 -0.055758	 1.807637
H	 -2.191054	 0.043809	 -0.316529
H	 -2.262759	 1.595242	 0.465784
C	 -3.404041	 -0.358987	 2.093870
H	 -1.365040	 -0.983571	 1.817684
H	 -1.536559	 0.555304	 2.614144
H	 -3.524010	 -0.854222	 3.052339
H	 -3.826241	 -1.006860	 1.331088
H	 -3.994856	 0.552424	 2.116322

	symmetry c1
}
set optking {
	frozen_dihedral = ("
		16 12 9 6,
		7 4 6 10,
		5 3 4 7,
		1 2 3 5
	")
}

ee = energy('scf')
oeprop('DIPOLE', 'QUADRUPOLE', 'MULLIKEN_CHARGES')
f=open( 'psi4out.xyz', 'w' )
f.write( "20  " )
f.write( str(ee) + "\n" )
f.write( MOL.save_string_xyz() )
f.close()
--------------------------------------------------------------------------

    Molecular point group: c1

    Geometry (in Angstrom), charge = 0, multiplicity = 1:

       Center              X                  Y                   Z               Mass
    ------------   -----------------  -----------------  -----------------  -----------------
           H          3.591202873542    -0.975640419101    -0.619240322159     1.007825032070
           O          2.687747873542    -1.206564419101    -0.426371322159    15.994914619560
           C          1.939458873542    -0.114905419101    -0.583723322159    12.000000000000
           C          0.486204873542    -0.390937419101    -0.295531322159    12.000000000000
           O          2.404696873542     0.927479580899    -0.912361322159    15.994914619560
           C         -0.404170126458     0.836585580899    -0.475716322159    12.000000000000
           H          0.185747873542    -1.211195419101    -0.939173322159     1.007825032070
           H          0.426755873542    -0.773457419101     0.720291677841     1.007825032070
           C         -1.866966126458     0.598726580899    -0.086530322159    12.000000000000
           H         -0.347412126458     1.172123580899    -1.506820322159     1.007825032070
           H         -0.003209126458     1.645504580899     0.125270677841     1.007825032070
           C         -2.071731126458    -0.103104419101     1.259004677841    12.000000000000
           H         -2.329322126458    -0.003537419101    -0.865161322159     1.007825032070
           H         -2.401027126458     1.547895580899    -0.082848322159     1.007825032070
           C         -3.542309126458    -0.406333419101     1.545237677841    12.000000000000
           H         -1.503308126458    -1.030917419101     1.269051677841     1.007825032070
           H         -1.674827126458     0.507957580899     2.065511677841     1.007825032070
           H         -3.662278126458    -0.901568419101     2.503706677841     1.007825032070
           H         -3.964509126458    -1.054206419101     0.782455677841     1.007825032070
           H         -4.133124126458     0.505077580899     1.567689677841     1.007825032070

  Charge       = 0
  Multiplicity = 1
  Basis Set: 6-31G*
  Basis Set:

    Orbital Energies (a.u.)
    -----------------------

    Doubly Occupied:

       1A    -20.612441     2A    -20.551302     3A    -11.380988
       4A    -11.239869     5A    -11.222786     6A    -11.220953
       7A    -11.220204     8A    -11.212725     9A     -1.474425
      10A     -1.365430    11A     -1.097587    12A     -1.039757
      13A     -0.961690    14A     -0.869188    15A     -0.820463
      16A     -0.772260    17A     -0.699417    18A     -0.691102
      19A     -0.664410    20A     -0.636438    21A     -0.603167
      22A     -0.593869    23A     -0.578354    24A     -0.554096
      25A     -0.537464    26A     -0.517946    27A     -0.495291
      28A     -0.479314    29A     -0.470525    30A     -0.463851
      31A     -0.457898    32A     -0.443548

  @DF-RHF Final Energy:  -383.94580890251831

   => Energetics <=

    Nuclear Repulsion Energy =            377.9292554371799611
    One-Electron Energy =               -1271.8526485354586839
    Two-Electron Energy =                 509.9775841957594480
    DFT Exchange-Correlation Energy =       0.0000000000000000
    Empirical Dispersion Energy =           0.0000000000000000
    PCM Polarization Energy =               0.0000000000000000
    EFP Energy =                            0.0000000000000000
    Total Energy =                       -383.9458089025192180

  Mulliken Charges: (a.u.)
   Center  Symbol    Alpha    Beta     Spin     Total
       1     H     0.26782  0.26782  0.00000  0.46436
       2     O     4.35160  4.35160  0.00000 -0.70319
       3     C     2.62122  2.62122  0.00000  0.75757
       4     C     3.21646  3.21646  0.00000 -0.43292
       5     O     4.27926  4.27926  0.00000 -0.55852
       6     C     3.15348  3.15348  0.00000 -0.30697
       7     H     0.39887  0.39887  0.00000  0.20226
       8     H     0.39584  0.39584  0.00000  0.20831
       9     C     3.15405  3.15405  0.00000 -0.30809
      10     H     0.40980  0.40980  0.00000  0.18040
      11     H     0.41055  0.41055  0.00000  0.17891
      12     C     3.15839  3.15839  0.00000 -0.31679
      13     H     0.42375  0.42375  0.00000  0.15250
      14     H     0.41724  0.41724  0.00000  0.16553
      15     C     3.23852  3.23852  0.00000 -0.47703
      16     H     0.42174  0.42174  0.00000  0.15652
      17     H     0.42117  0.42117  0.00000  0.15766
      18     H     0.41840  0.41840  0.00000  0.16320
      19     H     0.42114  0.42114  0.00000  0.15772
      20     H     0.42071  0.42071  0.00000  0.15857

   Total alpha = 32.00000, Total beta = 32.00000, Total charge =  0.00000
