                              Psi4 1.0.54 Driver

  ==> Input File <==

--------------------------------------------------------------------------
set {
	reference rhf
	basis cc-pvtz
}

set_num_threads( 4 )
memory 2 gb

molecule MOL {
0 1

H	 -3.258660	 -0.290394	 1.471450
C	 -3.307964	 -0.275695	 0.374072
C	 -2.653809	 0.914422	 -0.273689
O	 -3.855140	 -1.148880	 -0.205112
C	 -1.216901	 1.136108	 0.207794
H	 -2.700131	 0.790676	 -1.347875
H	 -3.256452	 1.781007	 -0.010713
C	 -0.247837	 0.040196	 -0.230469
H	 -0.872882	 2.093195	 -0.169002
H	 -1.209325	 1.218376	 1.291938
C	 1.181757	 0.280428	 0.247371
H	 -0.259600	 -0.030819	 -1.314870
H	 -0.591284	 -0.923375	 0.136958
C	 2.151032	 -0.811012	 -0.202643
H	 1.515939	 1.247397	 -0.115449
H	 1.191514	 0.341223	 1.333422
C	 3.580021	 -0.656538	 0.320835
H	 2.170545	 -0.847575	 -1.289412
H	 1.766632	 -1.772905	 0.124928
C	 4.669858	 -1.064530	 -0.667538
H	 3.682229	 -1.258508	 1.218375
H	 3.739687	 0.373594	 0.628471
H	 4.531953	 -2.089107	 -0.998021
H	 4.678550	 -0.431807	 -1.546897
H	 5.649533	 -0.995870	 -0.208749

	symmetry c1
}
set optking {
	frozen_dihedral = ("
		20 17 14 18
	")
}

ee,wfn = optimize('scf', return_wfn=True)
oeprop( wfn, 'DIPOLE', 'QUADRUPOLE', 'MULLIKEN_CHARGES')
f=open( 'psi4out.xyz', 'w' )
f.write( "25  " )
f.write( str(ee) + "\n" )
f.write( MOL.save_string_xyz() )
f.close()
--------------------------------------------------------------------------

    Molecular point group: c1
  Charge       = 0
  Multiplicity = 1
  Basis Set: CC-PVTZ
  Basis Set:
  @DF-RHF Final Energy:  -387.25789987509449
    Total Energy =                       -387.2578998750941537
    Molecular point group: c1
  Basis Set: CC-PVTZ
  Basis Set:
  Basis Set: CC-PVTZ
  Basis Set:
  @DF-RHF Final Energy:  -387.25834401332361
    Total Energy =                       -387.2583440133236081
  Basis Set: CC-PVTZ
  Basis Set:
  Basis Set: CC-PVTZ
  Basis Set:
  @DF-RHF Final Energy:  -387.25838573185229
    Total Energy =                       -387.2583857318525133
  Basis Set: CC-PVTZ
  Basis Set:
  Basis Set: CC-PVTZ
  Basis Set:
  @DF-RHF Final Energy:  -387.25819174035405
    Total Energy =                       -387.2581917403540501
  Basis Set: CC-PVTZ
  Basis Set:
  Basis Set: CC-PVTZ
  Basis Set:
  @DF-RHF Final Energy:  -387.25839011427092
    Total Energy =                       -387.2583901142710374
  Basis Set: CC-PVTZ
  Basis Set:
  Charge       = 0
  Multiplicity = 1
  Basis Set: CC-PVTZ
  Basis Set:

    Orbital Energies (a.u.)
    -----------------------

    Doubly Occupied:

       1A    -20.551437     2A    -11.321048     3A    -11.233884
       4A    -11.232970     5A    -11.221750     6A    -11.218766
       7A    -11.215654     8A    -11.214425     9A    -11.208779
      10A     -1.406444    11A     -1.105137    12A     -1.070212
      13A     -1.016351    14A     -0.944546    15A     -0.868946
      16A     -0.815815    17A     -0.795016    18A     -0.787656
      19A     -0.668176    20A     -0.664428    21A     -0.639253
      22A     -0.616483    23A     -0.610549    24A     -0.592349
      25A     -0.568956    26A     -0.557999    27A     -0.537315
      28A     -0.519659    29A     -0.512364    30A     -0.502378
      31A     -0.484944    32A     -0.480851    33A     -0.466905
      34A     -0.460272    35A     -0.441883    36A     -0.411938

  @DF-RHF Final Energy:  -387.25838970532897

   => Energetics <=

    Nuclear Repulsion Energy =            436.1071681605382651
    One-Electron Energy =               -1388.8000434494827005
    Two-Electron Energy =                 565.4344855836156967
    DFT Exchange-Correlation Energy =       0.0000000000000000
    Empirical Dispersion Energy =           0.0000000000000000
    PCM Polarization Energy =               0.0000000000000000
    EFP Energy =                            0.0000000000000000
    Total Energy =                       -387.2583897053286819
    Molecular point group: c1
  Basis Set: CC-PVTZ
  Basis Set:

  -Total Gradient:
     Atom            X                  Y                   Z
    ------   -----------------  -----------------  -----------------
       1       -0.000055367299     0.000034912905     0.000017073164
       2        0.000195859676    -0.000096573781    -0.000021131173
       3       -0.000061157763     0.000008934757     0.000035430825
       4       -0.000065184928     0.000004517766    -0.000017107757
       5        0.000025066209     0.000009662506    -0.000053152207
       6       -0.000003262187     0.000019798114    -0.000014535589
       7       -0.000015563022     0.000011386301     0.000022605743
       8       -0.000023389363    -0.000022812171     0.000020500892
       9        0.000018254262    -0.000007467594    -0.000011172846
      10        0.000002209094     0.000021948929     0.000004291624
      11       -0.000017030675    -0.000008096855    -0.000013243883
      12        0.000003811502     0.000017725864     0.000009006012
      13       -0.000021817030    -0.000002939477    -0.000000443589
      14       -0.000435428022     0.006226775867    -0.000799483642
      15       -0.000004908916    -0.000021435275    -0.000008181288
      16        0.000016605711    -0.000009694221    -0.000000150091
      17       -0.000045027484    -0.004931929885     0.001688454037
      18        0.000377133405    -0.004079642371     0.000258860905
      19        0.000004040787     0.000015208222     0.000029032442
      20        0.000127939702     0.002817656415    -0.001162854619
      21        0.000006989202    -0.000004045889    -0.000003983433
      22        0.000014538372    -0.000022611349    -0.000019954419
      23       -0.000002325460     0.000057241877     0.000035634882
      24        0.000012410872    -0.000032639401     0.000038043217
      25       -0.000054396652    -0.000005881252    -0.000033539210

  **** Optimization is complete! (in 6 steps) ****
    Final optimized geometry and variables:
    Molecular point group: c1

    Geometry (in Angstrom), charge = 0, multiplicity = 1:

    H           -3.308904957515    -0.060347080737     1.494207393933
    C           -3.351077979004    -0.042623153208     0.396541293171
    C           -2.675003198016     1.138799011940    -0.244661809994
    O           -3.908912547421    -0.905475261392    -0.187953437059
    C           -1.238272761720     1.338108825065     0.246696011207
    H           -2.716068036792     1.017729189563    -1.319399816111
    H           -3.266556182296     2.013735822958     0.015948103487
    C           -0.285144331727     0.223444855854    -0.179096796698
    H           -0.874799137542     2.287297858277    -0.131799058407
    H           -1.237446359325     1.425265028584     1.330481608503
    C            1.144212004546     0.441739897879     0.307356958842
    H           -0.290462767536     0.146588650113    -1.263164828588
    H           -0.647292117884    -0.732160405138     0.191211013322
    C            2.107173601563    -0.657163309486    -0.128887699314
    H            1.506240876574     1.399666600068    -0.058132693478
    H            1.148739700089     0.510249486590     1.392905246680
    C            3.535406701907    -0.483781940357     0.411310217754
    H            2.131091579197    -0.726579161922    -1.212903726487
    H            1.718116294081    -1.617205059204     0.201005378347
    C            4.614201526951    -0.926777144876    -0.571980929045
    H            3.643070077397    -1.022998523918     1.346541358153
    H            3.703323598983     0.562952046001     0.649152838325
    H            4.494187457047    -1.969585967199    -0.847711654832
    H            4.569867326733    -0.339007113351    -1.482360866075
    H            5.605073541774    -0.809887168859    -0.148242373948

  Mulliken Charges: (a.u.)
   Center  Symbol    Alpha    Beta     Spin     Total
       1     H     0.46411  0.46411  0.00000  0.07177
       2     C     2.90471  2.90471  0.00000  0.19058
       3     C     3.08930  3.08930  0.00000 -0.17860
       4     O     4.16627  4.16627  0.00000 -0.33255
       5     C     3.11634  3.11634  0.00000 -0.23268
       6     H     0.44287  0.44287  0.00000  0.11427
       7     H     0.44048  0.44048  0.00000  0.11905
       8     C     3.09107  3.09107  0.00000 -0.18214
       9     H     0.44309  0.44309  0.00000  0.11382
      10     H     0.44979  0.44979  0.00000  0.10042
      11     C     3.09017  3.09017  0.00000 -0.18033
      12     H     0.44955  0.44955  0.00000  0.10089
      13     H     0.44828  0.44828  0.00000  0.10344
      14     C     3.09144  3.09144  0.00000 -0.18289
      15     H     0.45315  0.45315  0.00000  0.09370
      16     H     0.45293  0.45293  0.00000  0.09415
      17     C     3.08648  3.08648  0.00000 -0.17296
      18     H     0.45328  0.45328  0.00000  0.09344
      19     H     0.45203  0.45203  0.00000  0.09593
      20     C     3.14837  3.14837  0.00000 -0.29673
      21     H     0.45129  0.45129  0.00000  0.09741
      22     H     0.45635  0.45635  0.00000  0.08729
      23     H     0.45405  0.45405  0.00000  0.09190
      24     H     0.45542  0.45542  0.00000  0.08916
      25     H     0.44917  0.44917  0.00000  0.10165

   Total alpha = 36.00000, Total beta = 36.00000, Total charge = -0.00000

*** Psi4 exiting successfully. Buy a developer a beer!
