                              Psi4 1.0.54 Driver

  ==> Input File <==

--------------------------------------------------------------------------
set {
	reference rhf
	basis cc-pvtz
}

set_num_threads( 4 )
memory 2 gb

molecule MOL {
0 1

H	 0.048256	 -0.204856	 0.559472
N	 -0.625934	 -0.663929	 -0.000707
C	 -1.978635	 -0.158664	 0.001017
C	 -0.227138	 -1.730831	 -0.728213
H	 -2.519057	 -0.493535	 -0.876362
H	 -1.938890	 0.917202	 -0.004137
H	 -2.514266	 -0.485137	 0.884506
C	 1.237015	 -2.082092	 -0.580939
O	 -0.961039	 -2.351236	 -1.439242
H	 1.467391	 -2.317670	 0.451548
H	 1.456054	 -2.935460	 -1.201303
H	 1.859235	 -1.247369	 -0.882103

	symmetry c1
}
set optking {
	frozen_dihedral = ("
		4 2 3 5
	")
}

ee,wfn = optimize('scf', return_wfn=True)
oeprop( wfn, 'DIPOLE', 'QUADRUPOLE', 'MULLIKEN_CHARGES')
f=open( 'psi4out.xyz', 'w' )
f.write( "12  " )
f.write( str(ee) + "\n" )
f.write( MOL.save_string_xyz() )
f.close()
--------------------------------------------------------------------------

    Molecular point group: c1
  Charge       = 0
  Multiplicity = 1
  Basis Set: CC-PVTZ
  Basis Set:
  @DF-RHF Final Energy:  -247.10070151237213
    Total Energy =                       -247.1007015123721544
    Molecular point group: c1
  Basis Set: CC-PVTZ
  Basis Set:
  Basis Set: CC-PVTZ
  Basis Set:
  @DF-RHF Final Energy:  -247.10096728291785
    Total Energy =                       -247.1009672829178498
  Basis Set: CC-PVTZ
  Basis Set:
  Basis Set: CC-PVTZ
  Basis Set:
  @DF-RHF Final Energy:  -247.10084990774516
    Total Energy =                       -247.1008499077451575
  Basis Set: CC-PVTZ
  Basis Set:
  Basis Set: CC-PVTZ
  Basis Set:
  @DF-RHF Final Energy:  -247.10104404901469
    Total Energy =                       -247.1010440490147744
  Basis Set: CC-PVTZ
  Basis Set:
  @DF-RHF Final Energy:  -247.10105446555471
    Total Energy =                       -247.1010544655545118
  @DF-RHF Final Energy:  -247.10106673560409
    Total Energy =                       -247.1010667356040358
  @DF-RHF Final Energy:  -247.10106844489462
    Total Energy =                       -247.1010684448943948
  @DF-RHF Final Energy:  -247.10106958169629
    Total Energy =                       -247.1010695816962084
  @DF-RHF Final Energy:  -247.10107420333529
    Total Energy =                       -247.1010742033352017
  @DF-RHF Final Energy:  -247.10096288342734
    Total Energy =                       -247.1009628834274849
  @DF-RHF Final Energy:  -247.10110225990329
    Total Energy =                       -247.1011022599034845
  @DF-RHF Final Energy:  -247.10100671247403
    Total Energy =                       -247.1010067124739180
  @DF-RHF Final Energy:  -247.10107104770660
    Total Energy =                       -247.1010710477067391
  @DF-RHF Final Energy:  -247.10114215136645
    Total Energy =                       -247.1011421513663890
  @DF-RHF Final Energy:  -247.10117639478136
    Total Energy =                       -247.1011763947812483
  @DF-RHF Final Energy:  -247.10119197546874
    Total Energy =                       -247.1011919754686232
  @DF-RHF Final Energy:  -247.10119425614903
    Total Energy =                       -247.1011942561491992
  @DF-RHF Final Energy:  -247.10119634374334
    Total Energy =                       -247.1011963437433678
  @DF-RHF Final Energy:  -247.10119836566957
    Total Energy =                       -247.1011983656696884
  @DF-RHF Final Energy:  -247.10120415918425
    Total Energy =                       -247.1012041591842490
  @DF-RHF Final Energy:  -247.10120957944739
    Total Energy =                       -247.1012095794475840
  @DF-RHF Final Energy:  -247.10121461324738
    Total Energy =                       -247.1012146132474641
  @DF-RHF Final Energy:  -247.10121584727563
    Total Energy =                       -247.1012158472756823
  @DF-RHF Final Energy:  -247.10121701681348
    Total Energy =                       -247.1012170168134503
  @DF-RHF Final Energy:  -247.10121815925029
    Total Energy =                       -247.1012181592503794
  @DF-RHF Final Energy:  -247.10121927492077
    Total Energy =                       -247.1012192749207088
  @DF-RHF Final Energy:  -247.10122245188344
    Total Energy =                       -247.1012224518834728
  @DF-RHF Final Energy:  -247.10122539946744
    Total Energy =                       -247.1012253994674666
  @DF-RHF Final Energy:  -247.10122810710405
    Total Energy =                       -247.1012281071041343
  @DF-RHF Final Energy:  -247.10123057615661
    Total Energy =                       -247.1012305761565813
  @DF-RHF Final Energy:  -247.10123280990183
    Total Energy =                       -247.1012328099017168
  @DF-RHF Final Energy:  -247.10123481157098
    Total Energy =                       -247.1012348115709187
  @DF-RHF Final Energy:  -247.10123658685870
    Total Energy =                       -247.1012365868587040
  Basis Set: CC-PVTZ
  Basis Set:
  @DF-RHF Final Energy:  -247.10123814181622
    Total Energy =                       -247.1012381418163386
  Basis Set: CC-PVTZ
  Basis Set:
  Basis Set: CC-PVTZ
  Basis Set:
  @DF-RHF Final Energy:  -247.10123948354823
    Total Energy =                       -247.1012394835483974
  Basis Set: CC-PVTZ
  Basis Set:
  Basis Set: CC-PVTZ
  Basis Set:
  @DF-RHF Final Energy:  -247.10124062000577
    Total Energy =                       -247.1012406200058535
  Basis Set: CC-PVTZ
  Basis Set:
  Charge       = 0
  Multiplicity = 1
  Basis Set: CC-PVTZ
  Basis Set:

    Orbital Energies (a.u.)
    -----------------------

    Doubly Occupied:

       1A    -20.504101     2A    -15.577102     3A    -11.336642
       4A    -11.253078     5A    -11.228429     6A     -1.387339
       7A     -1.232000     8A     -1.016170     9A     -0.934154
      10A     -0.789612    11A     -0.691045    12A     -0.652396
      13A     -0.635159    14A     -0.587008    15A     -0.583150
      16A     -0.554357    17A     -0.546903    18A     -0.508098
      19A     -0.416653    20A     -0.390165

  @DF-RHF Final Energy:  -247.10124156045643

   => Energetics <=

    Nuclear Repulsion Energy =            181.7084328748445330
    One-Electron Energy =                -695.9722286604337569
    Two-Electron Energy =                 267.1625542251327943
    DFT Exchange-Correlation Energy =       0.0000000000000000
    Empirical Dispersion Energy =           0.0000000000000000
    PCM Polarization Energy =               0.0000000000000000
    EFP Energy =                            0.0000000000000000
    Total Energy =                       -247.1012415604564012
    Molecular point group: c1
  Basis Set: CC-PVTZ
  Basis Set:

  -Total Gradient:
     Atom            X                  Y                   Z
    ------   -----------------  -----------------  -----------------
       1        0.000004298530     0.000005038949     0.000003828144
       2       -0.000054833525    -0.000189226664     0.000334933565
       3        0.000076065601     0.000255096616    -0.000293774331
       4        0.000035257899     0.000108066947    -0.000187734856
       5       -0.000050997599    -0.000170056356     0.000157298740
       6       -0.000000331437     0.000004063338    -0.000001155326
       7       -0.000001135673    -0.000000773171     0.000004000866
       8       -0.000030322450     0.000032010809    -0.000004376180
       9       -0.000009509360    -0.000010108813    -0.000018651390
      10        0.000002933747    -0.000034825564     0.000047648521
      11        0.000010073681    -0.000032657575    -0.000042135334
      12        0.000018500585     0.000033371481     0.000000117584

  **** Optimization is complete! (in 37 steps) ****
    Final optimized geometry and variables:
    Molecular point group: c1

    Geometry (in Angstrom), charge = 0, multiplicity = 1:

    H            0.606052607025     1.367895574865     0.856209077520
    N           -0.081031909944     0.826965999766     0.394525867351
    C           -1.453879581538     1.272934540456     0.442448298425
    C            0.292060712528    -0.351079388751    -0.148189460161
    H           -2.019215328846     0.728941839070    -0.295384804503
    H           -1.506425092268     2.330895210877     0.220749369090
    H           -1.899625172274     1.098219504540     1.415486418430
    C            1.762998823871    -0.684321668564    -0.036921163323
    O           -0.476815267206    -1.100733441157    -0.675038406495
    H            1.887686807760    -1.420950959335     0.747582497552
    H            2.086170874527    -1.128987809512    -0.966307634182
    H            2.380498620028     0.174999382082     0.189258250186

  Mulliken Charges: (a.u.)
   Center  Symbol    Alpha    Beta     Spin     Total
       1     H     0.40998  0.40998  0.00000  0.18004
       2     N     3.61635  3.61635  0.00000 -0.23270
       3     C     3.08311  3.08311  0.00000 -0.16621
       4     C     2.84132  2.84132  0.00000  0.31736
       5     H     0.43225  0.43225  0.00000  0.13551
       6     H     0.45529  0.45529  0.00000  0.08942
       7     H     0.45716  0.45716  0.00000  0.08567
       8     C     3.14421  3.14421  0.00000 -0.28842
       9     O     4.22059  4.22059  0.00000 -0.44118
      10     H     0.44348  0.44348  0.00000  0.11304
      11     H     0.43753  0.43753  0.00000  0.12495
      12     H     0.45874  0.45874  0.00000  0.08253

   Total alpha = 20.00000, Total beta = 20.00000, Total charge =  0.00000

*** Psi4 exiting successfully. Buy a developer a beer!
