                              Psi4 1.0.54 Driver

  ==> Input File <==

--------------------------------------------------------------------------
set {
	reference rhf
	basis cc-pvtz
}

set_num_threads( 4 )
memory 2 gb

molecule MOL {
0 1

H	 -3.642953	 0.223825	 0.000000
C	 -2.571844	 0.155001	 0.000000
C	 -1.957580	 -1.086132	 0.000000
C	 -1.807160	 1.303787	 0.000000
H	 -2.551493	 -1.979629	 0.000000
C	 -0.582719	 -1.174294	 0.000000
H	 -2.279934	 2.266806	 0.000000
C	 -0.427220	 1.213406	 0.000000
H	 -0.094904	 -2.127556	 0.000000
C	 0.196908	 -0.024061	 0.000000
H	 0.151409	 2.115254	 0.000000
C	 1.690041	 -0.173233	 0.000000
C	 2.544231	 0.989030	 0.451841
O	 2.195360	 -1.191630	 -0.350546
H	 2.370411	 1.858085	 -0.171465
H	 3.580723	 0.699421	 0.384457
H	 2.310871	 1.262128	 1.474064

	symmetry c1
}
set optking {
	frozen_dihedral = ("
		13 12 10 8
	")
}

ee,wfn = optimize('scf', return_wfn=True)
oeprop( wfn, 'DIPOLE', 'QUADRUPOLE', 'MULLIKEN_CHARGES')
f=open( 'psi4out.xyz', 'w' )
f.write( "17  " )
f.write( str(ee) + "\n" )
f.write( MOL.save_string_xyz() )
f.close()
--------------------------------------------------------------------------

    Molecular point group: c1
  Charge       = 0
  Multiplicity = 1
  Basis Set: CC-PVTZ
  Basis Set:
  @DF-RHF Final Energy:  -382.60481762075005
    Total Energy =                       -382.6048176207506231
    Molecular point group: c1
  Basis Set: CC-PVTZ
  Basis Set:
  Basis Set: CC-PVTZ
  Basis Set:
  @DF-RHF Final Energy:  -382.60177641341278
    Total Energy =                       -382.6017764134128356
  Basis Set: CC-PVTZ
  Basis Set:
  Basis Set: CC-PVTZ
  Basis Set:
  @DF-RHF Final Energy:  -382.60490490622675
    Total Energy =                       -382.6049049062266931
  Basis Set: CC-PVTZ
  Basis Set:
  Basis Set: CC-PVTZ
  Basis Set:
  @DF-RHF Final Energy:  -382.60506719902838
    Total Energy =                       -382.6050671990284400
  Basis Set: CC-PVTZ
  Basis Set:
  Basis Set: CC-PVTZ
  Basis Set:
  @DF-RHF Final Energy:  -382.60507392651721
    Total Energy =                       -382.6050739265173206
  Basis Set: CC-PVTZ
  Basis Set:
  Basis Set: CC-PVTZ
  Basis Set:
  @DF-RHF Final Energy:  -382.60509252839762
    Total Energy =                       -382.6050925283979041
  Basis Set: CC-PVTZ
  Basis Set:
  Basis Set: CC-PVTZ
  Basis Set:
  @DF-RHF Final Energy:  -382.60509473153195
    Total Energy =                       -382.6050947315317217
  Basis Set: CC-PVTZ
  Basis Set:
  Charge       = 0
  Multiplicity = 1
  Basis Set: CC-PVTZ
  Basis Set:

    Orbital Energies (a.u.)
    -----------------------

    Doubly Occupied:

       1A    -20.540957     2A    -11.327908     3A    -11.246658
       4A    -11.243950     5A    -11.242807     6A    -11.239169
       7A    -11.238963     8A    -11.236760     9A    -11.229061
      10A     -1.402266    11A     -1.171200    12A     -1.053431
      13A     -1.030671    14A     -0.998980    15A     -0.864452
      16A     -0.839166    17A     -0.763710    18A     -0.712645
      19A     -0.659222    20A     -0.651950    21A     -0.628324
      22A     -0.612993    23A     -0.602686    24A     -0.598571
      25A     -0.556432    26A     -0.530115    27A     -0.520648
      28A     -0.504043    29A     -0.497432    30A     -0.414492
      31A     -0.350710    32A     -0.346816

  @DF-RHF Final Energy:  -382.60509501653206

   => Energetics <=

    Nuclear Repulsion Energy =            404.4478843807953012
    One-Electron Energy =               -1320.3915815760797159
    Two-Electron Energy =                 533.3386021787523532
    DFT Exchange-Correlation Energy =       0.0000000000000000
    Empirical Dispersion Energy =           0.0000000000000000
    PCM Polarization Energy =               0.0000000000000000
    EFP Energy =                            0.0000000000000000
    Total Energy =                       -382.6050950165320046
    Molecular point group: c1
  Basis Set: CC-PVTZ
  Basis Set:

  -Total Gradient:
     Atom            X                  Y                   Z
    ------   -----------------  -----------------  -----------------
       1       -0.000000270879    -0.000000905589     0.000004717908
       2       -0.000000567622     0.000013361765    -0.000013257782
       3        0.000005444718    -0.000006560938    -0.000009431913
       4       -0.000014905667    -0.000008812275     0.000011878547
       5       -0.000000842505     0.000000502970     0.000002196841
       6        0.000003712731    -0.000000636125     0.000021134447
       7        0.000000783936     0.000000575044     0.000000621784
       8       -0.000020366169    -0.000004416494    -0.001922867461
       9       -0.000000279435    -0.000002615892    -0.000005120196
      10        0.000014203866    -0.000252591764     0.003625310377
      11       -0.000005196941    -0.000000956858     0.000003855249
      12        0.000048589382     0.000846657065    -0.003305641654
      13       -0.000033559189    -0.000575575607     0.001593505120
      14       -0.000001068308    -0.000004973433     0.000000005779
      15        0.000000096656     0.000003432025    -0.000008987073
      16        0.000009580884    -0.000000951997     0.000000619144
      17       -0.000005355457    -0.000005531897     0.000001460883

  **** Optimization is complete! (in 8 steps) ****
    Final optimized geometry and variables:
    Molecular point group: c1

    Geometry (in Angstrom), charge = 0, multiplicity = 1:

    H           -3.642283415745     0.216037015974    -0.017420194329
    C           -2.570996436613     0.150051408736    -0.012801352673
    C           -1.953587399966    -1.089354871251    -0.024509265160
    C           -1.809100583263     1.300771523193     0.002887731139
    H           -2.545258321856    -1.984298951067    -0.037941474739
    C           -0.578154231454    -1.174065604517    -0.025747452861
    H           -2.284245425137     2.262697438243     0.005304996497
    C           -0.428974364526     1.213978520963     0.016109079120
    H           -0.088465182320    -2.126375599085    -0.050197836825
    C            0.197158386250    -0.021995551048     0.004585329141
    H            0.148958978158     2.116631638746     0.031696245619
    C            1.690791932232    -0.164484880309    -0.024179211473
    C            2.542829672443     1.005584204093     0.411949464073
    O            2.193013690774    -1.190658072474    -0.354263656042
    H            2.454035746360     1.825749363510    -0.291243671028
    H            3.572379646552     0.686641804779     0.451701961892
    H            2.229423961912     1.367422110695     1.383440461801

  Mulliken Charges: (a.u.)
   Center  Symbol    Alpha    Beta     Spin     Total
       1     H     0.42034  0.42034  0.00000  0.15931
       2     C     3.07382  3.07382  0.00000 -0.14763
       3     C     3.07279  3.07279  0.00000 -0.14558
       4     C     3.07521  3.07521  0.00000 -0.15043
       5     H     0.42038  0.42038  0.00000  0.15924
       6     C     3.07744  3.07744  0.00000 -0.15487
       7     H     0.42217  0.42217  0.00000  0.15566
       8     C     3.08711  3.08711  0.00000 -0.17421
       9     H     0.40844  0.40844  0.00000  0.18311
      10     C     3.00574  3.00574  0.00000 -0.01149
      11     H     0.42184  0.42184  0.00000  0.15632
      12     C     2.84174  2.84174  0.00000  0.31651
      13     C     3.16520  3.16520  0.00000 -0.33040
      14     O     4.18134  4.18134  0.00000 -0.36269
      15     H     0.44910  0.44910  0.00000  0.10180
      16     H     0.43217  0.43217  0.00000  0.13566
      17     H     0.44515  0.44515  0.00000  0.10969

   Total alpha = 32.00000, Total beta = 32.00000, Total charge =  0.00000

*** Psi4 exiting successfully. Buy a developer a beer!
