                              Psi4 1.0.54 Driver

  ==> Input File <==

--------------------------------------------------------------------------
set {
	reference rhf
	basis cc-pvtz
}

set_num_threads( 4 )
memory 2 gb

molecule MOL {
0 1

H	 -2.808528	 -0.314406	 -0.806616
O	 -2.313989	 -0.142475	 -0.025864
C	 -0.943808	 -0.065018	 -0.330000
H	 -0.812293	 -0.225641	 -1.398673
C	 -0.231030	 -1.182113	 0.407592
C	 -0.353797	 1.300461	 0.050970
H	 -0.312800	 -0.992012	 1.473041
H	 -0.738841	 -2.119564	 0.220514
C	 1.246176	 -1.268044	 -0.015480
H	 -0.539537	 2.008579	 -0.751815
H	 -0.889989	 1.662858	 0.920677
C	 1.153605	 1.231851	 0.356834
H	 1.823096	 -1.684665	 0.802361
H	 1.352335	 -1.958223	 -0.845114
C	 1.826409	 0.100723	 -0.416008
H	 1.622968	 2.181508	 0.128734
H	 1.301983	 1.066493	 1.419367
H	 2.897299	 0.112407	 -0.249665
H	 1.683458	 0.265621	 -1.480024

	symmetry c1
}
set optking {
	frozen_dihedral = ("
		1 2 3 4
	")
}

ee,wfn = optimize('scf', return_wfn=True)
oeprop( wfn, 'DIPOLE', 'QUADRUPOLE', 'MULLIKEN_CHARGES')
f=open( 'psi4out.xyz', 'w' )
f.write( "19  " )
f.write( str(ee) + "\n" )
f.write( MOL.save_string_xyz() )
f.close()
--------------------------------------------------------------------------

    Molecular point group: c1
  Charge       = 0
  Multiplicity = 1
  Basis Set: CC-PVTZ
  Basis Set:
  @DF-RHF Final Energy:  -309.16135218271239
    Total Energy =                       -309.1613521827126760
    Molecular point group: c1
  Basis Set: CC-PVTZ
  Basis Set:
  Basis Set: CC-PVTZ
  Basis Set:
  @DF-RHF Final Energy:  -309.16183902779545
    Total Energy =                       -309.1618390277951676
  Basis Set: CC-PVTZ
  Basis Set:
  Basis Set: CC-PVTZ
  Basis Set:
  @DF-RHF Final Energy:  -309.16196033550193
    Total Energy =                       -309.1619603355021582
  Basis Set: CC-PVTZ
  Basis Set:
  Basis Set: CC-PVTZ
  Basis Set:
  @DF-RHF Final Energy:  -309.16196228575632
    Total Energy =                       -309.1619622857562035
  Basis Set: CC-PVTZ
  Basis Set:
  Charge       = 0
  Multiplicity = 1
  Basis Set: CC-PVTZ
  Basis Set:

    Orbital Energies (a.u.)
    -----------------------

    Doubly Occupied:

       1A    -20.542287     2A    -11.268482     3A    -11.213354
       4A    -11.212590     5A    -11.211547     6A    -11.206502
       7A    -11.206403     8A     -1.361637     9A     -1.108851
      10A     -1.000734    11A     -0.989385    12A     -0.842569
      13A     -0.832874    14A     -0.731287    15A     -0.715144
      16A     -0.655327    17A     -0.625029    18A     -0.594914
      19A     -0.562396    20A     -0.545410    21A     -0.540844
      22A     -0.517109    23A     -0.497586    24A     -0.487960
      25A     -0.463945    26A     -0.449891    27A     -0.430394
      28A     -0.407668

  @DF-RHF Final Energy:  -309.16196250483608

   => Energetics <=

    Nuclear Repulsion Energy =            331.6166586377864860
    One-Electron Energy =               -1077.1130085574752684
    Two-Electron Energy =                 436.3343874148527561
    DFT Exchange-Correlation Energy =       0.0000000000000000
    Empirical Dispersion Energy =           0.0000000000000000
    PCM Polarization Energy =               0.0000000000000000
    EFP Energy =                            0.0000000000000000
    Total Energy =                       -309.1619625048360263
    Molecular point group: c1
  Basis Set: CC-PVTZ
  Basis Set:

  -Total Gradient:
     Atom            X                  Y                   Z
    ------   -----------------  -----------------  -----------------
       1       -0.000030001122     0.000393150159    -0.000061831482
       2        0.000049480249    -0.000579358575     0.000074913906
       3       -0.000050378679     0.000531065741    -0.000048190499
       4        0.000020226041    -0.000330172739     0.000052181280
       5        0.000020068127    -0.000000631618    -0.000012439433
       6        0.000013311638     0.000005275309    -0.000004714429
       7        0.000000788855    -0.000001500502    -0.000001018171
       8       -0.000001443440    -0.000005190722    -0.000000091454
       9       -0.000005144074    -0.000004723741     0.000016835691
      10        0.000005373772     0.000005997195    -0.000002726445
      11       -0.000000370538    -0.000012032348    -0.000002230078
      12        0.000001195149     0.000002436004    -0.000011723818
      13        0.000005769846    -0.000009008210     0.000003231052
      14       -0.000002941704     0.000003519497     0.000002850104
      15       -0.000013374910     0.000001059360    -0.000004047651
      16       -0.000005002513     0.000002926073     0.000000754273
      17       -0.000005972574    -0.000000887286     0.000000379443
      18       -0.000001037598    -0.000004822342     0.000000359264
      19       -0.000000546520     0.000002898745    -0.000002491556

  **** Optimization is complete! (in 5 steps) ****
    Final optimized geometry and variables:
    Molecular point group: c1

    Geometry (in Angstrom), charge = 0, multiplicity = 1:

    H           -2.833252906633    -0.249886954717    -0.784219678000
    O           -2.320198253901    -0.104593202191    -0.013162561584
    C           -0.945290056712    -0.074135766644    -0.327480893491
    H           -0.824141407740    -0.228469429144    -1.396750764993
    C           -0.213019368270    -1.192450066977     0.396489167564
    C           -0.366212795999     1.292279942492     0.057190059864
    H           -0.298808594552    -1.016332169261     1.464078399383
    H           -0.706651251365    -2.136501799749     0.200372200679
    C            1.266448523291    -1.255854524214    -0.024441632232
    H           -0.559111658369     1.998498109876    -0.743765003350
    H           -0.915565256092     1.645986991048     0.921020004443
    C            1.138900694942     1.236845267998     0.372248160174
    H            1.847833504987    -1.672154262354     0.790472013668
    H            1.383157221640    -1.937846682288    -0.859813558363
    C            1.828876598541     0.124035825400    -0.411466653464
    H            1.597987759542     2.195033095785     0.158969851675
    H            1.284810626249     1.059647227719     1.433436982753
    H            2.899686171720     0.147537737901    -0.245566057474
    H            1.683309307709     0.297989436369    -1.473966720023

  Mulliken Charges: (a.u.)
   Center  Symbol    Alpha    Beta     Spin     Total
       1     H     0.39157  0.39157  0.00000  0.21685
       2     O     4.20704  4.20704  0.00000 -0.41408
       3     C     2.92621  2.92621  0.00000  0.14759
       4     H     0.46815  0.46815  0.00000  0.06371
       5     C     3.09456  3.09456  0.00000 -0.18912
       6     C     3.10910  3.10910  0.00000 -0.21819
       7     H     0.45319  0.45319  0.00000  0.09363
       8     H     0.44621  0.44621  0.00000  0.10757
       9     C     3.11430  3.11430  0.00000 -0.22860
      10     H     0.45204  0.45204  0.00000  0.09592
      11     H     0.44459  0.44459  0.00000  0.11081
      12     C     3.10096  3.10096  0.00000 -0.20192
      13     H     0.44729  0.44729  0.00000  0.10541
      14     H     0.44820  0.44820  0.00000  0.10360
      15     C     3.10263  3.10263  0.00000 -0.20525
      16     H     0.44253  0.44253  0.00000  0.11495
      17     H     0.45326  0.45326  0.00000  0.09349
      18     H     0.44312  0.44312  0.00000  0.11376
      19     H     0.45506  0.45506  0.00000  0.08987

   Total alpha = 28.00000, Total beta = 28.00000, Total charge = -0.00000

*** Psi4 exiting successfully. Buy a developer a beer!
