  ==> Input File <==

--------------------------------------------------------------------------
set {
	reference rhf
	basis 6-31G*
}

set_num_threads( 4 )
memory 2 gb

molecule MOL {
0 1

H	 -3.420663	 1.227371	 -1.044276
O	 -3.452007	 0.283848	 -0.965577
C	 -3.181085	 -0.079926	 0.364119
C	 -1.765924	 0.277073	 0.805136
H	 -3.327791	 -1.152017	 0.410903
H	 -3.905698	 0.375695	 1.036898
C	 -0.677594	 -0.417312	 -0.014550
H	 -1.637766	 1.358238	 0.744969
H	 -1.659588	 0.017670	 1.857098
C	 0.738335	 -0.034840	 0.421385
H	 -0.814977	 -0.178223	 -1.064632
H	 -0.802730	 -1.495410	 0.071702
C	 1.822265	 -0.738362	 -0.399735
H	 0.853533	 1.043532	 0.342250
H	 0.871597	 -0.279636	 1.474438
C	 3.258060	 -0.455774	 0.057203
H	 1.718003	 -0.459167	 -1.447053
H	 1.651028	 -1.811884	 -0.354513
C	 4.218169	 -0.064963	 -1.067902
H	 3.643526	 -1.344794	 0.550507
H	 3.247574	 0.328392	 0.811642
H	 4.239843	 -0.825587	 -1.843866
H	 5.229529	 0.048511	 -0.689599
H	 3.938372	 0.874416	 -1.533138

	symmetry c1
}
set optking {
	frozen_dihedral = ("
		20 16 13 17
	")
}

ee = optimize('scf')
oeprop('DIPOLE', 'QUADRUPOLE', 'MULLIKEN_CHARGES')
f=open( 'psi4out.xyz', 'w' )
f.write( "24  " )
f.write( str(ee) + "\n" )
f.write( MOL.save_string_xyz() )
f.close()
--------------------------------------------------------------------------

    Molecular point group: c1
  Charge       = 0
  Multiplicity = 1
  Basis Set: 6-31G*
  Basis Set:
  @DF-RHF Final Energy:  -349.24360590161950
    Total Energy =                       -349.2436059016196737
    Molecular point group: c1
  Basis Set: 6-31G*
  Basis Set:
  Basis Set: 6-31G*
  Basis Set:
  @DF-RHF Final Energy:  -349.24401452784389
    Total Energy =                       -349.2440145278438877
  Basis Set: 6-31G*
  Basis Set:
  Basis Set: 6-31G*
  Basis Set:
  @DF-RHF Final Energy:  -349.24408519257099
    Total Energy =                       -349.2440851925711058
  Basis Set: 6-31G*
  Basis Set:
  Basis Set: 6-31G*
  Basis Set:
  @DF-RHF Final Energy:  -349.24408312957996
    Total Energy =                       -349.2440831295799057
  Basis Set: 6-31G*
  Basis Set:
  Basis Set: 6-31G*
  Basis Set:
  @DF-RHF Final Energy:  -349.24408737219471
    Total Energy =                       -349.2440873721947128
  Basis Set: 6-31G*
  Basis Set:
  Charge       = 0
  Multiplicity = 1
  Basis Set: 6-31G*
  Basis Set:

    Orbital Energies (a.u.)
    -----------------------

    Doubly Occupied:

       1A    -20.553604     2A    -11.267737     3A    -11.217542
       4A    -11.213416     5A    -11.213242     6A    -11.211050
       7A    -11.210958     8A    -11.207431     9A     -1.360204
      10A     -1.087424    11A     -1.047618    12A     -0.987895
      13A     -0.913246    14A     -0.842769    15A     -0.798238
      16A     -0.787747    17A     -0.679000    18A     -0.654534
      19A     -0.626956    20A     -0.614994    21A     -0.596429
      22A     -0.584206    23A     -0.551905    24A     -0.537379
      25A     -0.529187    26A     -0.504354    27A     -0.493551
      28A     -0.471962    29A     -0.468785    30A     -0.457508
      31A     -0.456400    32A     -0.452632    33A     -0.418117

  @DF-RHF Final Energy:  -349.24408758185723

   => Energetics <=

    Nuclear Repulsion Energy =            381.0393034507712855
    One-Electron Energy =               -1228.5307393490952563
    Two-Electron Energy =                 498.2473483164667982
    DFT Exchange-Correlation Energy =       0.0000000000000000
    Empirical Dispersion Energy =           0.0000000000000000
    PCM Polarization Energy =               0.0000000000000000
    EFP Energy =                            0.0000000000000000
    Total Energy =                       -349.2440875818571726
    Molecular point group: c1
  Basis Set: 6-31G*
  Basis Set:

  -Total Gradient:
     Atom            X                  Y                   Z
    ------   -----------------  -----------------  -----------------
       1        0.000000242015     0.000000419941    -0.000000765559
       2        0.000002143149     0.000000598498     0.000000757292
       3        0.000001092821    -0.000004786792    -0.000000277544
       4        0.000001941499    -0.000005116762     0.000004812872
       5       -0.000000975128    -0.000001255479     0.000001372256
       6        0.000001457535     0.000001331068    -0.000000601840
       7        0.000004590285     0.000022595331    -0.000003674738
       8       -0.000001350136    -0.000003274898    -0.000002605820
       9        0.000000897350     0.000001656340     0.000003741187
      10       -0.000011567208     0.000012287295    -0.000000339799
      11       -0.000005757074     0.000006957733    -0.000003280539
      12        0.000006792767     0.000000850144    -0.000002796980
      13       -0.000668228818     0.002616548110     0.000322500664
      14       -0.000002248125    -0.000002373948     0.000003624604
      15       -0.000005619693    -0.000007402436    -0.000006226835
      16       -0.000949321635     0.000493335689     0.002476881388
      17        0.000748918065    -0.002262189875    -0.000629792995
      18        0.000036979180    -0.000018436028     0.000023280578
      19        0.000010273425     0.000022900391    -0.000023011521
      20        0.000846633669    -0.000864135572    -0.002157343725
      21       -0.000024365402    -0.000005841986    -0.000006036591
      22        0.000001915268    -0.000008655095     0.000006489612
      23       -0.000005798411     0.000005888940    -0.000006851302
      24        0.000011354600    -0.000001900610     0.000000145334

  **** Optimization is complete! (in 6 steps) ****
    Final optimized geometry and variables:
    Molecular point group: c1

    Geometry (in Angstrom), charge = 0, multiplicity = 1:

    H           -3.454350459845     1.411085535638    -0.915152663128
    O           -3.500560840853     0.466892520534    -0.854241147009
    C           -3.246069812926     0.074634565829     0.470603570324
    C           -1.829238664100     0.401613739802     0.929176901877
    H           -3.409347466539    -0.995683053955     0.496273757544
    H           -3.969094769022     0.528770247087     1.146018779990
    C           -0.744965976221    -0.292533995705     0.103848289990
    H           -1.684587899249     1.481687567328     0.891345067351
    H           -1.734828104680     0.119946631650     1.976537833881
    C            0.672202446738     0.061815607849     0.555749596505
    H           -0.871906649115    -0.032573204999    -0.942597150135
    H           -0.885222302485    -1.370290271587     0.169519649747
    C            1.759549433941    -0.634556497119    -0.264358773793
    H            0.813418863698     1.139910386607     0.492228690514
    H            0.794745880649    -0.198184613223     1.606242845204
    C            3.195910591921    -0.302830366882     0.195909781754
    H            1.641763654716    -0.378791908628    -1.315110526517
    H            1.602868241775    -1.709742118689    -0.214552779825
    C            4.125349710692     0.079795166026    -0.957511869234
    H            3.623720132096    -1.160082899429     0.708034063642
    H            3.176212020869     0.509655619932     0.917519273349
    H            4.192691625679    -0.722038986338    -1.687546687527
    H            5.129952658522     0.289186897062    -0.602383633861
    H            3.763971002116     0.964935815795    -1.473674710230

  Mulliken Charges: (a.u.)
   Center  Symbol    Alpha    Beta     Spin     Total
       1     H     0.28338  0.28338  0.00000  0.43323
       2     O     4.36829  4.36829  0.00000 -0.73658
       3     C     2.99613  2.99613  0.00000  0.00775
       4     C     3.16907  3.16907  0.00000 -0.33813
       5     H     0.41633  0.41633  0.00000  0.16735
       6     H     0.42814  0.42814  0.00000  0.14371
       7     C     3.15281  3.15281  0.00000 -0.30562
       8     H     0.42824  0.42824  0.00000  0.14353
       9     H     0.42231  0.42231  0.00000  0.15538
      10     C     3.15341  3.15341  0.00000 -0.30681
      11     H     0.41194  0.41194  0.00000  0.17611
      12     H     0.42348  0.42348  0.00000  0.15304
      13     C     3.15470  3.15470  0.00000 -0.30939
      14     H     0.42496  0.42496  0.00000  0.15008
      15     H     0.42434  0.42434  0.00000  0.15131
      16     C     3.15428  3.15428  0.00000 -0.30857
      17     H     0.42053  0.42053  0.00000  0.15895
      18     H     0.42144  0.42144  0.00000  0.15713
      19     C     3.23983  3.23983  0.00000 -0.47967
      20     H     0.42072  0.42072  0.00000  0.15856
      21     H     0.42086  0.42086  0.00000  0.15828
      22     H     0.42144  0.42144  0.00000  0.15711
      23     H     0.42106  0.42106  0.00000  0.15787
      24     H     0.42230  0.42230  0.00000  0.15539

   Total alpha = 33.00000, Total beta = 33.00000, Total charge = -0.00000
