                              Psi4 1.0.54 Driver

  ==> Input File <==

--------------------------------------------------------------------------
set {
	reference rhf
	basis cc-pvtz
}

set_num_threads( 4 )
memory 2 gb

molecule MOL {
0 1

O	 -2.081319	 -0.951530	 -0.502732
N	 -1.613558	 0.006676	 0.014756
C	 -0.329345	 -0.171618	 0.743966
O	 -2.068523	 1.100482	 -0.024385
C	 0.835904	 0.041968	 -0.213982
H	 -0.346048	 -1.174374	 1.137184
H	 -0.333613	 0.555559	 1.538590
C	 1.971828	 -0.938994	 0.064505
H	 0.482104	 -0.079622	 -1.231135
H	 1.192570	 1.060419	 -0.112571
C	 3.154893	 -0.741710	 -0.876727
H	 1.601633	 -1.955742	 -0.028325
H	 2.304300	 -0.823989	 1.091950
H	 2.859777	 -0.883748	 -1.910375
H	 3.566199	 0.257203	 -0.783361
H	 3.946053	 -1.448196	 -0.657401

	symmetry c1
}
set optking {
	frozen_dihedral = ("
		9 5 3 2
	")
}

ee,wfn = optimize('scf', return_wfn=True)
oeprop( wfn, 'DIPOLE', 'QUADRUPOLE', 'MULLIKEN_CHARGES')
f=open( 'psi4out.xyz', 'w' )
f.write( "16  " )
f.write( str(ee) + "\n" )
f.write( MOL.save_string_xyz() )
f.close()
--------------------------------------------------------------------------

    Molecular point group: c1
  Charge       = 0
  Multiplicity = 1
  Basis Set: CC-PVTZ
  Basis Set:
  @DF-RHF Final Energy:  -360.90551428014822
    Total Energy =                       -360.9055142801481111
    Molecular point group: c1
  Basis Set: CC-PVTZ
  Basis Set:
  Basis Set: CC-PVTZ
  Basis Set:
  @DF-RHF Final Energy:  -360.90376578317967
    Total Energy =                       -360.9037657831795514
  Basis Set: CC-PVTZ
  Basis Set:
  Basis Set: CC-PVTZ
  Basis Set:
  @DF-RHF Final Energy:  -360.90237982514378
    Total Energy =                       -360.9023798251436119
  Basis Set: CC-PVTZ
  Basis Set:
  Basis Set: CC-PVTZ
  Basis Set:
  @DF-RHF Final Energy:  -360.90561540127339
    Total Energy =                       -360.9056154012729394
  Basis Set: CC-PVTZ
  Basis Set:
  @DF-RHF Final Energy:  -360.90570261941599
    Total Energy =                       -360.9057026194159903
  Basis Set: CC-PVTZ
  Basis Set:
  @DF-RHF Final Energy:  -360.90585893488492
    Total Energy =                       -360.9058589348848045
  Basis Set: CC-PVTZ
  Basis Set:
  Basis Set: CC-PVTZ
  Basis Set:
  @DF-RHF Final Energy:  -360.90586183638334
    Total Energy =                       -360.9058618363833375
  Basis Set: CC-PVTZ
  Basis Set:
  Basis Set: CC-PVTZ
  Basis Set:
  @DF-RHF Final Energy:  -360.90586654754435
    Total Energy =                       -360.9058665475444627
  Basis Set: CC-PVTZ
  Basis Set:
  Charge       = 0
  Multiplicity = 1
  Basis Set: CC-PVTZ
  Basis Set:

    Orbital Energies (a.u.)
    -----------------------

    Doubly Occupied:

       1A    -20.589952     2A    -20.589362     3A    -15.836204
       4A    -11.296307     5A    -11.251494     6A    -11.240652
       7A    -11.225117     8A     -1.635258     9A     -1.419482
      10A     -1.134766    11A     -1.059960    12A     -0.948446
      13A     -0.844550    14A     -0.829239    15A     -0.759752
      16A     -0.737054    17A     -0.728038    18A     -0.669769
      19A     -0.622392    20A     -0.606648    21A     -0.565061
      22A     -0.546607    23A     -0.513548    24A     -0.503688
      25A     -0.495162    26A     -0.483894    27A     -0.470657
      28A     -0.452934

  @DF-RHF Final Energy:  -360.90586664228852

   => Energetics <=

    Nuclear Repulsion Energy =            313.4812694561678654
    One-Electron Energy =               -1112.6622919362255288
    Two-Electron Energy =                 438.2751558377689776
    DFT Exchange-Correlation Energy =       0.0000000000000000
    Empirical Dispersion Energy =           0.0000000000000000
    PCM Polarization Energy =               0.0000000000000000
    EFP Energy =                            0.0000000000000000
    Total Energy =                       -360.9058666422886859
    Molecular point group: c1
  Basis Set: CC-PVTZ
  Basis Set:

  -Total Gradient:
     Atom            X                  Y                   Z
    ------   -----------------  -----------------  -----------------
       1        0.000009794154    -0.000017715299    -0.000001847229
       2       -0.000134391588    -0.002644047634    -0.000591587224
       3        0.000033914283     0.004447005308     0.000755013638
       4        0.000000744755    -0.000013889024     0.000000257837
       5        0.000753087084    -0.005478691409     0.000033783020
       6        0.000001214557    -0.000008682062     0.000004471722
       7       -0.000008251140    -0.000001441587    -0.000011777569
       8       -0.000014956876    -0.000011668260    -0.000006994816
       9       -0.000639898509     0.003717734380    -0.000180342522
      10        0.000000475579     0.000003981105    -0.000000350879
      11        0.000003810885     0.000009631951     0.000002998259
      12        0.000000112095    -0.000002049515     0.000001644081
      13       -0.000002652779     0.000001539923    -0.000010403691
      14       -0.000002143441    -0.000001702071     0.000006466682
      15       -0.000001674677    -0.000000749552    -0.000002837306
      16        0.000000815612     0.000000743745     0.000001505998

  **** Optimization is complete! (in 9 steps) ****
    Final optimized geometry and variables:
    Molecular point group: c1

    Geometry (in Angstrom), charge = 0, multiplicity = 1:

    O           -2.068230162438    -0.655109492539    -0.381515278399
    N           -1.559946624353     0.286213143552     0.129135088260
    C           -0.284235044278     0.058017628996     0.857152463521
    O           -1.967281208390     1.398328030667     0.080103687609
    C            0.901277723357     0.214692793498    -0.105081860768
    H           -0.353167718793    -0.946537331452     1.239252947049
    H           -0.260245888913     0.771114351314     1.662724202212
    C            2.021401470647    -0.777043575056     0.191599917912
    H            0.553918561432     0.103079463565    -1.125127740544
    H            1.277351805678     1.228171249968    -0.031280692297
    C            3.232868349364    -0.577478069184    -0.711400818857
    H            1.641876539663    -1.787205836602     0.075219466934
    H            2.324442248120    -0.678521091130     1.230517806065
    H            2.964873182233    -0.696851629978    -1.755345314470
    H            3.654740394238     0.413952213651    -0.588554718918
    H            4.008437553407    -1.298423712316    -0.483628977257

  Mulliken Charges: (a.u.)
   Center  Symbol    Alpha    Beta     Spin     Total
       1     O     4.17357  4.17357  0.00000 -0.34714
       2     N     3.27908  3.27908  0.00000  0.44184
       3     C     3.03958  3.03958  0.00000 -0.07916
       4     O     4.17261  4.17261  0.00000 -0.34522
       5     C     3.09621  3.09621  0.00000 -0.19242
       6     H     0.43628  0.43628  0.00000  0.12744
       7     H     0.43216  0.43216  0.00000  0.13568
       8     C     3.09226  3.09226  0.00000 -0.18452
       9     H     0.43868  0.43868  0.00000  0.12264
      10     H     0.44277  0.44277  0.00000  0.11446
      11     C     3.14937  3.14937  0.00000 -0.29873
      12     H     0.44731  0.44731  0.00000  0.10537
      13     H     0.45094  0.45094  0.00000  0.09812
      14     H     0.45114  0.45114  0.00000  0.09772
      15     H     0.45288  0.45288  0.00000  0.09424
      16     H     0.44516  0.44516  0.00000  0.10967

   Total alpha = 28.00000, Total beta = 28.00000, Total charge = -0.00000

*** Psi4 exiting successfully. Buy a developer a beer!
