                              Psi4 1.0.54 Driver

  ==> Input File <==

--------------------------------------------------------------------------
set {
	reference rhf
	basis cc-pvtz
}

set_num_threads( 4 )
memory 2 gb

molecule MOL {
0 1

O	 -0.694481	 1.313155	 -0.204815
C	 -0.862519	 0.151932	 -0.046791
C	 -2.171428	 -0.477048	 0.339095
O	 0.085519	 -0.757083	 -0.192238
H	 -2.467997	 -1.191667	 -0.417688
H	 -2.923379	 0.287970	 0.444097
H	 -2.053854	 -1.015120	 1.270901
C	 1.432991	 -0.390789	 0.080942
C	 1.761134	 -0.521199	 1.553767
H	 1.605633	 0.615203	 -0.268330
H	 2.026886	 -1.074117	 -0.507363
H	 2.810291	 -0.299107	 1.713131
H	 1.174277	 0.169867	 2.143181
H	 1.570113	 -1.529598	 1.900516

	symmetry c1
}
set optking {
	frozen_dihedral = ("
		8 4 2 1
	")
}

ee,wfn = optimize('scf', return_wfn=True)
oeprop( wfn, 'DIPOLE', 'QUADRUPOLE', 'MULLIKEN_CHARGES')
f=open( 'psi4out.xyz', 'w' )
f.write( "14  " )
f.write( str(ee) + "\n" )
f.write( MOL.save_string_xyz() )
f.close()
--------------------------------------------------------------------------

    Molecular point group: c1
  Charge       = 0
  Multiplicity = 1
  Basis Set: CC-PVTZ
  Basis Set:
  @DF-RHF Final Energy:  -305.98639341566047
    Total Energy =                       -305.9863934156605296
    Molecular point group: c1
  Basis Set: CC-PVTZ
  Basis Set:
  Basis Set: CC-PVTZ
  Basis Set:
  @DF-RHF Final Energy:  -305.88302453594281
    Total Energy =                       -305.8830245359428659
  Basis Set: CC-PVTZ
  Basis Set:
  Basis Set: CC-PVTZ
  Basis Set:
  @DF-RHF Final Energy:  -305.88376961815800
    Total Energy =                       -305.8837696181578849
  Basis Set: CC-PVTZ
  Basis Set:
  Basis Set: CC-PVTZ
  Basis Set:
  @DF-RHF Final Energy:  -305.91380663877777
    Total Energy =                       -305.9138066387779418
  Basis Set: CC-PVTZ
  Basis Set:
  @DF-RHF Final Energy:  -305.89518534944312
    Total Energy =                       -305.8951853494431248
  @DF-RHF Final Energy:  -305.96016084352618
    Total Energy =                       -305.9601608435262960
  @DF-RHF Final Energy:  -305.97046886687701
    Total Energy =                       -305.9704688668771837
  @DF-RHF Final Energy:  -305.98617610588656
    Total Energy =                       -305.9861761058865568
  @DF-RHF Final Energy:  -305.98671435770405
    Total Energy =                       -305.9867143577043862
  @DF-RHF Final Energy:  -305.98657008549173
    Total Energy =                       -305.9865700854918487
  @DF-RHF Final Energy:  -305.98689063767199
    Total Energy =                       -305.9868906376722748
  Basis Set: CC-PVTZ
  Basis Set:
  @DF-RHF Final Energy:  -305.98694183041295
    Total Energy =                       -305.9869418304128885
  Basis Set: CC-PVTZ
  Basis Set:
  Basis Set: CC-PVTZ
  Basis Set:
  @DF-RHF Final Energy:  -305.98696590659972
    Total Energy =                       -305.9869659065994938
  Basis Set: CC-PVTZ
  Basis Set:
  Basis Set: CC-PVTZ
  Basis Set:
  @DF-RHF Final Energy:  -305.98697444394406
    Total Energy =                       -305.9869744439438932
  Basis Set: CC-PVTZ
  Basis Set:
  Charge       = 0
  Multiplicity = 1
  Basis Set: CC-PVTZ
  Basis Set:

    Orbital Energies (a.u.)
    -----------------------

    Doubly Occupied:

       1A    -20.589918     2A    -20.535283     3A    -11.368437
       4A    -11.284452     5A    -11.231943     6A    -11.222004
       7A     -1.467602     8A     -1.366381     9A     -1.054981
      10A     -1.002741    11A     -0.885159    12A     -0.764582
      13A     -0.699858    14A     -0.685697    15A     -0.664713
      16A     -0.614041    17A     -0.589618    18A     -0.571908
      19A     -0.558541    20A     -0.534104    21A     -0.521130
      22A     -0.494905    23A     -0.454711    24A     -0.441180

  @DF-RHF Final Energy:  -305.98697542722857

   => Energetics <=

    Nuclear Repulsion Energy =            249.2866147869781628
    One-Electron Energy =                -911.3394048815375754
    Two-Electron Energy =                 356.0658146673308693
    DFT Exchange-Correlation Energy =       0.0000000000000000
    Empirical Dispersion Energy =           0.0000000000000000
    PCM Polarization Energy =               0.0000000000000000
    EFP Energy =                            0.0000000000000000
    Total Energy =                       -305.9869754272285718
    Molecular point group: c1
  Basis Set: CC-PVTZ
  Basis Set:

  -Total Gradient:
     Atom            X                  Y                   Z
    ------   -----------------  -----------------  -----------------
       1       -0.003417714625     0.006481712022    -0.003175500280
       2        0.005625720488    -0.012933722249     0.004405814295
       3        0.000014001725    -0.000004683540     0.000016502351
       4       -0.003555816915     0.012521745879    -0.000781369327
       5        0.000012060455     0.000003783867     0.000049177452
       6        0.000007488167    -0.000008659037    -0.000019155764
       7       -0.000015538825     0.000049440291     0.000003331661
       8        0.001333517094    -0.006090502436    -0.000537081870
       9       -0.000033516447    -0.000015634162     0.000013706642
      10       -0.000007248834    -0.000037661919    -0.000036745311
      11        0.000023529911     0.000009220726     0.000033506433
      12       -0.000001925864    -0.000001544328     0.000010644705
      13        0.000027342897    -0.000005980464    -0.000006245095
      14       -0.000011899229     0.000032485350     0.000023414109

  **** Optimization is complete! (in 15 steps) ****
    Final optimized geometry and variables:
    Molecular point group: c1

    Geometry (in Angstrom), charge = 0, multiplicity = 1:

    O           -1.078374141691     0.462824754192     1.077055296295
    C           -0.866869866044     0.083615259415    -0.022481888904
    C           -1.843979866727    -0.690088027226    -0.860158191988
    O            0.241826894327     0.364160548333    -0.697805372381
    H           -1.975830096836    -0.198083247419    -1.814528611884
    H           -2.786485946574    -0.769568300988    -0.343230226871
    H           -1.443670890664    -1.677864250034    -1.053495529880
    C            1.449126130527     0.562837501798     0.026921452139
    C            2.057352092211    -0.755751030422     0.458055349613
    H            1.257431849241     1.201727229604     0.875034149794
    H            2.101967574232     1.082243233193    -0.657951918930
    H            3.004619785068    -0.575077328307     0.952914698803
    H            1.410437314666    -1.274388884039     1.154726521852
    H            2.234730168015    -1.395689647787    -0.397532051780

  Mulliken Charges: (a.u.)
   Center  Symbol    Alpha    Beta     Spin     Total
       1     O     4.19302  4.19302  0.00000 -0.38604
       2     C     2.80094  2.80094  0.00000  0.39812
       3     C     3.13704  3.13704  0.00000 -0.27407
       4     O     4.16331  4.16331  0.00000 -0.32662
       5     H     0.44410  0.44410  0.00000  0.11181
       6     H     0.43833  0.43833  0.00000  0.12334
       7     H     0.44884  0.44884  0.00000  0.10232
       8     C     2.98661  2.98661  0.00000  0.02678
       9     C     3.14944  3.14944  0.00000 -0.29889
      10     H     0.44546  0.44546  0.00000  0.10908
      11     H     0.44507  0.44507  0.00000  0.10985
      12     H     0.44953  0.44953  0.00000  0.10094
      13     H     0.44734  0.44734  0.00000  0.10532
      14     H     0.45097  0.45097  0.00000  0.09806

   Total alpha = 24.00000, Total beta = 24.00000, Total charge =  0.00000

*** Psi4 exiting successfully. Buy a developer a beer!
