  ==> Input File <==

--------------------------------------------------------------------------
set {
	reference rhf
	basis 6-31G*
}

set_num_threads( 4 )
memory 2 gb

molecule MOL {
0 1

H	 -3.420663	 1.227371	 -1.044276
O	 -3.452007	 0.283848	 -0.965577
C	 -3.181085	 -0.079926	 0.364119
C	 -1.765924	 0.277073	 0.805136
H	 -3.327791	 -1.152017	 0.410903
H	 -3.905698	 0.375695	 1.036898
C	 -0.677594	 -0.417312	 -0.014550
H	 -1.637766	 1.358238	 0.744969
H	 -1.659588	 0.017670	 1.857098
C	 0.738335	 -0.034840	 0.421385
H	 -0.814977	 -0.178223	 -1.064632
H	 -0.802730	 -1.495410	 0.071702
C	 1.822126	 -0.773636	 -0.368337
H	 0.864591	 1.039430	 0.309931
H	 0.860571	 -0.248118	 1.482599
C	 3.256782	 -0.490531	 0.091847
H	 1.729173	 -0.526071	 -1.424636
H	 1.640161	 -1.843583	 -0.291405
C	 3.723329	 0.949426	 -0.130102
H	 3.927658	 -1.159792	 -0.441356
H	 3.352646	 -0.742739	 1.146079
H	 3.626920	 1.233987	 -1.174549
H	 4.766770	 1.063675	 0.147417
H	 3.151140	 1.657668	 0.459946

	symmetry c1
}
set optking {
	frozen_dihedral = ("
		13 10 7 11
	")
}

ee = optimize('scf')
oeprop('DIPOLE', 'QUADRUPOLE', 'MULLIKEN_CHARGES')
f=open( 'psi4out.xyz', 'w' )
f.write( "24  " )
f.write( str(ee) + "\n" )
f.write( MOL.save_string_xyz() )
f.close()
--------------------------------------------------------------------------

    Molecular point group: c1
  Charge       = 0
  Multiplicity = 1
  Basis Set: 6-31G*
  Basis Set:
  @DF-RHF Final Energy:  -349.24761539294627
    Total Energy =                       -349.2476153929468410
    Molecular point group: c1
  Basis Set: 6-31G*
  Basis Set:
  Basis Set: 6-31G*
  Basis Set:
  @DF-RHF Final Energy:  -349.24761414022896
    Total Energy =                       -349.2476141402289613
  Basis Set: 6-31G*
  Basis Set:
  Basis Set: 6-31G*
  Basis Set:
  @DF-RHF Final Energy:  -349.24761682870900
    Total Energy =                       -349.2476168287088285
  Basis Set: 6-31G*
  Basis Set:
  Charge       = 0
  Multiplicity = 1
  Basis Set: 6-31G*
  Basis Set:

    Orbital Energies (a.u.)
    -----------------------

    Doubly Occupied:

       1A    -20.553574     2A    -11.267693     3A    -11.217443
       4A    -11.214082     5A    -11.212460     6A    -11.211598
       7A    -11.211124     8A    -11.207377     9A     -1.360174
      10A     -1.088565    11A     -1.048319    12A     -0.985627
      13A     -0.915034    14A     -0.850444    15A     -0.800745
      16A     -0.776245    17A     -0.679070    18A     -0.653976
      19A     -0.625169    20A     -0.619899    21A     -0.596679
      22A     -0.584375    23A     -0.558259    24A     -0.540400
      25A     -0.514831    26A     -0.509440    27A     -0.498979
      28A     -0.473127    29A     -0.467405    30A     -0.459653
      31A     -0.455120    32A     -0.450965    33A     -0.419024

  @DF-RHF Final Energy:  -349.24761768537257

   => Energetics <=

    Nuclear Repulsion Energy =            384.4613466524961041
    One-Electron Energy =               -1235.3641775516684902
    Two-Electron Energy =                 501.6552132137996978
    DFT Exchange-Correlation Energy =       0.0000000000000000
    Empirical Dispersion Energy =           0.0000000000000000
    PCM Polarization Energy =               0.0000000000000000
    EFP Energy =                            0.0000000000000000
    Total Energy =                       -349.2476176853726884
    Molecular point group: c1
  Basis Set: 6-31G*
  Basis Set:

  -Total Gradient:
     Atom            X                  Y                   Z
    ------   -----------------  -----------------  -----------------
       1       -0.000000957466    -0.000009219767     0.000000161221
       2       -0.000022694821     0.000024203399     0.000013119436
       3       -0.000008777036    -0.000038288903    -0.000004343347
       4        0.000026752089     0.000039951235    -0.000053723130
       5        0.000005682259     0.000021149842    -0.000005495451
       6        0.000009277636    -0.000011055429    -0.000007410879
       7        0.000199795393    -0.000705695833    -0.000056465033
       8       -0.000002744163     0.000012881955    -0.000000957021
       9        0.000002221332     0.000008101388    -0.000008166982
      10       -0.000035464957     0.000507422174    -0.000332512290
      11       -0.000147311218     0.000453186442     0.000138663155
      12       -0.000029405100    -0.000009123184     0.000042229022
      13       -0.000010475969    -0.000256259769     0.000241374560
      14       -0.000025204559    -0.000000226408     0.000040257386
      15        0.000044253895    -0.000038165346    -0.000012096432
      16        0.000023527118    -0.000011757376    -0.000019621611
      17        0.000005356223    -0.000017194151    -0.000001982119
      18       -0.000024662295     0.000012687211     0.000012059555
      19       -0.000011379542     0.000008196206     0.000010162553
      20       -0.000007686078     0.000020338029    -0.000004980642
      21        0.000015334376    -0.000016788739    -0.000000408835
      22        0.000011997998    -0.000007399487     0.000009471329
      23       -0.000002606695     0.000004914828     0.000009380782
      24       -0.000014828418     0.000008141684    -0.000008715226

  **** Optimization is complete! (in 4 steps) ****
    Final optimized geometry and variables:
    Molecular point group: c1

    Geometry (in Angstrom), charge = 0, multiplicity = 1:

    H           -3.413426177744     1.252556096753    -1.050469694277
    O           -3.448317651747     0.308859512789    -0.976026697780
    C           -3.182840756917    -0.061607569622     0.352940432560
    C           -1.767449254769     0.287532780543     0.799637251221
    H           -3.334085489689    -1.133158349201     0.394690068771
    H           -3.907537766196     0.394084443701     1.025474613225
    C           -0.679566996276    -0.410279566962    -0.018020562095
    H           -1.634039363825     1.368239365434     0.742305814466
    H           -1.665941398161     0.025301266214     1.851360702444
    C            0.736092988360    -0.027524227358     0.418586512777
    H           -0.816623789212    -0.169217508968    -1.067657125535
    H           -0.806939040677    -1.487916187444     0.069471471668
    C            1.820864334545    -0.763784447604    -0.372156376709
    H            0.860516167002     1.047267710428     0.311759574548
    H            0.859192152306    -0.245287624115     1.478886388192
    C            3.255502389877    -0.474048211803     0.083997169940
    H            1.724751095063    -0.519704394374    -1.428992364327
    H            1.642835907436    -1.834110898463    -0.291758771695
    C            3.715854859062     0.967272377618    -0.141928780354
    H            3.927704365772    -1.141642355734    -0.449504053762
    H            3.354884145280    -0.723837737439     1.138502431244
    H            3.618311994352     1.248458587972    -1.187151469702
    H            4.758808215957     1.086712864242     0.135262277802
    H            3.140626154211     1.674747037366     0.446040920678

  Mulliken Charges: (a.u.)
   Center  Symbol    Alpha    Beta     Spin     Total
       1     H     0.28339  0.28339  0.00000  0.43323
       2     O     4.36831  4.36831  0.00000 -0.73662
       3     C     2.99617  2.99617  0.00000  0.00766
       4     C     3.16899  3.16899  0.00000 -0.33799
       5     H     0.41633  0.41633  0.00000  0.16735
       6     H     0.42816  0.42816  0.00000  0.14367
       7     C     3.15181  3.15181  0.00000 -0.30362
       8     H     0.42837  0.42837  0.00000  0.14326
       9     H     0.42238  0.42238  0.00000  0.15524
      10     C     3.15363  3.15363  0.00000 -0.30727
      11     H     0.41196  0.41196  0.00000  0.17609
      12     H     0.42359  0.42359  0.00000  0.15282
      13     C     3.15221  3.15221  0.00000 -0.30443
      14     H     0.42280  0.42280  0.00000  0.15440
      15     H     0.42559  0.42559  0.00000  0.14882
      16     C     3.15231  3.15231  0.00000 -0.30462
      17     H     0.42362  0.42362  0.00000  0.15275
      18     H     0.42209  0.42209  0.00000  0.15582
      19     C     3.24102  3.24102  0.00000 -0.48205
      20     H     0.42105  0.42105  0.00000  0.15790
      21     H     0.42380  0.42380  0.00000  0.15239
      22     H     0.42226  0.42226  0.00000  0.15549
      23     H     0.41954  0.41954  0.00000  0.16091
      24     H     0.42060  0.42060  0.00000  0.15880

   Total alpha = 33.00000, Total beta = 33.00000, Total charge = -0.00000
