                              Psi4 1.0.54 Driver

  ==> Input File <==

--------------------------------------------------------------------------
set {
	reference rhf
	basis cc-pvtz
}

set_num_threads( 4 )
memory 2 gb

molecule MOL {
0 1

H	 -3.629351	 1.440384	 0.038039
C	 -3.058093	 0.618242	 0.417587
C	 -1.942730	 0.277559	 -0.180113
H	 -3.415550	 0.094491	 1.282288
O	 -1.189946	 -0.765863	 0.237511
H	 -1.570931	 0.800792	 -1.042157
C	 0.026572	 -0.995256	 -0.379403
C	 1.057223	 0.049888	 -0.004615
H	 -0.054361	 -1.010670	 -1.459674
H	 0.397526	 -1.952058	 -0.044198
F	 2.203233	 -0.234060	 -0.590375
F	 0.698147	 1.254887	 -0.392621
F	 1.266440	 0.094219	 1.288722

	symmetry c1
}
set optking {
	frozen_dihedral = ("
		3 5 7 9
	")
}

ee,wfn = optimize('scf', return_wfn=True)
oeprop( wfn, 'DIPOLE', 'QUADRUPOLE', 'MULLIKEN_CHARGES')
f=open( 'psi4out.xyz', 'w' )
f.write( "13  " )
f.write( str(ee) + "\n" )
f.write( MOL.save_string_xyz() )
f.close()
--------------------------------------------------------------------------

    Molecular point group: c1
  Charge       = 0
  Multiplicity = 1
  Basis Set: CC-PVTZ
  Basis Set:
  @DF-RHF Final Energy:  -527.74042327225141
    Total Energy =                       -527.7404232722510642
    Molecular point group: c1
  Basis Set: CC-PVTZ
  Basis Set:
  Basis Set: CC-PVTZ
  Basis Set:
  @DF-RHF Final Energy:  -527.74107772419029
    Total Energy =                       -527.7410777241898359
  Basis Set: CC-PVTZ
  Basis Set:
  Basis Set: CC-PVTZ
  Basis Set:
  @DF-RHF Final Energy:  -527.74123740973903
    Total Energy =                       -527.7412374097394832
  Basis Set: CC-PVTZ
  Basis Set:
  Basis Set: CC-PVTZ
  Basis Set:
  @DF-RHF Final Energy:  -527.74127040265921
    Total Energy =                       -527.7412704026590973
  Basis Set: CC-PVTZ
  Basis Set:
  Basis Set: CC-PVTZ
  Basis Set:
  @DF-RHF Final Energy:  -527.74127460061015
    Total Energy =                       -527.7412746006103816
  Basis Set: CC-PVTZ
  Basis Set:
  Charge       = 0
  Multiplicity = 1
  Basis Set: CC-PVTZ
  Basis Set:

    Orbital Energies (a.u.)
    -----------------------

    Doubly Occupied:

       1A    -26.342401     2A    -26.341778     3A    -26.338986
       4A    -20.603293     5A    -11.499280     6A    -11.319575
       7A    -11.296869     8A    -11.214113     9A     -1.751591
      10A     -1.647806    11A     -1.646470    12A     -1.443138
      13A     -1.086805    14A     -1.021455    15A     -0.933103
      16A     -0.844027    17A     -0.840163    18A     -0.832009
      19A     -0.792480    20A     -0.728363    21A     -0.719434
      22A     -0.702335    23A     -0.681460    24A     -0.669281
      25A     -0.662367    26A     -0.651830    27A     -0.643760
      28A     -0.589618    29A     -0.565969    30A     -0.527750
      31A     -0.512847    32A     -0.357941

  @DF-RHF Final Energy:  -527.74127542859424

   => Energetics <=

    Nuclear Repulsion Energy =            415.5250598998200644
    One-Electron Energy =               -1554.9160782284657216
    Two-Electron Energy =                 611.6497429000512511
    DFT Exchange-Correlation Energy =       0.0000000000000000
    Empirical Dispersion Energy =           0.0000000000000000
    PCM Polarization Energy =               0.0000000000000000
    EFP Energy =                            0.0000000000000000
    Total Energy =                       -527.7412754285944629
    Molecular point group: c1
  Basis Set: CC-PVTZ
  Basis Set:

  -Total Gradient:
     Atom            X                  Y                   Z
    ------   -----------------  -----------------  -----------------
       1       -0.000002598837    -0.000018296099    -0.000004488806
       2        0.000036135196    -0.000035695170    -0.000044213626
       3        0.000950374303     0.001500974900     0.001611762396
       4        0.000003779221     0.000001438392    -0.000015540764
       5       -0.001460054333    -0.002916783673    -0.002326025282
       6       -0.000051069539    -0.000014377136     0.000023754750
       7        0.000829282810     0.004132912418     0.000715499007
       8        0.000033715473     0.000107694572    -0.000073123971
       9       -0.000321243343    -0.002716512494     0.000052153410
      10       -0.000008397200     0.000026574875    -0.000002956951
      11       -0.000091381521    -0.000017771588     0.000100388109
      12        0.000024220673     0.000018711197    -0.000040485911
      13        0.000057237109    -0.000068870195     0.000003277636

  **** Optimization is complete! (in 6 steps) ****
    Final optimized geometry and variables:
    Molecular point group: c1

    Geometry (in Angstrom), charge = 0, multiplicity = 1:

    H           -3.704449650384     1.298379334365     0.064283527964
    C           -3.065425162507     0.528262040009     0.445148589596
    C           -2.040137776043     0.128937626508    -0.266005671429
    H           -3.285195230458     0.099673294373     1.403213800678
    O           -1.228528634288    -0.875541191311     0.142477608550
    H           -1.804306075670     0.554065647913    -1.224460434205
    C            0.002333152456    -1.025409253486    -0.470202247827
    C            1.021464257548     0.019123941214    -0.059122129818
    H           -0.074522999387    -1.030734402859    -1.551974591604
    H            0.394779923591    -1.981155240356    -0.158132147579
    F            2.182371870427    -0.271970079675    -0.610351658283
    F            0.690512738477     1.231279711594    -0.451127358766
    F            1.189109286354     0.054528122464     1.240536699056

  Mulliken Charges: (a.u.)
   Center  Symbol    Alpha    Beta     Spin     Total
       1     H     0.42535  0.42535  0.00000  0.14931
       2     C     3.19380  3.19380  0.00000 -0.38759
       3     C     2.96156  2.96156  0.00000  0.07689
       4     H     0.42441  0.42441  0.00000  0.15119
       5     O     4.14451  4.14451  0.00000 -0.28902
       6     H     0.43285  0.43285  0.00000  0.13429
       7     C     3.02277  3.02277  0.00000 -0.04554
       8     C     2.67655  2.67655  0.00000  0.64690
       9     H     0.45353  0.45353  0.00000  0.09294
      10     H     0.43524  0.43524  0.00000  0.12953
      11     F     4.61175  4.61175  0.00000 -0.22350
      12     F     4.61078  4.61078  0.00000 -0.22157
      13     F     4.60691  4.60691  0.00000 -0.21381

   Total alpha = 32.00000, Total beta = 32.00000, Total charge =  0.00000

*** Psi4 exiting successfully. Buy a developer a beer!
