  ==> Input File <==

--------------------------------------------------------------------------
set {
	reference rhf
	basis 6-31G*
}

set_num_threads( 4 )
memory 2 gb

molecule MOL {
0 1

H	 2.045841	 -1.204529	 0.973481
C	 1.246433	 -0.509662	 1.173884
O	 0.464886	 -0.454746	 -0.000158
H	 1.666353	 0.461361	 1.407989
H	 0.662985	 -0.867662	 2.013816
C	 -0.590998	 0.343045	 0.000118
O	 -1.699443	 -0.054298	 0.000227
H	 -0.340329	 1.404368	 0.000207

	symmetry c1
}
set optking {
	frozen_dihedral = ("
		2 3 6 7
	")
}

ee = optimize('scf')
oeprop('DIPOLE', 'QUADRUPOLE', 'MULLIKEN_CHARGES')
f=open( 'psi4out.xyz', 'w' )
f.write( "8  " )
f.write( str(ee) + "\n" )
f.write( MOL.save_string_xyz() )
f.close()
--------------------------------------------------------------------------

    Molecular point group: c1
  Charge       = 0
  Multiplicity = 1
  Basis Set: 6-31G*
  Basis Set:
  @DF-RHF Final Energy:  -227.76939835422459
    Total Energy =                       -227.7693983542246201
    Molecular point group: c1
  Basis Set: 6-31G*
  Basis Set:
  Basis Set: 6-31G*
  Basis Set:
  @DF-RHF Final Energy:  -227.76976049083152
    Total Energy =                       -227.7697604908315725
  Basis Set: 6-31G*
  Basis Set:
  Basis Set: 6-31G*
  Basis Set:
  @DF-RHF Final Energy:  -227.76974578076164
    Total Energy =                       -227.7697457807615820
  Basis Set: 6-31G*
  Basis Set:
  Basis Set: 6-31G*
  Basis Set:
  @DF-RHF Final Energy:  -227.76972632015037
    Total Energy =                       -227.7697263201504541
  Basis Set: 6-31G*
  Basis Set:
  Basis Set: 6-31G*
  Basis Set:
  @DF-RHF Final Energy:  -227.76982431073725
    Total Energy =                       -227.7698243107372491
  Basis Set: 6-31G*
  Basis Set:
  Charge       = 0
  Multiplicity = 1
  Basis Set: 6-31G*
  Basis Set:

    Orbital Energies (a.u.)
    -----------------------

    Doubly Occupied:

       1A    -20.600622     2A    -20.572710     3A    -11.383952
       4A    -11.301652     5A     -1.471174     6A     -1.383953
       7A     -0.986747     8A     -0.839888     9A     -0.737620
      10A     -0.686665    11A     -0.670613    12A     -0.624223
      13A     -0.565609    14A     -0.513587    15A     -0.472924
      16A     -0.457356

  @DF-RHF Final Energy:  -227.76982473140697

   => Energetics <=

    Nuclear Repulsion Energy =            121.5449321305829926
    One-Electron Energy =                -552.0909267567172947
    Two-Electron Energy =                 202.7761698947272748
    DFT Exchange-Correlation Energy =       0.0000000000000000
    Empirical Dispersion Energy =           0.0000000000000000
    PCM Polarization Energy =               0.0000000000000000
    EFP Energy =                            0.0000000000000000
    Total Energy =                       -227.7698247314070272
    Molecular point group: c1
  Basis Set: 6-31G*
  Basis Set:

  -Total Gradient:
     Atom            X                  Y                   Z
    ------   -----------------  -----------------  -----------------
       1       -0.000015877848     0.000009372038    -0.000031742905
       2       -0.001871297830    -0.002262742777     0.001210892409
       3        0.002751137965     0.003366253137     0.000292759898
       4        0.000013936745     0.000009284658     0.000001376855
       5        0.000003160050    -0.000001268823     0.000004944096
       6       -0.000985163812    -0.001242393419    -0.005596815906
       7        0.000106957654     0.000133308802     0.004113818399
       8       -0.000002852924    -0.000011813615     0.000004767155

  **** Optimization is complete! (in 6 steps) ****
    Final optimized geometry and variables:
    Molecular point group: c1

    Geometry (in Angstrom), charge = 0, multiplicity = 1:

    H            2.222109970326    -0.978103397544     0.651499004262
    C            1.374933290106    -0.342517138715     0.853021972113
    O            0.590156598948    -0.330845836105    -0.321998486123
    H            1.726118073344     0.655011164582     1.100410794875
    H            0.805695282609    -0.743253847066     1.682275756399
    C           -0.449631115120     0.512755085791    -0.317316787278
    O           -1.574406093671     0.172015605505    -0.274091430172
    H           -0.150584070977     1.560103028611    -0.352355872948

  Mulliken Charges: (a.u.)
   Center  Symbol    Alpha    Beta     Spin     Total
       1     H     0.39912  0.39912  0.00000  0.20177
       2     C     3.09541  3.09541  0.00000 -0.19083
       3     O     4.29168  4.29168  0.00000 -0.58335
       4     H     0.42010  0.42010  0.00000  0.15980
       5     H     0.40861  0.40861  0.00000  0.18278
       6     C     2.73403  2.73403  0.00000  0.53193
       7     O     4.22495  4.22495  0.00000 -0.44990
       8     H     0.42610  0.42610  0.00000  0.14779

   Total alpha = 16.00000, Total beta = 16.00000, Total charge =  0.00000
