  ==> Input File <==

--------------------------------------------------------------------------
set {
	reference rhf
	basis 6-31G*
}

set_num_threads( 4 )
memory 2 gb

molecule MOL {
0 1

H	 -2.701280	 0.829617	 -0.385284
N	 -1.718513	 0.910042	 -0.210140
C	 -0.962057	 0.755059	 -1.440123
H	 -1.468621	 0.181355	 0.429921
C	 0.521499	 0.841521	 -1.149056
H	 -1.156349	 -0.184343	 -1.959523
H	 -1.229097	 1.561965	 -2.115678
O	 0.874168	 -0.245412	 -0.342030
H	 1.089700	 0.817459	 -2.078683
H	 0.740147	 1.776950	 -0.638762
C	 2.202317	 -0.244239	 0.074611
H	 2.711377	 -1.041390	 -0.449894
H	 2.692099	 0.699270	 -0.159667
H	 2.283185	 -0.418429	 1.145558

	symmetry c1
}
set optking {
	frozen_dihedral = ("
		5 8 11 13
	")
}

ee = optimize('scf')
oeprop('DIPOLE', 'QUADRUPOLE', 'MULLIKEN_CHARGES')
f=open( 'psi4out.xyz', 'w' )
f.write( "14  " )
f.write( str(ee) + "\n" )
f.write( MOL.save_string_xyz() )
f.close()
--------------------------------------------------------------------------

    Molecular point group: c1
  Charge       = 0
  Multiplicity = 1
  Basis Set: 6-31G*
  Basis Set:
  @DF-RHF Final Energy:  -248.12101176393173
    Total Energy =                       -248.1210117639317332
    Molecular point group: c1
  Basis Set: 6-31G*
  Basis Set:
  Basis Set: 6-31G*
  Basis Set:
  @DF-RHF Final Energy:  -248.12151504559515
    Total Energy =                       -248.1215150455951743
  Basis Set: 6-31G*
  Basis Set:
  Basis Set: 6-31G*
  Basis Set:
  @DF-RHF Final Energy:  -248.12165374170854
    Total Energy =                       -248.1216537417086556
  Basis Set: 6-31G*
  Basis Set:
  Charge       = 0
  Multiplicity = 1
  Basis Set: 6-31G*
  Basis Set:

    Orbital Energies (a.u.)
    -----------------------

    Doubly Occupied:

       1A    -20.553851     2A    -15.527923     3A    -11.266139
       4A    -11.265825     5A    -11.240227     6A     -1.376551
       7A     -1.173068     8A     -0.998921     9A     -0.907466
      10A     -0.814768    11A     -0.682143    12A     -0.671500
      13A     -0.643003    14A     -0.609943    15A     -0.605000
      16A     -0.538878    17A     -0.535078    18A     -0.496573
      19A     -0.471469    20A     -0.412241    21A     -0.379639

  @DF-RHF Final Energy:  -248.12165466672914

   => Energetics <=

    Nuclear Repulsion Energy =            194.4073634527967158
    One-Electron Energy =                -722.7176228864088898
    Two-Electron Energy =                 280.1886047668828041
    DFT Exchange-Correlation Energy =       0.0000000000000000
    Empirical Dispersion Energy =           0.0000000000000000
    PCM Polarization Energy =               0.0000000000000000
    EFP Energy =                            0.0000000000000000
    Total Energy =                       -248.1216546667293414
    Molecular point group: c1
  Basis Set: 6-31G*
  Basis Set:

  -Total Gradient:
     Atom            X                  Y                   Z
    ------   -----------------  -----------------  -----------------
       1        0.000014954507     0.000005820727    -0.000027868810
       2        0.000026120943    -0.000005784755    -0.000013256208
       3       -0.000044390941    -0.000002585698    -0.000029096781
       4        0.000014637841     0.000016937725    -0.000013572335
       5       -0.000368519534     0.000698283981     0.001048910743
       6       -0.000004455151     0.000006046726     0.000012849557
       7       -0.000042574548     0.000012458817    -0.000012890118
       8        0.000712860430    -0.001092635115    -0.001768786711
       9       -0.000012288219    -0.000035273100     0.000043525621
      10        0.000019497155     0.000007643651    -0.000012333493
      11       -0.000684052033     0.000895361623     0.002108324997
      12        0.000023851883    -0.000007035057     0.000006277755
      13        0.000378894803    -0.000518987750    -0.001339692797
      14       -0.000034537139     0.000019748227    -0.000002391419

  **** Optimization is complete! (in 4 steps) ****
    Final optimized geometry and variables:
    Molecular point group: c1

    Geometry (in Angstrom), charge = 0, multiplicity = 1:

    H           -2.885470597239     0.424053568067     0.234792238509
    N           -1.901567471589     0.512300106533     0.399246210237
    C           -1.157499712921     0.364273295937    -0.839071109798
    H           -1.638561398080    -0.215283193143     1.035207017637
    C            0.328574351439     0.461427850421    -0.564807092232
    H           -1.350897129365    -0.575754446158    -1.357545854346
    H           -1.437524692795     1.170153088646    -1.510721580030
    O            0.692699144109    -0.623406071740     0.241908996193
    H            0.883195627661     0.440396175168    -1.502253845416
    H            0.544856400887     1.398587443232    -0.058524801214
    C            2.019746419805    -0.647745155300     0.679279387254
    H            2.560258489947    -1.451018829566     0.187361450229
    H            2.533129764349     0.284171511035     0.463710785213
    H            2.039517612988    -0.818367185570     1.749110534395

  Mulliken Charges: (a.u.)
   Center  Symbol    Alpha    Beta     Spin     Total
       1     H     0.33295  0.33295  0.00000  0.33410
       2     N     3.92532  3.92532  0.00000 -0.85064
       3     C     3.06901  3.06901  0.00000 -0.13801
       4     H     0.32363  0.32363  0.00000  0.35275
       5     C     2.98973  2.98973  0.00000  0.02055
       6     H     0.42665  0.42665  0.00000  0.14671
       7     H     0.42068  0.42068  0.00000  0.15864
       8     O     4.31454  4.31454  0.00000 -0.62908
       9     H     0.43119  0.43119  0.00000  0.13762
      10     H     0.42198  0.42198  0.00000  0.15603
      11     C     3.07533  3.07533  0.00000 -0.15067
      12     H     0.42290  0.42290  0.00000  0.15419
      13     H     0.42827  0.42827  0.00000  0.14346
      14     H     0.41783  0.41783  0.00000  0.16434

   Total alpha = 21.00000, Total beta = 21.00000, Total charge = -0.00000
