  ==> Input File <==

--------------------------------------------------------------------------
set {
	reference rhf
	basis 6-31G*
}

set_num_threads( 1 )
memory 2 gb

molecule MOL {
0 1

O	 -3.690216	 -0.454528	 0.171304
C	 -2.668563	 0.129746	 -0.000350
C	 -2.580875	 1.614667	 -0.242398
O	 -1.481751	 -0.454642	 0.000584
H	 -3.029472	 2.131213	 0.597723
H	 -1.559943	 1.942182	 -0.372286
H	 -3.160937	 1.858228	 -1.124489
C	 -0.334255	 0.388708	 0.000906
C	 0.891947	 -0.504646	 0.000751
H	 -0.365390	 1.025305	 -0.873475
H	 -0.365484	 1.024911	 0.875569
C	 2.191998	 0.301789	 0.000897
H	 0.855148	 -1.151283	 -0.871571
H	 0.855132	 -1.151660	 0.872805
C	 3.441114	 -0.581407	 0.000108
H	 2.215074	 0.954890	 -0.869742
H	 2.215465	 0.953923	 0.872248
C	 4.739576	 0.224112	 -0.001102
H	 3.419457	 -1.233487	 -0.870178
H	 3.420834	 -1.233096	 0.870717
H	 4.804918	 0.861552	 -0.878265
H	 5.606527	 -0.429058	 -0.001824
H	 4.806469	 0.861674	 0.875853

	symmetry c1
}
set optking {
	frozen_dihedral = ("
		13 9 8 10,
		2 4 8 10,
		16 12 9 13,
		19 15 12 16
	")
}

ee = energy('scf')
oeprop('DIPOLE', 'QUADRUPOLE', 'MULLIKEN_CHARGES')
f=open( 'psi4out.xyz', 'w' )
f.write( "23  " )
f.write( str(ee) + "\n" )
f.write( MOL.save_string_xyz() )
f.close()
--------------------------------------------------------------------------

    Molecular point group: c1

    Geometry (in Angstrom), charge = 0, multiplicity = 1:

       Center              X                  Y                   Z               Mass
    ------------   -----------------  -----------------  -----------------  -----------------
           O         -3.731094164325    -0.537533971147     0.179365956229    15.994914619560
           C         -2.709441164325     0.046740028853     0.007711956229    12.000000000000
           C         -2.621753164325     1.531661028853    -0.234336043771    12.000000000000
           O         -1.522629164325    -0.537647971147     0.008645956229    15.994914619560
           H         -3.070350164325     2.048207028853     0.605784956229     1.007825032070
           H         -1.600821164325     1.859176028853    -0.364224043771     1.007825032070
           H         -3.201815164325     1.775222028853    -1.116427043771     1.007825032070
           C         -0.375133164325     0.305702028853     0.008967956229    12.000000000000
           C          0.851068835675    -0.587651971147     0.008812956229    12.000000000000
           H         -0.406268164325     0.942299028853    -0.865413043771     1.007825032070
           H         -0.406362164325     0.941905028853     0.883630956229     1.007825032070
           C          2.151119835675     0.218783028853     0.008958956229    12.000000000000
           H          0.814269835675    -1.234288971147    -0.863509043771     1.007825032070
           H          0.814253835675    -1.234665971147     0.880866956229     1.007825032070
           C          3.400235835675    -0.664412971147     0.008169956229    12.000000000000
           H          2.174195835675     0.871884028853    -0.861680043771     1.007825032070
           H          2.174586835675     0.870917028853     0.880309956229     1.007825032070
           C          4.698697835675     0.141106028853     0.006959956229    12.000000000000
           H          3.378578835675    -1.316492971147    -0.862116043771     1.007825032070
           H          3.379955835675    -1.316101971147     0.878778956229     1.007825032070
           H          4.764039835675     0.778546028853    -0.870203043771     1.007825032070
           H          5.565648835675    -0.512063971147     0.006237956229     1.007825032070
           H          4.765590835675     0.778668028853     0.883914956229     1.007825032070

  Charge       = 0
  Multiplicity = 1
  Basis Set: 6-31G*
  Basis Set:

    Orbital Energies (a.u.)
    -----------------------

    Doubly Occupied:

       1A    -20.605790     2A    -20.538507     3A    -11.375473
       4A    -11.299914     5A    -11.232575     6A    -11.232059
       7A    -11.231464     8A    -11.227053     9A    -11.217693
      10A     -1.467105    11A     -1.366254    12A     -1.100623
      13A     -1.038014    14A     -1.020861    15A     -0.948053
      16A     -0.852770    17A     -0.811590    18A     -0.781730
      19A     -0.706991    20A     -0.699311    21A     -0.664708
      22A     -0.652543    23A     -0.612367    24A     -0.602812
      25A     -0.586526    26A     -0.570853    27A     -0.558377
      28A     -0.539471    29A     -0.533570    30A     -0.511271
      31A     -0.501437    32A     -0.483501    33A     -0.477711
      34A     -0.475887    35A     -0.446183    36A     -0.427124

  @DF-RHF Final Energy:  -422.94542977271362

   => Energetics <=

    Nuclear Repulsion Energy =            453.1078927405363856
    One-Electron Energy =               -1473.3102098151916834
    Two-Electron Energy =                 597.2568873019397415
    DFT Exchange-Correlation Energy =       0.0000000000000000
    Empirical Dispersion Energy =           0.0000000000000000
    PCM Polarization Energy =               0.0000000000000000
    EFP Energy =                            0.0000000000000000
    Total Energy =                       -422.9454297727155563

  Mulliken Charges: (a.u.)
   Center  Symbol    Alpha    Beta     Spin     Total
       1     O     4.27628  4.27628  0.00000 -0.55255
       2     C     2.59862  2.59862  0.00000  0.80275
       3     C     3.31594  3.31594  0.00000 -0.63189
       4     O     4.30409  4.30409  0.00000 -0.60818
       5     H     0.39365  0.39365  0.00000  0.21270
       6     H     0.40244  0.40244  0.00000  0.19511
       7     H     0.39324  0.39324  0.00000  0.21352
       8     C     3.01989  3.01989  0.00000 -0.03978
       9     C     3.16019  3.16019  0.00000 -0.32038
      10     H     0.41100  0.41100  0.00000  0.17801
      11     H     0.41073  0.41073  0.00000  0.17855
      12     C     3.16124  3.16124  0.00000 -0.32248
      13     H     0.40939  0.40939  0.00000  0.18123
      14     H     0.40865  0.40865  0.00000  0.18270
      15     C     3.15195  3.15195  0.00000 -0.30391
      16     H     0.42249  0.42249  0.00000  0.15503
      17     H     0.42196  0.42196  0.00000  0.15608
      18     C     3.24013  3.24013  0.00000 -0.48026
      19     H     0.41990  0.41990  0.00000  0.16020
      20     H     0.41961  0.41961  0.00000  0.16077
      21     H     0.42110  0.42110  0.00000  0.15780
      22     H     0.41657  0.41657  0.00000  0.16686
      23     H     0.42094  0.42094  0.00000  0.15811

   Total alpha = 36.00000, Total beta = 36.00000, Total charge =  0.00000
