  ==> Input File <==

--------------------------------------------------------------------------
set {
	reference rhf
	basis 6-31G*
}

set_num_threads( 4 )
memory 2 gb

molecule MOL {
0 1

H	 1.926922	 -0.953038	 1.241023
C	 1.940019	 -0.227364	 0.418815
C	 0.682687	 0.588695	 0.263567
O	 2.900442	 -0.127611	 -0.273836
C	 -0.558097	 -0.297372	 0.091132
H	 0.812557	 1.255715	 -0.580648
H	 0.569279	 1.197559	 1.159812
C	 -1.850991	 0.512573	 -0.019058
H	 -0.439461	 -0.911037	 -0.798876
H	 -0.634833	 -0.984502	 0.931860
C	 -3.096943	 -0.368295	 -0.099594
H	 -1.800724	 1.150330	 -0.898172
H	 -1.931651	 1.177355	 0.838044
H	 -3.060452	 -1.020287	 -0.967456
H	 -3.996858	 0.233488	 -0.175704
H	 -3.191959	 -0.995686	 0.782074

	symmetry c1
}
set optking {
	frozen_dihedral = ("
		9 5 8 12
	")
}

ee = optimize('scf')
oeprop('DIPOLE', 'QUADRUPOLE', 'MULLIKEN_CHARGES')
f=open( 'psi4out.xyz', 'w' )
f.write( "16  " )
f.write( str(ee) + "\n" )
f.write( MOL.save_string_xyz() )
f.close()
--------------------------------------------------------------------------

    Molecular point group: c1
  Charge       = 0
  Multiplicity = 1
  Basis Set: 6-31G*
  Basis Set:
  @DF-RHF Final Energy:  -270.01985945667843
    Total Energy =                       -270.0198594566786596
    Molecular point group: c1
  Basis Set: 6-31G*
  Basis Set:
  Basis Set: 6-31G*
  Basis Set:
  @DF-RHF Final Energy:  -270.01978764808666
    Total Energy =                       -270.0197876480865489
  Basis Set: 6-31G*
  Basis Set:
  Basis Set: 6-31G*
  Basis Set:
  @DF-RHF Final Energy:  -270.01979659702039
    Total Energy =                       -270.0197965970201039
  Basis Set: 6-31G*
  Basis Set:
  Basis Set: 6-31G*
  Basis Set:
  @DF-RHF Final Energy:  -270.01986872970792
    Total Energy =                       -270.0198687297076958
  Basis Set: 6-31G*
  Basis Set:
  Basis Set: 6-31G*
  Basis Set:
  @DF-RHF Final Energy:  -270.01986057906015
    Total Energy =                       -270.0198605790601505
  Basis Set: 6-31G*
  Basis Set:
  Basis Set: 6-31G*
  Basis Set:
  @DF-RHF Final Energy:  -270.01987020269166
    Total Energy =                       -270.0198702026917772
  Basis Set: 6-31G*
  Basis Set:
  Charge       = 0
  Multiplicity = 1
  Basis Set: 6-31G*
  Basis Set:

    Orbital Energies (a.u.)
    -----------------------

    Doubly Occupied:

       1A    -20.562452     2A    -11.326515     3A    -11.236704
       4A    -11.235196     5A    -11.229411     6A    -11.218476
       7A     -1.402239     8A     -1.096581     9A     -1.018908
      10A     -0.905951    11A     -0.812080    12A     -0.793531
      13A     -0.678429    14A     -0.646843    15A     -0.630521
      16A     -0.603494    17A     -0.581589    18A     -0.549945
      19A     -0.528621    20A     -0.508288    21A     -0.487865
      22A     -0.482295    23A     -0.478502    24A     -0.409000

  @DF-RHF Final Energy:  -270.01987060893634

   => Energetics <=

    Nuclear Repulsion Energy =            228.8368277861546574
    One-Electron Energy =                -818.8665216460389047
    Two-Electron Energy =                 320.0098232509478748
    DFT Exchange-Correlation Energy =       0.0000000000000000
    Empirical Dispersion Energy =           0.0000000000000000
    PCM Polarization Energy =               0.0000000000000000
    EFP Energy =                            0.0000000000000000
    Total Energy =                       -270.0198706089363441
    Molecular point group: c1
  Basis Set: 6-31G*
  Basis Set:

  -Total Gradient:
     Atom            X                  Y                   Z
    ------   -----------------  -----------------  -----------------
       1        0.000006214120     0.000010401158     0.000011554657
       2       -0.000015957853    -0.000031724497    -0.000031618587
       3        0.000014379605     0.000012896574     0.000030871620
       4        0.000010120851     0.000012882349     0.000010194458
       5       -0.000579962539    -0.000873977755     0.000321730942
       6       -0.000001689856    -0.000003144275     0.000001914969
       7        0.000005515875     0.000011399892     0.000003022389
       8        0.000507791384     0.000863184901     0.000447422627
       9        0.000396981907     0.000594809515    -0.000354939951
      10       -0.000006241176     0.000006449765    -0.000013407398
      11       -0.000014380224    -0.000008218860     0.000017990411
      12       -0.000323864271    -0.000581162972    -0.000440668312
      13        0.000009842063    -0.000010343699    -0.000010200730
      14        0.000006407107     0.000002885676     0.000004042385
      15       -0.000003656074    -0.000001000545    -0.000001388210
      16       -0.000011500918    -0.000005337227     0.000003478730

  **** Optimization is complete! (in 7 steps) ****
    Final optimized geometry and variables:
    Molecular point group: c1

    Geometry (in Angstrom), charge = 0, multiplicity = 1:

    H            1.933460323075    -0.959922710042     1.178253835956
    C            1.941884207098    -0.234126759758     0.356214797810
    C            0.683791183753     0.581741526547     0.207956236275
    O            2.897476884398    -0.136089083866    -0.343374982327
    C           -0.557975859658    -0.304962252387     0.042785170848
    H            0.808636423739     1.248178562770    -0.637478712018
    H            0.575674952371     1.191163916699     1.104399389220
    C           -1.849726281846     0.506552795149    -0.069589044480
    H           -0.439825912263    -0.918798116393    -0.847177624551
    H           -0.632026273727    -0.988500348689     0.886407613122
    C           -3.094966351042    -0.374727542669    -0.161081278585
    H           -1.795823759712     1.143155283689    -0.949254945818
    H           -1.936338949687     1.169104168731     0.788485597793
    H           -3.048274947818    -1.030804459761    -1.025414512542
    H           -3.993686222329     0.226938972523    -0.251068386635
    H           -3.200992450162    -0.998159630522     0.722086364589

  Mulliken Charges: (a.u.)
   Center  Symbol    Alpha    Beta     Spin     Total
       1     H     0.43209  0.43209  0.00000  0.13582
       2     C     2.82984  2.82984  0.00000  0.34032
       3     C     3.20807  3.20807  0.00000 -0.41613
       4     O     4.23713  4.23713  0.00000 -0.47426
       5     C     3.16433  3.16433  0.00000 -0.32866
       6     H     0.39934  0.39934  0.00000  0.20132
       7     H     0.40982  0.40982  0.00000  0.18036
       8     C     3.15155  3.15155  0.00000 -0.30310
       9     H     0.41269  0.41269  0.00000  0.17462
      10     H     0.41930  0.41930  0.00000  0.16140
      11     C     3.24051  3.24051  0.00000 -0.48102
      12     H     0.41811  0.41811  0.00000  0.16378
      13     H     0.42083  0.42083  0.00000  0.15835
      14     H     0.41936  0.41936  0.00000  0.16127
      15     H     0.41644  0.41644  0.00000  0.16713
      16     H     0.42060  0.42060  0.00000  0.15881

   Total alpha = 24.00000, Total beta = 24.00000, Total charge = -0.00000
