                              Psi4 1.0.54 Driver

  ==> Input File <==

--------------------------------------------------------------------------
set {
	reference rhf
	basis cc-pvtz
}

set_num_threads( 4 )
memory 2 gb

molecule MOL {
0 1

H	 -2.122788	 0.067975	 0.000040
C	 -1.207832	 -0.484644	 0.000033
C	 -1.200234	 -1.864744	 0.000003
C	 0.000000	 0.180297	 0.000046
H	 -2.128939	 -2.400488	 -0.000006
C	 0.000000	 -2.551724	 -0.000013
N	 0.000000	 1.644943	 0.000076
C	 1.207832	 -0.484644	 0.000033
H	 0.000000	 -3.624723	 -0.000032
C	 1.200234	 -1.864744	 0.000003
O	 1.050559	 2.194486	 -0.000073
O	 -1.050559	 2.194486	 -0.000074
H	 2.122788	 0.067975	 0.000040
H	 2.128939	 -2.400488	 -0.000006

	symmetry c1
}
ee,wfn = energy('scf', return_wfn=True)
oeprop( wfn, 'DIPOLE', 'QUADRUPOLE', 'MULLIKEN_CHARGES')
oeprop( wfn, 'GRID_ESP')
f=open( 'psi4out.xyz', 'w' )
f.write( "14  " )
f.write( str(ee) + "\n" )
f.write( MOL.save_string_xyz() )
f.close()
--------------------------------------------------------------------------

    Molecular point group: c1

    Geometry (in Angstrom), charge = 0, multiplicity = 1:

       Center              X                  Y                   Z               Mass
    ------------   -----------------  -----------------  -----------------  -----------------
           H         -2.122788000000     0.067662573886     0.000039924712     1.007825032070
           C         -1.207832000000    -0.484956426114     0.000032924712    12.000000000000
           C         -1.200234000000    -1.865056426114     0.000002924712    12.000000000000
           C          0.000000000000     0.179984573886     0.000045924712    12.000000000000
           H         -2.128939000000    -2.400800426114    -0.000006075288     1.007825032070
           C          0.000000000000    -2.552036426114    -0.000013075288    12.000000000000
           N          0.000000000000     1.644630573886     0.000075924712    14.003074004780
           C          1.207832000000    -0.484956426114     0.000032924712    12.000000000000
           H          0.000000000000    -3.625035426114    -0.000032075288     1.007825032070
           C          1.200234000000    -1.865056426114     0.000002924712    12.000000000000
           O          1.050559000000     2.194173573886    -0.000073075288    15.994914619560
           O         -1.050559000000     2.194173573886    -0.000074075288    15.994914619560
           H          2.122788000000     0.067662573886     0.000039924712     1.007825032070
           H          2.128939000000    -2.400800426114    -0.000006075288     1.007825032070

  Charge       = 0
  Multiplicity = 1
  Basis Set: CC-PVTZ
  Basis Set:

    Orbital Energies (a.u.)
    -----------------------

    Doubly Occupied:

       1A    -20.591675     2A    -20.591619     3A    -15.847819
       4A    -11.302392     5A    -11.267250     6A    -11.267209
       7A    -11.264904     8A    -11.258179     9A    -11.258047
      10A     -1.641250    11A     -1.423516    12A     -1.204445
      13A     -1.095613    14A     -1.054974    15A     -0.959441
      16A     -0.866926    17A     -0.828967    18A     -0.789554
      19A     -0.740835    20A     -0.735306    21A     -0.711471
      22A     -0.659866    23A     -0.651997    24A     -0.626407
      25A     -0.555160    26A     -0.540607    27A     -0.531278
      28A     -0.492034    29A     -0.491705    30A     -0.457720
      31A     -0.377777    32A     -0.369251

  @DF-RHF Final Energy:  -434.33008801968293

   => Energetics <=

    Nuclear Repulsion Energy =            418.2048305733489428
    One-Electron Energy =               -1420.1595259810083007
    Two-Electron Energy =                 567.6246073879761980
    DFT Exchange-Correlation Energy =       0.0000000000000000
    Empirical Dispersion Energy =           0.0000000000000000
    PCM Polarization Energy =               0.0000000000000000
    EFP Energy =                            0.0000000000000000
    Total Energy =                       -434.3300880196831031

  Mulliken Charges: (a.u.)
   Center  Symbol    Alpha    Beta     Spin     Total
       1     H     0.39891  0.39891  0.00000  0.20218
       2     C     3.07663  3.07663  0.00000 -0.15327
       3     C     3.07229  3.07229  0.00000 -0.14457
       4     C     2.98229  2.98229  0.00000  0.03541
       5     H     0.41693  0.41693  0.00000  0.16614
       6     C     3.06441  3.06441  0.00000 -0.12881
       7     N     3.25240  3.25240  0.00000  0.49521
       8     C     3.07663  3.07663  0.00000 -0.15327
       9     H     0.41707  0.41707  0.00000  0.16586
      10     C     3.07229  3.07229  0.00000 -0.14457
      11     O     4.17716  4.17716  0.00000 -0.35432
      12     O     4.17716  4.17716  0.00000 -0.35432
      13     H     0.39891  0.39891  0.00000  0.20218
      14     H     0.41693  0.41693  0.00000  0.16614

   Total alpha = 32.00000, Total beta = 32.00000, Total charge = -0.00000

*** Psi4 exiting successfully. Buy a developer a beer!
