  ==> Input File <==

--------------------------------------------------------------------------
set {
	reference rhf
	basis cc-pvtz
}

set_num_threads( 4 )
memory 2 gb

molecule MOL {
0 1

H	 2.462485	 -2.216993	 0.000000
O	 2.777472	 -1.330706	 0.000000
C	 1.763288	 -0.447523	 0.000000
C	 1.899824	 0.684014	 -0.791267
C	 0.619823	 -0.632785	 0.747345
H	 2.797121	 0.808418	 -1.364449
C	 0.894286	 1.622452	 -0.830997
H	 0.487910	 -1.495874	 1.366193
C	 -0.368703	 0.329238	 0.683316
H	 1.008576	 2.493799	 -1.445358
C	 -0.263665	 1.458595	 -0.089213
N	 -1.582954	 0.125494	 1.481364
H	 -1.052362	 2.178485	 -0.110139
O	 -1.648002	 -0.858845	 2.140091
O	 -2.425478	 0.955630	 1.420338

	symmetry c1
}
set optking {
	frozen_dihedral = ("
		4 3 2 1
	")
}

ee = optimize('scf')
oeprop('DIPOLE', 'QUADRUPOLE', 'MULLIKEN_CHARGES')
f=open( 'psi4out.xyz', 'w' )
f.write( "15  " )
f.write( str(ee) + "\n" )
f.write( MOL.save_string_xyz() )
f.close()
--------------------------------------------------------------------------

    Molecular point group: c1
  Charge       = 0
  Multiplicity = 1
  Basis Set: CC-PVTZ
  Basis Set:
  @DF-RHF Final Energy:  -509.21701096826803
    Total Energy =                       -509.2170109682681414
    Molecular point group: c1
  Basis Set: CC-PVTZ
  Basis Set:
  Basis Set: CC-PVTZ
  Basis Set:
  @DF-RHF Final Energy:  -509.21704037269734
    Total Energy =                       -509.2170403726977383
  Basis Set: CC-PVTZ
  Basis Set:
  Basis Set: CC-PVTZ
  Basis Set:
  @DF-RHF Final Energy:  -509.21648442232231
    Total Energy =                       -509.2164844223221962
  Basis Set: CC-PVTZ
  Basis Set:
  Basis Set: CC-PVTZ
  Basis Set:
  @DF-RHF Final Energy:  -509.21708395371110
    Total Energy =                       -509.2170839537109259
  Basis Set: CC-PVTZ
  Basis Set:
  Basis Set: CC-PVTZ
  Basis Set:
  @DF-RHF Final Energy:  -509.21707366395765
    Total Energy =                       -509.2170736639573079
  Basis Set: CC-PVTZ
  Basis Set:
  Basis Set: CC-PVTZ
  Basis Set:
  @DF-RHF Final Energy:  -509.21715640561280
    Total Energy =                       -509.2171564056130819
  Basis Set: CC-PVTZ
  Basis Set:
  Charge       = 0
  Multiplicity = 1
  Basis Set: CC-PVTZ
  Basis Set:

    Orbital Energies (a.u.)
    -----------------------

    Doubly Occupied:

       1A    -20.602128     2A    -20.594850     3A    -20.594430
       4A    -15.850581     5A    -11.323964     6A    -11.308468
       7A    -11.263667     8A    -11.263066     9A    -11.260882
      10A    -11.258033    11A     -1.644211    12A     -1.433163
      13A     -1.426626    14A     -1.202833    15A     -1.095446
      16A     -1.048144    17A     -0.966134    18A     -0.877493
      19A     -0.832684    20A     -0.795804    21A     -0.751593
      22A     -0.743530    23A     -0.729046    24A     -0.709978
      25A     -0.678893    26A     -0.640428    27A     -0.629352
      28A     -0.578437    29A     -0.558410    30A     -0.543650
      31A     -0.519100    32A     -0.494855    33A     -0.492033
      34A     -0.460225    35A     -0.380017    36A     -0.352219

  @DF-RHF Final Energy:  -509.21715676856087

   => Energetics <=

    Nuclear Repulsion Energy =            504.4430291492904530
    One-Electron Energy =               -1695.5116296998567123
    Two-Electron Energy =                 681.8514437820053899
    DFT Exchange-Correlation Energy =       0.0000000000000000
    Empirical Dispersion Energy =           0.0000000000000000
    PCM Polarization Energy =               0.0000000000000000
    EFP Energy =                            0.0000000000000000
    Total Energy =                       -509.2171567685609261
    Molecular point group: c1
  Basis Set: CC-PVTZ
  Basis Set:

  -Total Gradient:
     Atom            X                  Y                   Z
    ------   -----------------  -----------------  -----------------
       1        0.000035128707    -0.000033515065    -0.002674390293
       2       -0.000387871655    -0.000458341182     0.002629902194
       3        0.001071820015     0.001370104717     0.001630353426
       4       -0.000855786508    -0.000809331170    -0.001512733158
       5        0.000121229648    -0.000069061641    -0.000057691883
       6        0.000005451726    -0.000009233882     0.000005776517
       7        0.000121023558    -0.000061952795    -0.000092402782
       8       -0.000003805688     0.000004679786     0.000010362205
       9       -0.000057403165     0.000119995357    -0.000066448280
      10       -0.000010056794     0.000004181819     0.000004335546
      11       -0.000054702650    -0.000058545216     0.000147178659
      12       -0.000017155606    -0.000011396592    -0.000000130167
      13        0.000004702320     0.000001519994    -0.000011734045
      14        0.000032601125    -0.000008897437    -0.000007177872
      15       -0.000005175031     0.000019793307    -0.000005200067

  **** Optimization is complete! (in 7 steps) ****
    Final optimized geometry and variables:
    Molecular point group: c1

    Geometry (in Angstrom), charge = 0, multiplicity = 1:

    H            2.337569889647    -2.362716191393    -0.503552072298
    O            2.656513617404    -1.477622294342    -0.507637690351
    C            1.637490598173    -0.588027751002    -0.528626457052
    C            1.770317501544     0.538982977789    -1.322154415448
    C            0.496592639095    -0.774129865516     0.223590804713
    H            2.663396082390     0.659392890805    -1.902739591110
    C            0.768488786460     1.485558577718    -1.351957572383
    H            0.377152979831    -1.633621255998     0.848998451137
    C           -0.493576902771     0.184262599209     0.159843833806
    H            0.880649735737     2.357434002164    -1.965852491944
    C           -0.385758345600     1.318467576438    -0.609113565593
    N           -1.708803343949    -0.020398731415     0.955243223157
    H           -1.174554271531     2.038559063698    -0.626259434129
    O           -1.786985194268    -1.018360416894     1.591199227282
    O           -2.539943728895     0.822759648506     0.913732105676

  Mulliken Charges: (a.u.)
   Center  Symbol    Alpha    Beta     Spin     Total
       1     H     0.38223  0.38223  0.00000  0.23554
       2     O     4.17770  4.17770  0.00000 -0.35540
       3     C     2.85690  2.85690  0.00000  0.28620
       4     C     3.09675  3.09675  0.00000 -0.19350
       5     C     3.12483  3.12483  0.00000 -0.24966
       6     H     0.41130  0.41130  0.00000  0.17739
       7     C     3.06009  3.06009  0.00000 -0.12018
       8     H     0.40022  0.40022  0.00000  0.19955
       9     C     2.98125  2.98125  0.00000  0.03751
      10     H     0.41563  0.41563  0.00000  0.16874
      11     C     3.09132  3.09132  0.00000 -0.18264
      12     N     3.24982  3.24982  0.00000  0.50035
      13     H     0.39918  0.39918  0.00000  0.20163
      14     O     4.17766  4.17766  0.00000 -0.35533
      15     O     4.17510  4.17510  0.00000 -0.35020

   Total alpha = 36.00000, Total beta = 36.00000, Total charge =  0.00000
