  ==> Input File <==

--------------------------------------------------------------------------
set {
	reference rhf
	basis 6-31G*
}

set_num_threads( 1 )
memory 2 gb

molecule MOL {
0 1

O	 -0.291628	 1.323815	 -0.000732
C	 -0.449655	 0.146360	 0.000961
C	 -1.783294	 -0.549321	 -0.000296
O	 0.550821	 -0.724572	 0.000672
H	 -1.863538	 -1.185371	 -0.874187
H	 -2.574672	 0.185258	 -0.002793
H	 -1.866414	 -1.182381	 0.875436
C	 1.566459	 -0.534978	 -0.968252
H	 1.155223	 -0.593940	 -1.965631
H	 2.277838	 -1.330188	 -0.809102
H	 2.042396	 0.425915	 -0.835917

	symmetry c1
}
set optking {
	frozen_dihedral = ("
		2 4 8 9
	")
}

ee = energy('scf')
oeprop('DIPOLE', 'QUADRUPOLE', 'MULLIKEN_CHARGES')
f=open( 'psi4out.xyz', 'w' )
f.write( "11  " )
f.write( str(ee) + "\n" )
f.write( MOL.save_string_xyz() )
f.close()
--------------------------------------------------------------------------

    Molecular point group: c1

    Geometry (in Angstrom), charge = 0, multiplicity = 1:

       Center              X                  Y                   Z               Mass
    ------------   -----------------  -----------------  -----------------  -----------------
           O         -0.228311289179     1.396480721959     0.205279976019    15.994914619560
           C         -0.386338289179     0.219025721959     0.206972976019    12.000000000000
           C         -1.719977289179    -0.476655278041     0.205715976019    12.000000000000
           O          0.614137710821    -0.651906278041     0.206683976019    15.994914619560
           H         -1.800221289179    -1.112705278041    -0.668175023981     1.007825032070
           H         -2.511355289179     0.257923721959     0.203218976019     1.007825032070
           H         -1.803097289179    -1.109715278041     1.081447976019     1.007825032070
           C          1.629775710821    -0.462312278041    -0.762240023981    12.000000000000
           H          1.218539710821    -0.521274278041    -1.759619023981     1.007825032070
           H          2.341154710821    -1.257522278041    -0.603090023981     1.007825032070
           H          2.105712710821     0.498580721959    -0.629905023981     1.007825032070

  Charge       = 0
  Multiplicity = 1
  Basis Set: 6-31G*
  Basis Set:

    Orbital Energies (a.u.)
    -----------------------

    Doubly Occupied:

       1A    -20.595033     2A    -20.551325     3A    -11.377225
       4A    -11.288635     5A    -11.234916     6A     -1.468018
       7A     -1.365955     8A     -1.032588     9A     -0.958916
      10A     -0.779592    11A     -0.695453    12A     -0.681615
      13A     -0.674056    14A     -0.602302    15A     -0.592711
      16A     -0.568458    17A     -0.538232    18A     -0.504962
      19A     -0.456571    20A     -0.440724

  @DF-RHF Final Energy:  -266.82421559394425

   => Energetics <=

    Nuclear Repulsion Energy =            183.1029757653897434
    One-Electron Energy =                -727.0397435492127443
    Two-Electron Energy =                 277.1125521898781585
    DFT Exchange-Correlation Energy =       0.0000000000000000
    Empirical Dispersion Energy =           0.0000000000000000
    PCM Polarization Energy =               0.0000000000000000
    EFP Energy =                            0.0000000000000000
    Total Energy =                       -266.8242155939448708

  Mulliken Charges: (a.u.)
   Center  Symbol    Alpha    Beta     Spin     Total
       1     O     4.26884  4.26884  0.00000 -0.53768
       2     C     2.62461  2.62461  0.00000  0.75079
       3     C     3.28316  3.28316  0.00000 -0.56632
       4     O     4.30274  4.30274  0.00000 -0.60548
       5     H     0.40407  0.40407  0.00000  0.19187
       6     H     0.39817  0.39817  0.00000  0.20367
       7     H     0.39860  0.39860  0.00000  0.20280
       8     C     3.09460  3.09460  0.00000 -0.18920
       9     H     0.41787  0.41787  0.00000  0.16426
      10     H     0.40521  0.40521  0.00000  0.18959
      11     H     0.40214  0.40214  0.00000  0.19571

   Total alpha = 20.00000, Total beta = 20.00000, Total charge = -0.00000
