                              Psi4 1.0.54 Driver

  ==> Input File <==

--------------------------------------------------------------------------
set {
	reference rhf
	basis cc-pvtz
}

set_num_threads( 4 )
memory 2 gb

molecule MOL {
0 1

H	 -3.162190	 0.493205	 -0.000107
C	 -2.363908	 -0.234727	 0.000005
O	 -1.158738	 0.454634	 -0.000087
H	 -2.464314	 -0.863616	 -0.882153
H	 -2.464327	 -0.863359	 0.882345
C	 -0.028611	 -0.359694	 0.000037
C	 1.212847	 0.509314	 -0.000053
H	 -0.034155	 -1.007047	 -0.877198
H	 -0.034195	 -1.006836	 0.877430
C	 2.463182	 -0.261515	 -0.408507
H	 1.050933	 1.342898	 -0.674477
H	 1.340382	 0.929519	 0.991468
H	 2.366336	 -0.670633	 -1.408672
H	 3.333930	 0.382495	 -0.400149
H	 2.657887	 -1.086579	 0.268566

	symmetry c1
}
set optking {
	frozen_dihedral = ("
		11 7 6 8
	")
}

ee,wfn = optimize('scf', return_wfn=True)
oeprop( wfn, 'DIPOLE', 'QUADRUPOLE', 'MULLIKEN_CHARGES')
f=open( 'psi4out.xyz', 'w' )
f.write( "15  " )
f.write( str(ee) + "\n" )
f.write( MOL.save_string_xyz() )
f.close()
--------------------------------------------------------------------------

    Molecular point group: c1
  Charge       = 0
  Multiplicity = 1
  Basis Set: CC-PVTZ
  Basis Set:
  @DF-RHF Final Energy:  -232.22711226794141
    Total Energy =                       -232.2271122679414361
    Molecular point group: c1
  Basis Set: CC-PVTZ
  Basis Set:
  Basis Set: CC-PVTZ
  Basis Set:
  @DF-RHF Final Energy:  -232.22724276431711
    Total Energy =                       -232.2272427643170545
  Basis Set: CC-PVTZ
  Basis Set:
  Basis Set: CC-PVTZ
  Basis Set:
  @DF-RHF Final Energy:  -232.22728203943754
    Total Energy =                       -232.2272820394373980
  Basis Set: CC-PVTZ
  Basis Set:
  Charge       = 0
  Multiplicity = 1
  Basis Set: CC-PVTZ
  Basis Set:

    Orbital Energies (a.u.)
    -----------------------

    Doubly Occupied:

       1A    -20.548285     2A    -11.264414     3A    -11.262034
       4A    -11.212640     5A    -11.210806     6A     -1.382516
       7A     -1.057937     8A     -0.956393     9A     -0.877892
      10A     -0.809974    11A     -0.675913    12A     -0.657226
      13A     -0.632935    14A     -0.606630    15A     -0.565926
      16A     -0.541441    17A     -0.504039    18A     -0.491072
      19A     -0.476937    20A     -0.463072    21A     -0.416247

  @DF-RHF Final Energy:  -232.22728294634024

   => Energetics <=

    Nuclear Repulsion Energy =            189.9575100349062211
    One-Electron Energy =                -691.1409286863581656
    Two-Electron Energy =                 268.9561357051115920
    DFT Exchange-Correlation Energy =       0.0000000000000000
    Empirical Dispersion Energy =           0.0000000000000000
    PCM Polarization Energy =               0.0000000000000000
    EFP Energy =                            0.0000000000000000
    Total Energy =                       -232.2272829463403241
    Molecular point group: c1
  Basis Set: CC-PVTZ
  Basis Set:

  -Total Gradient:
     Atom            X                  Y                   Z
    ------   -----------------  -----------------  -----------------
       1       -0.000037140547    -0.000018303469     0.000000004991
       2       -0.000034342193     0.000021689943     0.000017793509
       3       -0.000068139978     0.000010711599     0.000008870956
       4        0.000005821101     0.000006411311     0.000011608854
       5       -0.000008639664    -0.000000384718    -0.000013410897
       6       -0.002060190896     0.003144880978    -0.001555048896
       7        0.001878133590    -0.002636950193    -0.002488882644
       8        0.001529779118    -0.002240542589     0.001651424590
       9       -0.000029153450     0.000033169757    -0.000019896943
      10        0.000066944984    -0.000010080132    -0.000044688071
      11       -0.001202807437     0.001661735791     0.002409075021
      12        0.000000456151     0.000008294257    -0.000006305192
      13       -0.000005823067     0.000004483612     0.000044327189
      14       -0.000018811262    -0.000021260800    -0.000001507372
      15       -0.000016086453     0.000036144653    -0.000013365095

  **** Optimization is complete! (in 4 steps) ****
    Final optimized geometry and variables:
    Molecular point group: c1

    Geometry (in Angstrom), charge = 0, multiplicity = 1:

    H           -3.159998509595     0.476527475925     0.129087152750
    C           -2.359351659238    -0.248817988542     0.117727251363
    O           -1.156641972792     0.443728442816     0.076803962321
    H           -2.480572945660    -0.889509945614    -0.753288642120
    H           -2.434318436041    -0.866341746059     1.010324798782
    C           -0.025453942107    -0.366319042539     0.049405093072
    C            1.220609603301     0.500448338082     0.063902001657
    H           -0.030378394587    -1.009067633663    -0.831539197043
    H           -0.023104354224    -1.032463624493     0.912971805216
    C            2.480690225874    -0.270485702120    -0.308608378575
    H            1.061358653280     1.337384655440    -0.606446112840
    H            1.331246986688     0.931720493971     1.053650214871
    H            2.422193293760    -0.655916420826    -1.320678340881
    H            3.355947458691     0.364481018328    -0.246452208926
    H            2.639102476453    -1.112901130260     0.357096627976

  Mulliken Charges: (a.u.)
   Center  Symbol    Alpha    Beta     Spin     Total
       1     H     0.44682  0.44682  0.00000  0.10637
       2     C     3.03267  3.03267  0.00000 -0.06535
       3     O     4.17131  4.17131  0.00000 -0.34261
       4     H     0.47230  0.47230  0.00000  0.05539
       5     H     0.47168  0.47168  0.00000  0.05663
       6     C     2.95621  2.95621  0.00000  0.08759
       7     C     3.08123  3.08123  0.00000 -0.16247
       8     H     0.47733  0.47733  0.00000  0.04533
       9     H     0.47529  0.47529  0.00000  0.04941
      10     C     3.15503  3.15503  0.00000 -0.31007
      11     H     0.44940  0.44940  0.00000  0.10120
      12     H     0.45311  0.45311  0.00000  0.09378
      13     H     0.45486  0.45486  0.00000  0.09029
      14     H     0.44654  0.44654  0.00000  0.10691
      15     H     0.45620  0.45620  0.00000  0.08759

   Total alpha = 21.00000, Total beta = 21.00000, Total charge = -0.00000

*** Psi4 exiting successfully. Buy a developer a beer!
