                              Psi4 1.0.54 Driver

  ==> Input File <==

--------------------------------------------------------------------------
set {
	reference rhf
	basis cc-pvtz
}

set_num_threads( 4 )
memory 2 gb

molecule MOL {
0 1

H	 -3.436473	 1.252944	 -1.023892
O	 -3.458596	 0.315260	 -0.960865
C	 -3.176635	 -0.080824	 0.355601
C	 -1.763371	 0.265266	 0.799691
H	 -3.321825	 -1.153438	 0.379502
H	 -3.895468	 0.357385	 1.043382
C	 -1.634318	 0.533313	 2.296294
H	 -1.094438	 -0.544579	 0.512385
H	 -1.438449	 1.139309	 0.240351
C	 -0.204604	 0.846397	 2.729730
H	 -2.001418	 -0.326135	 2.846294
H	 -2.281963	 1.364979	 2.563489
C	 -0.083188	 1.118624	 4.227795
H	 0.437708	 0.016774	 2.450355
H	 0.158294	 1.711966	 2.179319
C	 1.316841	 1.516446	 4.698436
H	 -0.409453	 0.239862	 4.779319
H	 -0.773912	 1.914504	 4.492549
C	 2.369327	 0.417726	 4.571027
H	 1.255484	 1.819150	 5.739292
H	 1.644258	 2.394283	 4.147418
H	 2.066061	 -0.475642	 5.107683
H	 3.317261	 0.743759	 4.983782
H	 2.543245	 0.139945	 3.538460

	symmetry c1
}
set optking {
	frozen_dihedral = ("
		7 4 3 2
	")
}

ee,wfn = optimize('scf', return_wfn=True)
oeprop( wfn, 'DIPOLE', 'QUADRUPOLE', 'MULLIKEN_CHARGES')
f=open( 'psi4out.xyz', 'w' )
f.write( "24  " )
f.write( str(ee) + "\n" )
f.write( MOL.save_string_xyz() )
f.close()
--------------------------------------------------------------------------

    Molecular point group: c1
  Charge       = 0
  Multiplicity = 1
  Basis Set: CC-PVTZ
  Basis Set:
  @DF-RHF Final Energy:  -349.37699394581119
    Total Energy =                       -349.3769939458110230
    Molecular point group: c1
  Basis Set: CC-PVTZ
  Basis Set:
  Basis Set: CC-PVTZ
  Basis Set:
  @DF-RHF Final Energy:  -349.37723252471909
    Total Energy =                       -349.3772325247188064
  Basis Set: CC-PVTZ
  Basis Set:
  Basis Set: CC-PVTZ
  Basis Set:
  @DF-RHF Final Energy:  -349.37725764941996
    Total Energy =                       -349.3772576494199029
  Basis Set: CC-PVTZ
  Basis Set:
  Charge       = 0
  Multiplicity = 1
  Basis Set: CC-PVTZ
  Basis Set:

    Orbital Energies (a.u.)
    -----------------------

    Doubly Occupied:

       1A    -20.544639     2A    -11.264997     3A    -11.217398
       4A    -11.214775     5A    -11.214726     6A    -11.213972
       7A    -11.213077     8A    -11.207186     9A     -1.362962
      10A     -1.093981    11A     -1.052054    12A     -0.987077
      13A     -0.915751    14A     -0.852807    15A     -0.805511
      16A     -0.780082    17A     -0.691295    18A     -0.656352
      19A     -0.624745    20A     -0.612995    21A     -0.602670
      22A     -0.587460    23A     -0.557902    24A     -0.542225
      25A     -0.531100    26A     -0.510774    27A     -0.491307
      28A     -0.485442    29A     -0.473251    30A     -0.462209
      31A     -0.456574    32A     -0.448205    33A     -0.424089

  @DF-RHF Final Energy:  -349.37725851198144

   => Energetics <=

    Nuclear Repulsion Energy =            380.4706888491065797
    One-Electron Energy =               -1227.4967069079666544
    Two-Electron Energy =                 497.6487595468790346
    DFT Exchange-Correlation Energy =       0.0000000000000000
    Empirical Dispersion Energy =           0.0000000000000000
    PCM Polarization Energy =               0.0000000000000000
    EFP Energy =                            0.0000000000000000
    Total Energy =                       -349.3772585119809833
    Molecular point group: c1
  Basis Set: CC-PVTZ
  Basis Set:

  -Total Gradient:
     Atom            X                  Y                   Z
    ------   -----------------  -----------------  -----------------
       1       -0.000014231998    -0.000006179269     0.000022456247
       2       -0.001248569776     0.003441375738     0.001291931709
       3        0.001464288627    -0.003394015915    -0.002015439228
       4        0.000562836100    -0.003576327538     0.001249754017
       5       -0.000028421800     0.000009320373    -0.000014056461
       6        0.000029046509     0.000015073257     0.000002191731
       7       -0.000724253015     0.003518624059    -0.000589731280
       8       -0.000046605473     0.000024933766     0.000010760916
       9       -0.000020256507     0.000014933362    -0.000000780327
      10        0.000015200844    -0.000011288172     0.000006487019
      11       -0.000015860831    -0.000015503820     0.000041597381
      12       -0.000003129513    -0.000004728383    -0.000017631204
      13        0.000024533202    -0.000038038294     0.000005700462
      14       -0.000014105748     0.000014844301     0.000004298627
      15        0.000000604928     0.000010750868    -0.000005741653
      16        0.000002052247     0.000005163051    -0.000029487209
      17        0.000000613771    -0.000014388233     0.000002126848
      18        0.000002325923    -0.000001102795     0.000008267424
      19        0.000009599792    -0.000003097435     0.000012235887
      20       -0.000004925532     0.000010416063    -0.000002268717
      21        0.000003369269    -0.000003088046    -0.000010188359
      22       -0.000000701239    -0.000008735933    -0.000001044667
      23       -0.000004127999    -0.000001305499     0.000007330881
      24        0.000010718217     0.000012364494     0.000021229955

  **** Optimization is complete! (in 4 steps) ****
    Final optimized geometry and variables:
    Molecular point group: c1

    Geometry (in Angstrom), charge = 0, multiplicity = 1:

    H           -2.544367715635     0.645502561967    -3.308129426514
    O           -2.602257760609    -0.290037814705    -3.243126508933
    C           -2.305242203566    -0.692223028482    -1.933028512988
    C           -0.882741950515    -0.336271743804    -1.497755916172
    H           -2.460556469651    -1.761954630446    -1.902979955725
    H           -3.018531061162    -0.247102324900    -1.242637291700
    C           -0.758961480742    -0.080065833911     0.001860212301
    H           -0.192830220447    -1.112527847842    -1.811203784926
    H           -0.582769543396     0.564799649468    -2.027600868029
    C            0.667999172129     0.228694296196     0.446785464970
    H           -1.124248544081    -0.944820108539     0.552311817541
    H           -1.409289259198     0.747342760911     0.273675224564
    C            0.780064172756     0.501809896363     1.945433640838
    H            1.309666750443    -0.601915551352     0.171043505028
    H            1.034638175553     1.093170387066    -0.102538146910
    C            2.177867200645     0.898168832728     2.424046033442
    H            0.449843580454    -0.376203671361     2.496049950842
    H            0.088944594710     1.298990731628     2.205643971092
    C            3.228947692716    -0.203005743027     2.306798420215
    H            2.109990762565     1.204044974981     3.463524859773
    H            2.510402330706     1.773814699226     1.872699492295
    H            2.919487022181    -1.095055719711     2.842082958677
    H            4.173882414405     0.121755736062     2.727151189122
    H            3.411200922655    -0.482465918882     1.276193394449

  Mulliken Charges: (a.u.)
   Center  Symbol    Alpha    Beta     Spin     Total
       1     H     0.39497  0.39497  0.00000  0.21005
       2     O     4.20225  4.20225  0.00000 -0.40449
       3     C     2.96986  2.96986  0.00000  0.06028
       4     C     3.09488  3.09488  0.00000 -0.18976
       5     H     0.45242  0.45242  0.00000  0.09517
       6     H     0.47222  0.47222  0.00000  0.05557
       7     C     3.09899  3.09899  0.00000 -0.19798
       8     H     0.45057  0.45057  0.00000  0.09886
       9     H     0.45910  0.45910  0.00000  0.08181
      10     C     3.09263  3.09263  0.00000 -0.18525
      11     H     0.45283  0.45283  0.00000  0.09434
      12     H     0.45450  0.45450  0.00000  0.09100
      13     C     3.09450  3.09450  0.00000 -0.18900
      14     H     0.45123  0.45123  0.00000  0.09753
      15     H     0.45427  0.45427  0.00000  0.09146
      16     C     3.09045  3.09045  0.00000 -0.18091
      17     H     0.45387  0.45387  0.00000  0.09225
      18     H     0.45002  0.45002  0.00000  0.09996
      19     C     3.15248  3.15248  0.00000 -0.30495
      20     H     0.44837  0.44837  0.00000  0.10326
      21     H     0.45487  0.45487  0.00000  0.09026
      22     H     0.45484  0.45484  0.00000  0.09033
      23     H     0.44628  0.44628  0.00000  0.10744
      24     H     0.45361  0.45361  0.00000  0.09277

   Total alpha = 33.00000, Total beta = 33.00000, Total charge =  0.00000

*** Psi4 exiting successfully. Buy a developer a beer!
