  ==> Input File <==

--------------------------------------------------------------------------
set {
	reference rhf
	basis 6-31G*
}

set_num_threads( 4 )
memory 2 gb

molecule MOL {
0 1

H	 3.123278	 -1.185675	 1.026524
O	 2.826016	 -1.159218	 0.122261
C	 2.077727	 -0.067559	 -0.035091
C	 0.624473	 -0.343591	 0.253101
O	 2.542965	 0.974826	 -0.363729
C	 -0.265902	 0.883932	 0.072916
H	 0.324016	 -1.163849	 -0.390541
H	 0.565024	 -0.726111	 1.268924
C	 -1.728698	 0.646073	 0.462102
H	 -0.209144	 1.219470	 -0.958188
H	 0.135059	 1.692851	 0.673903
C	 -2.482460	 -0.343073	 -0.431425
H	 -2.245265	 1.602650	 0.432430
H	 -1.779332	 0.308348	 1.496285
C	 -3.960546	 -0.461025	 -0.060175
H	 -2.395034	 -0.026811	 -1.468912
H	 -2.024850	 -1.327147	 -0.371646
H	 -4.472726	 -1.168004	 -0.705284
H	 -4.465146	 0.496508	 -0.151489
H	 -4.081218	 -0.800940	 0.964585

	symmetry c1
}
set optking {
	frozen_dihedral = ("
		1 2 3 5
	")
}

ee = optimize('scf')
oeprop('DIPOLE', 'QUADRUPOLE', 'MULLIKEN_CHARGES')
f=open( 'psi4out.xyz', 'w' )
f.write( "20  " )
f.write( str(ee) + "\n" )
f.write( MOL.save_string_xyz() )
f.close()
--------------------------------------------------------------------------

    Molecular point group: c1
  Charge       = 0
  Multiplicity = 1
  Basis Set: 6-31G*
  Basis Set:
  @DF-RHF Final Energy:  -383.92556201181782
    Total Energy =                       -383.9255620118177603
    Molecular point group: c1
  Basis Set: 6-31G*
  Basis Set:
  Basis Set: 6-31G*
  Basis Set:
  @DF-RHF Final Energy:  -383.92617086778068
    Total Energy =                       -383.9261708677805132
  Basis Set: 6-31G*
  Basis Set:
  Basis Set: 6-31G*
  Basis Set:
  @DF-RHF Final Energy:  -383.92706996255902
    Total Energy =                       -383.9270699625592442
  Basis Set: 6-31G*
  Basis Set:
  Basis Set: 6-31G*
  Basis Set:
  @DF-RHF Final Energy:  -383.92733415394247
    Total Energy =                       -383.9273341539425246
  Basis Set: 6-31G*
  Basis Set:
  Basis Set: 6-31G*
  Basis Set:
  @DF-RHF Final Energy:  -383.92733666846897
    Total Energy =                       -383.9273366684691950
  Basis Set: 6-31G*
  Basis Set:
  Basis Set: 6-31G*
  Basis Set:
  @DF-RHF Final Energy:  -383.92733943101763
    Total Energy =                       -383.9273394310177423
  Basis Set: 6-31G*
  Basis Set:
  Charge       = 0
  Multiplicity = 1
  Basis Set: 6-31G*
  Basis Set:

    Orbital Energies (a.u.)
    -----------------------

    Doubly Occupied:

       1A    -20.593475     2A    -20.562514     3A    -11.381295
       4A    -11.242405     5A    -11.224458     6A    -11.222222
       7A    -11.221409     8A    -11.213484     9A     -1.459595
      10A     -1.366844    11A     -1.096985    12A     -1.040456
      13A     -0.958928    14A     -0.865331    15A     -0.816000
      16A     -0.782713    17A     -0.711268    18A     -0.675857
      19A     -0.658183    20A     -0.638645    21A     -0.614086
      22A     -0.587990    23A     -0.562045    24A     -0.553202
      25A     -0.528270    26A     -0.509707    27A     -0.501727
      28A     -0.492771    29A     -0.470849    30A     -0.465723
      31A     -0.459184    32A     -0.442905

  @DF-RHF Final Energy:  -383.92733959750308

   => Energetics <=

    Nuclear Repulsion Energy =            375.0652412759716299
    One-Electron Energy =               -1266.1441161442858174
    Two-Electron Energy =                 507.1515352708113369
    DFT Exchange-Correlation Energy =       0.0000000000000000
    Empirical Dispersion Energy =           0.0000000000000000
    PCM Polarization Energy =               0.0000000000000000
    EFP Energy =                            0.0000000000000000
    Total Energy =                       -383.9273395975028507
    Molecular point group: c1
  Basis Set: 6-31G*
  Basis Set:

  -Total Gradient:
     Atom            X                  Y                   Z
    ------   -----------------  -----------------  -----------------
       1       -0.002118115138    -0.001328329100     0.000868169092
       2        0.002460969412     0.001386154724    -0.002112682869
       3        0.000132088084     0.000613712447     0.003422464313
       4        0.000043831298    -0.000031958927    -0.000045963965
       5       -0.000445526099    -0.000685343034    -0.002177232687
       6       -0.000020680782    -0.000023427373     0.000029403627
       7        0.000000786319     0.000016079732     0.000015417292
       8        0.000009712084     0.000007318237    -0.000006144936
       9       -0.000029512740     0.000046578821    -0.000005947238
      10        0.000003509135     0.000004013429     0.000012875843
      11       -0.000005521872    -0.000007298496     0.000006964189
      12        0.000003374284    -0.000001083915     0.000005009302
      13       -0.000027990014    -0.000003619758    -0.000012097084
      14       -0.000008050543     0.000017836184    -0.000003295159
      15        0.000003308755    -0.000013379068     0.000008124270
      16       -0.000006917923     0.000007573328     0.000003462564
      17        0.000003216817    -0.000002224466    -0.000008513176
      18       -0.000000420471    -0.000003332370     0.000001923508
      19        0.000004043519    -0.000001325434    -0.000002815756
      20       -0.000002104137     0.000002055041     0.000000878872

  **** Optimization is complete! (in 7 steps) ****
    Final optimized geometry and variables:
    Molecular point group: c1

    Geometry (in Angstrom), charge = 0, multiplicity = 1:

    H            3.238512829266    -1.224387727783     0.987217411802
    O            2.863941706334    -1.172149526796     0.116184925163
    C            2.083394466838    -0.063333641082    -0.028283992480
    C            0.626136653206    -0.327455257516     0.260281497323
    O            2.529741906531     0.960887941145    -0.406273069792
    C           -0.267622485882     0.896369035926     0.074256058109
    H            0.330406287980    -1.151967127148    -0.380844486122
    H            0.557446979202    -0.711276480664     1.276779656782
    C           -1.732616373661     0.656898884665     0.454763099300
    H           -0.204428319930     1.229514436339    -0.957066917225
    H            0.127101099638     1.708548906915     0.675800802226
    C           -2.478420935847    -0.336495522236    -0.440713055616
    H           -2.251108751786     1.612198498305     0.418808141376
    H           -1.789783442289     0.322313589553     1.489782869492
    C           -3.958046436489    -0.458415953787    -0.076993361202
    H           -2.386420492136    -0.021947254011    -1.478214562291
    H           -2.017997075592    -1.318997672190    -0.376823548148
    H           -4.464339098387    -1.168625943955    -0.723131900160
    H           -4.465321054036     0.497186460680    -0.173407675201
    H           -4.083249099714    -0.796248812564     0.947956165150

  Mulliken Charges: (a.u.)
   Center  Symbol    Alpha    Beta     Spin     Total
       1     H     0.26639  0.26639  0.00000  0.46723
       2     O     4.37058  4.37058  0.00000 -0.74116
       3     C     2.62932  2.62932  0.00000  0.74136
       4     C     3.21245  3.21245  0.00000 -0.42490
       5     O     4.24516  4.24516  0.00000 -0.49031
       6     C     3.15453  3.15453  0.00000 -0.30906
       7     H     0.39489  0.39489  0.00000  0.21023
       8     H     0.41041  0.41041  0.00000  0.17918
       9     C     3.15536  3.15536  0.00000 -0.31073
      10     H     0.41043  0.41043  0.00000  0.17914
      11     H     0.41028  0.41028  0.00000  0.17944
      12     C     3.15485  3.15485  0.00000 -0.30971
      13     H     0.41758  0.41758  0.00000  0.16483
      14     H     0.42475  0.42475  0.00000  0.15051
      15     C     3.23927  3.23927  0.00000 -0.47854
      16     H     0.42069  0.42069  0.00000  0.15862
      17     H     0.42290  0.42290  0.00000  0.15420
      18     H     0.41800  0.41800  0.00000  0.16401
      19     H     0.42047  0.42047  0.00000  0.15906
      20     H     0.42170  0.42170  0.00000  0.15661

   Total alpha = 32.00000, Total beta = 32.00000, Total charge =  0.00000
