                              Psi4 1.0.54 Driver

  ==> Input File <==

--------------------------------------------------------------------------
set {
	reference rhf
	basis cc-pvtz
}

set_num_threads( 4 )
memory 2 gb

molecule MOL {
0 1

H	 2.204345	 -0.689865	 -0.323816
C	 1.523030	 -1.079695	 -1.091603
C	 0.224382	 -0.334673	 -1.230361
O	 1.833230	 -2.022592	 -1.733753
C	 -0.554654	 -0.292621	 0.086567
H	 -0.355485	 -0.799703	 -2.016705
H	 0.463094	 0.680405	 -1.541024
C	 -1.846385	 0.513195	 -0.016346
H	 -0.786157	 -1.307544	 0.396851
H	 0.072389	 0.132479	 0.866169
C	 -3.089953	 -0.365049	 -0.098564
H	 -1.798267	 1.154820	 -0.891143
H	 -1.925398	 1.173265	 0.842889
H	 -3.055079	 -1.012299	 -0.968245
H	 -3.988403	 0.236438	 -0.170014
H	 -3.183055	 -0.995885	 0.779079

	symmetry c1
}
set optking {
	frozen_dihedral = ("
		9 5 8 12
	")
}

ee,wfn = optimize('scf', return_wfn=True)
oeprop( wfn, 'DIPOLE', 'QUADRUPOLE', 'MULLIKEN_CHARGES')
f=open( 'psi4out.xyz', 'w' )
f.write( "16  " )
f.write( str(ee) + "\n" )
f.write( MOL.save_string_xyz() )
f.close()
--------------------------------------------------------------------------

    Molecular point group: c1
  Charge       = 0
  Multiplicity = 1
  Basis Set: CC-PVTZ
  Basis Set:
  @DF-RHF Final Energy:  -270.11396982087541
    Total Energy =                       -270.1139698208752407
    Molecular point group: c1
  Basis Set: CC-PVTZ
  Basis Set:
  Basis Set: CC-PVTZ
  Basis Set:
  @DF-RHF Final Energy:  -270.11427639028744
    Total Energy =                       -270.1142763902872730
  Basis Set: CC-PVTZ
  Basis Set:
  Basis Set: CC-PVTZ
  Basis Set:
  @DF-RHF Final Energy:  -270.11436621814249
    Total Energy =                       -270.1143662181426635
  Basis Set: CC-PVTZ
  Basis Set:
  Basis Set: CC-PVTZ
  Basis Set:
  @DF-RHF Final Energy:  -270.11435368314511
    Total Energy =                       -270.1143536831452820
  Basis Set: CC-PVTZ
  Basis Set:
  Basis Set: CC-PVTZ
  Basis Set:
  @DF-RHF Final Energy:  -270.11430677651026
    Total Energy =                       -270.1143067765100909
  Basis Set: CC-PVTZ
  Basis Set:
  Basis Set: CC-PVTZ
  Basis Set:
  @DF-RHF Final Energy:  -270.11437237521989
    Total Energy =                       -270.1143723752200003
  Basis Set: CC-PVTZ
  Basis Set:
  Basis Set: CC-PVTZ
  Basis Set:
  @DF-RHF Final Energy:  -270.11437528334483
    Total Energy =                       -270.1143752833447707
  Basis Set: CC-PVTZ
  Basis Set:
  Charge       = 0
  Multiplicity = 1
  Basis Set: CC-PVTZ
  Basis Set:

    Orbital Energies (a.u.)
    -----------------------

    Doubly Occupied:

       1A    -20.552147     2A    -11.321080     3A    -11.234691
       4A    -11.234076     5A    -11.227297     6A    -11.216039
       7A     -1.406788     8A     -1.096055     9A     -1.017946
      10A     -0.907618    11A     -0.811964    12A     -0.794153
      13A     -0.679270    14A     -0.650842    15A     -0.624695
      16A     -0.611565    17A     -0.584905    18A     -0.548999
      19A     -0.532870    20A     -0.512300    21A     -0.488152
      22A     -0.478865    23A     -0.475938    24A     -0.411342

  @DF-RHF Final Energy:  -270.11437540532700

   => Energetics <=

    Nuclear Repulsion Energy =            231.0460674155842469
    One-Electron Energy =                -823.4816896122001708
    Two-Electron Energy =                 322.3212467912886723
    DFT Exchange-Correlation Energy =       0.0000000000000000
    Empirical Dispersion Energy =           0.0000000000000000
    PCM Polarization Energy =               0.0000000000000000
    EFP Energy =                            0.0000000000000000
    Total Energy =                       -270.1143754053272232
    Molecular point group: c1
  Basis Set: CC-PVTZ
  Basis Set:

  -Total Gradient:
     Atom            X                  Y                   Z
    ------   -----------------  -----------------  -----------------
       1       -0.000012259879    -0.000016970857     0.000000456259
       2        0.000016349578     0.000018232254    -0.000020612026
       3       -0.000016557737    -0.000019315883     0.000044068652
       4        0.000002604421     0.000009324280     0.000002885178
       5        0.000119844747     0.000567872648     0.003256406020
       6        0.000007367635     0.000002556312     0.000003764364
       7       -0.000001290952    -0.000008415046    -0.000009812501
       8        0.001500895679     0.002622315596     0.001363202139
       9       -0.000330908218    -0.000883433442    -0.002960397255
      10        0.000002509744    -0.000007005184    -0.000004392816
      11       -0.000004479833     0.000005435974     0.000000498240
      12       -0.001282467919    -0.002287179306    -0.001671177053
      13       -0.000004239043    -0.000001648170    -0.000004473137
      14        0.000000212402     0.000003465093    -0.000004082793
      15       -0.000002449176    -0.000001844633     0.000005084103
      16        0.000004868550    -0.000003389634    -0.000001417375

  **** Optimization is complete! (in 8 steps) ****
    Final optimized geometry and variables:
    Molecular point group: c1

    Geometry (in Angstrom), charge = 0, multiplicity = 1:

    H            2.551743001097    -0.140781698940     0.291091010861
    C            1.826544396187    -0.518740734116    -0.441692545534
    C            0.556053959327     0.277630879488    -0.551498817880
    O            2.072567429799    -1.489456786756    -1.070295238158
    C           -0.181625291598     0.365112144280     0.790097219824
    H           -0.065595165251    -0.172699879758    -1.314470672875
    H            0.824939013030     1.278863862094    -0.880451038028
    C           -1.492127224955     1.168587437404     0.696130574230
    H           -0.400332705684    -0.646440701364     1.116661652830
    H            0.478231674102     0.803351399305     1.530869999097
    C           -2.731579056346     0.280594404289     0.608658246643
    H           -1.466170716320     1.800224166673    -0.185749453845
    H           -1.585831506774     1.826332281961     1.552119943809
    H           -2.674632626144    -0.390254487456    -0.242138837719
    H           -3.631094922038     0.875366826139     0.500288362876
    H           -2.840067289825    -0.326835630521     1.500451372525

  Mulliken Charges: (a.u.)
   Center  Symbol    Alpha    Beta     Spin     Total
       1     H     0.46503  0.46503  0.00000  0.06994
       2     C     2.91091  2.91091  0.00000  0.17818
       3     C     3.07744  3.07744  0.00000 -0.15488
       4     O     4.16394  4.16394  0.00000 -0.32788
       5     C     3.10971  3.10971  0.00000 -0.21941
       6     H     0.44268  0.44268  0.00000  0.11464
       7     H     0.44981  0.44981  0.00000  0.10039
       8     C     3.08930  3.08930  0.00000 -0.17861
       9     H     0.44647  0.44647  0.00000  0.10705
      10     H     0.44437  0.44437  0.00000  0.11125
      11     C     3.14682  3.14682  0.00000 -0.29363
      12     H     0.45374  0.45374  0.00000  0.09253
      13     H     0.44576  0.44576  0.00000  0.10848
      14     H     0.45257  0.45257  0.00000  0.09487
      15     H     0.44784  0.44784  0.00000  0.10432
      16     H     0.45362  0.45362  0.00000  0.09277

   Total alpha = 24.00000, Total beta = 24.00000, Total charge = -0.00000

*** Psi4 exiting successfully. Buy a developer a beer!
