  ==> Input File <==

--------------------------------------------------------------------------
set {
	reference rhf
	basis 6-31G*
}

set_num_threads( 4 )
memory 2 gb

molecule MOL {
0 1

H	 2.014914	 -0.726108	 -2.709555
O	 2.443552	 -0.199062	 -2.049108
C	 1.588601	 0.138381	 -1.063021
C	 2.088218	 0.915726	 -0.022799
C	 0.264988	 -0.256789	 -1.058397
H	 3.120453	 1.210081	 -0.049334
C	 1.262564	 1.293602	 1.015743
H	 -0.146399	 -0.855765	 -1.846759
C	 -0.536158	 0.140425	 0.000000
H	 1.656573	 1.893771	 1.814750
C	 -0.071340	 0.909175	 1.043319
N	 -1.935604	 -0.280333	 0.000000
H	 -0.724095	 1.194445	 1.842029
O	 -2.161694	 -1.452901	 0.000000
O	 -2.770341	 0.571417	 0.000000

	symmetry c1
}
set optking {
	frozen_dihedral = ("
		11 9 12 14
	")
}

ee = optimize('scf')
oeprop('DIPOLE', 'QUADRUPOLE', 'MULLIKEN_CHARGES')
f=open( 'psi4out.xyz', 'w' )
f.write( "15  " )
f.write( str(ee) + "\n" )
f.write( MOL.save_string_xyz() )
f.close()
--------------------------------------------------------------------------

    Molecular point group: c1
  Charge       = 0
  Multiplicity = 1
  Basis Set: 6-31G*
  Basis Set:
  @DF-RHF Final Energy:  -509.01996798001181
    Total Energy =                       -509.0199679800114154
    Molecular point group: c1
  Basis Set: 6-31G*
  Basis Set:
  Basis Set: 6-31G*
  Basis Set:
  @DF-RHF Final Energy:  -509.01482629267099
    Total Energy =                       -509.0148262926707048
  Basis Set: 6-31G*
  Basis Set:
  Basis Set: 6-31G*
  Basis Set:
  @DF-RHF Final Energy:  -509.02028619855793
    Total Energy =                       -509.0202861985580967
  Basis Set: 6-31G*
  Basis Set:
  Basis Set: 6-31G*
  Basis Set:
  @DF-RHF Final Energy:  -509.02061624136712
    Total Energy =                       -509.0206162413674065
  Basis Set: 6-31G*
  Basis Set:
  @DF-RHF Final Energy:  -509.02062040724672
    Total Energy =                       -509.0206204072464971
  @DF-RHF Final Energy:  -509.02062065846906
    Total Energy =                       -509.0206206584691699
  @DF-RHF Final Energy:  -509.01952372912029
    Total Energy =                       -509.0195237291202375
  @DF-RHF Final Energy:  -509.02061308562770
    Total Energy =                       -509.0206130856279287
  @DF-RHF Final Energy:  -509.02062041194364
    Total Energy =                       -509.0206204119438098
  @DF-RHF Final Energy:  -509.02061977829743
    Total Energy =                       -509.0206197782978279
  Basis Set: 6-31G*
  Basis Set:
  @DF-RHF Final Energy:  -509.02061784093200
    Total Energy =                       -509.0206178409323456
  Basis Set: 6-31G*
  Basis Set:
  Basis Set: 6-31G*
  Basis Set:
  @DF-RHF Final Energy:  -509.01715918879268
    Total Energy =                       -509.0171591887929026
  Basis Set: 6-31G*
  Basis Set:
  Basis Set: 6-31G*
  Basis Set:
  @DF-RHF Final Energy:  -509.02061064241553
    Total Energy =                       -509.0206106424155905
  Basis Set: 6-31G*
  Basis Set:
  Charge       = 0
  Multiplicity = 1
  Basis Set: 6-31G*
  Basis Set:

    Orbital Energies (a.u.)
    -----------------------

    Doubly Occupied:

       1A    -20.617622     2A    -20.609076     3A    -20.608730
       4A    -15.859000     5A    -11.333058     6A    -11.315393
       7A    -11.268594     8A    -11.268543     9A    -11.263811
      10A    -11.256407    11A     -1.640565    12A     -1.438602
      13A     -1.424558    14A     -1.202417    15A     -1.095831
      16A     -1.048385    17A     -0.965876    18A     -0.883387
      19A     -0.829928    20A     -0.789312    21A     -0.761493
      22A     -0.734519    23A     -0.720670    24A     -0.710664
      25A     -0.669483    26A     -0.635546    27A     -0.617748
      28A     -0.593321    29A     -0.563105    30A     -0.548188
      31A     -0.529294    32A     -0.490522    33A     -0.487627
      34A     -0.454467    35A     -0.374487    36A     -0.343320

  @DF-RHF Final Energy:  -509.02062097470736

   => Energetics <=

    Nuclear Repulsion Energy =            502.9205068434417285
    One-Electron Energy =               -1691.9751518512939583
    Two-Electron Energy =                 680.0340240331452151
    DFT Exchange-Correlation Energy =       0.0000000000000000
    Empirical Dispersion Energy =           0.0000000000000000
    PCM Polarization Energy =               0.0000000000000000
    EFP Energy =                            0.0000000000000000
    Total Energy =                       -509.0206209747070716
    Molecular point group: c1
  Basis Set: 6-31G*
  Basis Set:

  -Total Gradient:
     Atom            X                  Y                   Z
    ------   -----------------  -----------------  -----------------
       1       -0.000000483868     0.000006039165    -0.000004797114
       2        0.000002633139    -0.000022654740     0.000001548174
       3       -0.000011903827     0.000023275392    -0.000020029394
       4        0.000009110911    -0.000023536532     0.000011970767
       5       -0.000070244420     0.000077663968    -0.000110283825
       6       -0.000004621293     0.000003972667    -0.000002670050
       7       -0.000028704038     0.000072963248    -0.000029514549
       8        0.000008934774    -0.000012380804     0.000001818251
       9       -0.002040740610     0.006318255053    -0.001272510905
      10       -0.000001603863    -0.000015800485     0.000013147541
      11        0.001498953674    -0.004554826307     0.002586450813
      12        0.000410228677    -0.001710253708    -0.007283180653
      13        0.000004013804    -0.000002142407     0.000013293080
      14        0.000204758387    -0.000206264466     0.006198405616
      15        0.000019668551     0.000045689957    -0.000103647749

  **** Optimization is complete! (in 14 steps) ****
    Final optimized geometry and variables:
    Molecular point group: c1

    Geometry (in Angstrom), charge = 0, multiplicity = 1:

    H            2.060170349710    -0.876214569622    -2.456757423738
    O            2.483387699170    -0.341458281335    -1.799116518002
    C            1.626254534486     0.000990079120    -0.818764998314
    C            2.125835671146     0.770121859045     0.227823537352
    C            0.299974571819    -0.391630268291    -0.817968556459
    H            3.161489523301     1.052451497339     0.210610424795
    C            1.297585213067     1.148840170241     1.263516675140
    H           -0.103833640555    -1.014890997386    -1.594439057409
    C           -0.504362203008     0.037221090203     0.220758056570
    H            1.695115556711     1.732194653925     2.073280724267
    C           -0.044065579536     0.786970191608     1.275587872624
    N           -1.890975984002    -0.418670601210     0.243956581517
    H           -0.704365893832     1.086007028134     2.065884807969
    O           -2.076665698431    -1.596751926123     0.217108764562
    O           -2.738185871291     0.415068617386     0.336081191669

  Mulliken Charges: (a.u.)
   Center  Symbol    Alpha    Beta     Spin     Total
       1     H     0.26739  0.26739  0.00000  0.46522
       2     O     4.37440  4.37440  0.00000 -0.74881
       3     C     2.79221  2.79221  0.00000  0.41558
       4     C     3.11388  3.11388  0.00000 -0.22776
       5     C     3.13463  3.13463  0.00000 -0.26926
       6     H     0.38189  0.38189  0.00000  0.23622
       7     C     3.09702  3.09702  0.00000 -0.19404
       8     H     0.37892  0.37892  0.00000  0.24216
       9     C     2.89250  2.89250  0.00000  0.21500
      10     H     0.38661  0.38661  0.00000  0.22677
      11     C     3.09975  3.09975  0.00000 -0.19950
      12     N     3.25789  3.25789  0.00000  0.48422
      13     H     0.37432  0.37432  0.00000  0.25135
      14     O     4.22563  4.22563  0.00000 -0.45125
      15     O     4.22296  4.22296  0.00000 -0.44592

   Total alpha = 36.00000, Total beta = 36.00000, Total charge =  0.00000
