  ==> Input File <==

--------------------------------------------------------------------------
set {
	reference rhf
	basis 6-31G*
}

set_num_threads( 1 )
memory 2 gb

molecule MOL {
0 1

O	 3.225979	 0.970355	 -0.599647
C	 2.701189	 0.057885	 -0.047330
C	 1.245376	 -0.013843	 0.345420
O	 3.347903	 -1.046386	 0.304773
C	 1.015106	 0.209901	 1.838413
H	 0.715852	 0.713244	 -0.261326
H	 0.874319	 -0.986970	 0.033908
C	 -0.444945	 0.036497	 2.270472
H	 1.363886	 1.201614	 2.110400
H	 1.634552	 -0.487374	 2.392054
C	 -1.413011	 1.080927	 1.707333
H	 -0.482025	 0.078441	 3.356561
H	 -0.788546	 -0.959664	 1.995498
C	 -2.834134	 0.930814	 2.254027
H	 -1.040835	 2.076984	 1.942229
H	 -1.445564	 1.015021	 0.622175
C	 -3.811421	 1.966002	 1.694183
H	 -2.812073	 1.009003	 3.339677
H	 -3.202875	 -0.068697	 2.028843
C	 -5.227438	 1.811585	 2.248034
H	 -3.443949	 2.965382	 1.917445
H	 -3.838125	 1.886475	 0.609405
H	 -5.896385	 2.558996	 1.832712
H	 -5.239722	 1.920901	 3.328819
H	 -5.636601	 0.833443	 2.011182
C	 4.728119	 -1.109107	 -0.004993
H	 4.882018	 -1.033965	 -1.071845
H	 5.068212	 -2.067527	 0.355250
H	 5.265056	 -0.311663	 0.488280

	symmetry c1
}
set optking {
	frozen_dihedral = ("
		21 17 14 11,
		17 14 11 15,
		15 11 8 5,
		6 3 5 9,
		11 8 5 9,
		2 4 26 27,
		1 2 4 26
	")
}

ee = energy('scf')
oeprop('DIPOLE', 'QUADRUPOLE', 'MULLIKEN_CHARGES')
f=open( 'psi4out.xyz', 'w' )
f.write( "29  " )
f.write( str(ee) + "\n" )
f.write( MOL.save_string_xyz() )
f.close()
--------------------------------------------------------------------------

    Molecular point group: c1

    Geometry (in Angstrom), charge = 0, multiplicity = 1:

       Center              X                  Y                   Z               Mass
    ------------   -----------------  -----------------  -----------------  -----------------
           O          2.957073310986     0.534915108939    -1.675927777868    15.994914619560
           C          2.432283310986    -0.377554891061    -1.123610777868    12.000000000000
           C          0.976470310986    -0.449282891061    -0.730860777868    12.000000000000
           O          3.078997310986    -1.481825891061    -0.771507777868    15.994914619560
           C          0.746200310986    -0.225538891061     0.762132222132    12.000000000000
           H          0.446946310986     0.277804108939    -1.337606777868     1.007825032070
           H          0.605413310986    -1.422409891061    -1.042372777868     1.007825032070
           C         -0.713850689014    -0.398942891061     1.194191222132    12.000000000000
           H          1.094980310986     0.766174108939     1.034119222132     1.007825032070
           H          1.365646310986    -0.922813891061     1.315773222132     1.007825032070
           C         -1.681916689014     0.645487108939     0.631052222132    12.000000000000
           H         -0.750930689014    -0.356998891061     2.280280222132     1.007825032070
           H         -1.057451689014    -1.395103891061     0.919217222132     1.007825032070
           C         -3.103039689014     0.495374108939     1.177746222132    12.000000000000
           H         -1.309740689014     1.641544108939     0.865948222132     1.007825032070
           H         -1.714469689014     0.579581108939    -0.454105777868     1.007825032070
           C         -4.080326689014     1.530562108939     0.617902222132    12.000000000000
           H         -3.080978689014     0.573563108939     2.263396222132     1.007825032070
           H         -3.471780689014    -0.504136891061     0.952562222132     1.007825032070
           C         -5.496343689014     1.376145108939     1.171753222132    12.000000000000
           H         -3.712854689014     2.529942108939     0.841164222132     1.007825032070
           H         -4.107030689014     1.451035108939    -0.466875777868     1.007825032070
           H         -6.165290689014     2.123556108939     0.756431222132     1.007825032070
           H         -5.508627689014     1.485461108939     2.252538222132     1.007825032070
           H         -5.905506689014     0.398003108939     0.934901222132     1.007825032070
           C          4.459213310986    -1.544546891061    -1.081273777868    12.000000000000
           H          4.613112310986    -1.469404891061    -2.148125777868     1.007825032070
           H          4.799306310986    -2.502966891061    -0.721030777868     1.007825032070
           H          4.996150310986    -0.747102891061    -0.588000777868     1.007825032070

  Charge       = 0
  Multiplicity = 1
  Basis Set: 6-31G*
  Basis Set:

    Orbital Energies (a.u.)
    -----------------------

    Doubly Occupied:

       1A    -20.603635     2A    -20.543585     3A    -11.370543
       4A    -11.280292     5A    -11.232711     6A    -11.229050
       7A    -11.222061     8A    -11.217530     9A    -11.216401
      10A    -11.215617    11A    -11.209429    12A     -1.468379
      13A     -1.361085    14A     -1.101503    15A     -1.068922
      16A     -1.019731    17A     -0.975085    18A     -0.930674
      19A     -0.865042    20A     -0.800613    21A     -0.791430
      22A     -0.772143    23A     -0.697413    24A     -0.678041
      25A     -0.673116    26A     -0.652185    27A     -0.625005
      28A     -0.604026    29A     -0.596127    30A     -0.579707
      31A     -0.567274    32A     -0.550956    33A     -0.540291
      34A     -0.529178    35A     -0.519651    36A     -0.514350
      37A     -0.496688    38A     -0.483230    39A     -0.472380
      40A     -0.464594    41A     -0.463196    42A     -0.455097
      43A     -0.443872    44A     -0.427419

  @DF-RHF Final Energy:  -501.04235742676121

   => Energetics <=

    Nuclear Repulsion Energy =            611.3433230721835798
    One-Electron Energy =               -1893.7123658688942669
    Two-Electron Energy =                 781.3266853699487910
    DFT Exchange-Correlation Energy =       0.0000000000000000
    Empirical Dispersion Energy =           0.0000000000000000
    PCM Polarization Energy =               0.0000000000000000
    EFP Energy =                            0.0000000000000000
    Total Energy =                       -501.0423574267620097

  Mulliken Charges: (a.u.)
   Center  Symbol    Alpha    Beta     Spin     Total
       1     O     4.28432  4.28432  0.00000 -0.56865
       2     C     2.61780  2.61780  0.00000  0.76440
       3     C     3.19652  3.19652  0.00000 -0.39304
       4     O     4.30214  4.30214  0.00000 -0.60428
       5     C     3.16545  3.16545  0.00000 -0.33090
       6     H     0.39855  0.39855  0.00000  0.20290
       7     H     0.40563  0.40563  0.00000  0.18875
       8     C     3.15543  3.15543  0.00000 -0.31086
       9     H     0.41213  0.41213  0.00000  0.17574
      10     H     0.40803  0.40803  0.00000  0.18394
      11     C     3.15507  3.15507  0.00000 -0.31014
      12     H     0.41834  0.41834  0.00000  0.16332
      13     H     0.42134  0.42134  0.00000  0.15732
      14     C     3.15071  3.15071  0.00000 -0.30142
      15     H     0.42156  0.42156  0.00000  0.15688
      16     H     0.42165  0.42165  0.00000  0.15670
      17     C     3.15160  3.15160  0.00000 -0.30321
      18     H     0.42363  0.42363  0.00000  0.15273
      19     H     0.42388  0.42388  0.00000  0.15224
      20     C     3.23943  3.23943  0.00000 -0.47886
      21     H     0.42236  0.42236  0.00000  0.15528
      22     H     0.42276  0.42276  0.00000  0.15447
      23     H     0.41887  0.41887  0.00000  0.16226
      24     H     0.42170  0.42170  0.00000  0.15660
      25     H     0.42182  0.42182  0.00000  0.15636
      26     C     3.09239  3.09239  0.00000 -0.18478
      27     H     0.40882  0.40882  0.00000  0.18236
      28     H     0.40891  0.40891  0.00000  0.18219
      29     H     0.40914  0.40914  0.00000  0.18171

   Total alpha = 44.00000, Total beta = 44.00000, Total charge =  0.00000
