                              Psi4 1.0.54 Driver

  ==> Input File <==

--------------------------------------------------------------------------
set {
	reference rhf
	basis cc-pvtz
}

set_num_threads( 4 )
memory 2 gb

molecule MOL {
0 1

H	 -1.088256	 -1.364742	 0.152233
O	 -1.432053	 -0.565244	 -0.200812
C	 -0.727158	 0.534527	 0.310686
C	 0.680222	 0.664433	 -0.252229
H	 -1.306802	 1.408001	 0.044211
H	 -0.690821	 0.490158	 1.397609
C	 0.730408	 0.772103	 -1.773391
H	 1.152187	 1.534265	 0.192599
H	 1.250275	 -0.203633	 0.067381
H	 0.221440	 1.662200	 -2.126668
H	 1.753524	 0.828660	 -2.124941
H	 0.267653	 -0.089866	 -2.244372

	symmetry c1
}
set optking {
	frozen_dihedral = ("
		8 4 3 2
	")
}

ee,wfn = optimize('scf', return_wfn=True)
oeprop( wfn, 'DIPOLE', 'QUADRUPOLE', 'MULLIKEN_CHARGES')
f=open( 'psi4out.xyz', 'w' )
f.write( "12  " )
f.write( str(ee) + "\n" )
f.write( MOL.save_string_xyz() )
f.close()
--------------------------------------------------------------------------

    Molecular point group: c1
  Charge       = 0
  Multiplicity = 1
  Basis Set: CC-PVTZ
  Basis Set:
  @DF-RHF Final Energy:  -193.19073180835642
    Total Energy =                       -193.1907318083564462
    Molecular point group: c1
  Basis Set: CC-PVTZ
  Basis Set:
  Basis Set: CC-PVTZ
  Basis Set:
  @DF-RHF Final Energy:  -193.19089136825480
    Total Energy =                       -193.1908913682547109
  Basis Set: CC-PVTZ
  Basis Set:
  Basis Set: CC-PVTZ
  Basis Set:
  @DF-RHF Final Energy:  -193.19092054945344
    Total Energy =                       -193.1909205494533239
  Basis Set: CC-PVTZ
  Basis Set:
  Basis Set: CC-PVTZ
  Basis Set:
  @DF-RHF Final Energy:  -193.19092281393185
    Total Energy =                       -193.1909228139318202
  Basis Set: CC-PVTZ
  Basis Set:
  Charge       = 0
  Multiplicity = 1
  Basis Set: CC-PVTZ
  Basis Set:

    Orbital Energies (a.u.)
    -----------------------

    Doubly Occupied:

       1A    -20.546974     2A    -11.266153     3A    -11.218085
       4A    -11.205920     5A     -1.364913     6A     -1.049779
       7A     -0.922568     8A     -0.814436     9A     -0.682451
      10A     -0.639991    11A     -0.626193    12A     -0.568002
      13A     -0.530265    14A     -0.521043    15A     -0.485286
      16A     -0.468053    17A     -0.433442

  @DF-RHF Final Energy:  -193.19092297077304

   => Energetics <=

    Nuclear Repulsion Energy =            133.2786446207338145
    One-Electron Energy =                -526.2520301712893342
    Two-Electron Energy =                 199.7824625797824183
    DFT Exchange-Correlation Energy =       0.0000000000000000
    Empirical Dispersion Energy =           0.0000000000000000
    PCM Polarization Energy =               0.0000000000000000
    EFP Energy =                            0.0000000000000000
    Total Energy =                       -193.1909229707731015
    Molecular point group: c1
  Basis Set: CC-PVTZ
  Basis Set:

  -Total Gradient:
     Atom            X                  Y                   Z
    ------   -----------------  -----------------  -----------------
       1        0.000000979792     0.000008327291    -0.000000502080
       2       -0.000273958465     0.000436124148    -0.000606592719
       3        0.000310550764    -0.000464641928     0.000667504128
       4        0.000304458928    -0.000518539375     0.000685178481
       5       -0.000005283039    -0.000013269827    -0.000007970136
       6       -0.000002927245     0.000002095232     0.000001263510
       7        0.000016829181     0.000011593454    -0.000015738589
       8       -0.000336095029     0.000546954026    -0.000737477761
       9        0.000007768679     0.000001850653    -0.000001801712
      10        0.000004583791     0.000004224810     0.000004960438
      11       -0.000020480405    -0.000000821707     0.000009677338
      12       -0.000006426954    -0.000013896777     0.000001499101

  **** Optimization is complete! (in 5 steps) ****
    Final optimized geometry and variables:
    Molecular point group: c1

    Geometry (in Angstrom), charge = 0, multiplicity = 1:

    H           -0.826409671075    -1.668005903539     0.577659177646
    O           -1.222845414114    -0.868524335254     0.281884225887
    C           -0.508318642325     0.231916215765     0.778533052904
    C            0.903629812076     0.336776306883     0.221422409174
    H           -1.081396747565     1.105927998105     0.495424761065
    H           -0.475402245220     0.204861137973     1.864771115805
    C            0.952125591647     0.442029042988    -1.299334029107
    H            1.372543186819     1.212566826164     0.661554253684
    H            1.483906718521    -0.522701915063     0.550370163413
    H            0.422322486644     1.324363503515    -1.642877081933
    H            1.975205173920     0.512126142900    -1.650086614322
    H            0.492976536909    -0.419514845950    -1.765873689351

  Mulliken Charges: (a.u.)
   Center  Symbol    Alpha    Beta     Spin     Total
       1     H     0.39456  0.39456  0.00000  0.21089
       2     O     4.20353  4.20353  0.00000 -0.40707
       3     C     2.97474  2.97474  0.00000  0.05052
       4     C     3.09250  3.09250  0.00000 -0.18501
       5     H     0.45931  0.45931  0.00000  0.08137
       6     H     0.46205  0.46205  0.00000  0.07590
       7     C     3.14408  3.14408  0.00000 -0.28815
       8     H     0.45453  0.45453  0.00000  0.09094
       9     H     0.45909  0.45909  0.00000  0.08182
      10     H     0.45605  0.45605  0.00000  0.08791
      11     H     0.45056  0.45056  0.00000  0.09888
      12     H     0.44900  0.44900  0.00000  0.10200

   Total alpha = 17.00000, Total beta = 17.00000, Total charge = -0.00000

*** Psi4 exiting successfully. Buy a developer a beer!
