  ==> Input File <==

--------------------------------------------------------------------------
set {
	reference rhf
	basis 6-31G*
}

set_num_threads( 4 )
memory 2 gb

molecule MOL {
0 1

H	 2.276978	 -0.993514	 -0.284147
O	 2.064459	 -0.086912	 -0.111827
C	 0.745630	 0.005118	 0.354752
H	 0.739005	 0.037656	 1.444976
C	 -0.064159	 -1.194875	 -0.122754
C	 -0.046302	 1.193543	 -0.190431
H	 0.197384	 -1.376065	 -1.160690
H	 0.162855	 -2.097978	 0.431858
C	 -1.535782	 -0.752177	 0.006642
H	 0.154512	 1.271315	 -1.255561
H	 0.226209	 2.140461	 0.267302
C	 -1.509193	 0.801505	 0.065617
H	 -2.127797	 -1.112194	 -0.826847
H	 -1.986849	 -1.158408	 0.905561
H	 -2.183670	 1.254107	 -0.651985
H	 -1.821727	 1.144320	 1.047089

	symmetry c1
}
set optking {
	frozen_dihedral = ("
		1 2 3 6
	")
}

ee = optimize('scf')
oeprop('DIPOLE', 'QUADRUPOLE', 'MULLIKEN_CHARGES')
f=open( 'psi4out.xyz', 'w' )
f.write( "16  " )
f.write( str(ee) + "\n" )
f.write( MOL.save_string_xyz() )
f.close()
--------------------------------------------------------------------------

    Molecular point group: c1
  Charge       = 0
  Multiplicity = 1
  Basis Set: 6-31G*
  Basis Set:
  @DF-RHF Final Energy:  -270.01100883420958
    Total Energy =                       -270.0110088342096333
    Molecular point group: c1
  Basis Set: 6-31G*
  Basis Set:
  Basis Set: 6-31G*
  Basis Set:
  @DF-RHF Final Energy:  -270.01242479820269
    Total Energy =                       -270.0124247982028010
  Basis Set: 6-31G*
  Basis Set:
  Basis Set: 6-31G*
  Basis Set:
  @DF-RHF Final Energy:  -270.01259985039513
    Total Energy =                       -270.0125998503950200
  Basis Set: 6-31G*
  Basis Set:
  Basis Set: 6-31G*
  Basis Set:
  @DF-RHF Final Energy:  -270.01260657754426
    Total Energy =                       -270.0126065775442612
  Basis Set: 6-31G*
  Basis Set:
  @DF-RHF Final Energy:  -270.01260848987192
    Total Energy =                       -270.0126084898720364
  Basis Set: 6-31G*
  Basis Set:
  @DF-RHF Final Energy:  -270.01261007482492
    Total Energy =                       -270.0126100748250337
  Basis Set: 6-31G*
  Basis Set:
  Basis Set: 6-31G*
  Basis Set:
  @DF-RHF Final Energy:  -270.01261156833959
    Total Energy =                       -270.0126115683394801
  Basis Set: 6-31G*
  Basis Set:
  Basis Set: 6-31G*
  Basis Set:
  @DF-RHF Final Energy:  -270.01261280007543
    Total Energy =                       -270.0126128000753738
  Basis Set: 6-31G*
  Basis Set:
  Charge       = 0
  Multiplicity = 1
  Basis Set: 6-31G*
  Basis Set:

    Orbital Energies (a.u.)
    -----------------------

    Doubly Occupied:

       1A    -20.550040     2A    -11.268198     3A    -11.220101
       4A    -11.218740     5A    -11.216455     6A    -11.208034
       7A     -1.359363     8A     -1.115312     9A     -0.968457
      10A     -0.948727    11A     -0.795513    12A     -0.780552
      13A     -0.685115    14A     -0.664174    15A     -0.613655
      16A     -0.597397    17A     -0.573745    18A     -0.526972
      19A     -0.500655    20A     -0.484567    21A     -0.472403
      22A     -0.458758    23A     -0.443861    24A     -0.422703

  @DF-RHF Final Energy:  -270.01261308041438

   => Energetics <=

    Nuclear Repulsion Energy =            255.2229567054972108
    One-Electron Energy =                -872.2841420901143010
    Two-Electron Energy =                 347.0485723042024802
    DFT Exchange-Correlation Energy =       0.0000000000000000
    Empirical Dispersion Energy =           0.0000000000000000
    PCM Polarization Energy =               0.0000000000000000
    EFP Energy =                            0.0000000000000000
    Total Energy =                       -270.0126130804146669
    Molecular point group: c1
  Basis Set: 6-31G*
  Basis Set:

  -Total Gradient:
     Atom            X                  Y                   Z
    ------   -----------------  -----------------  -----------------
       1       -0.000587110769     0.000252957058    -0.001812312399
       2        0.000596951228    -0.000592901538     0.001843257748
       3        0.000300344518     0.001003380399     0.000906074632
       4       -0.000012697762    -0.000017987716     0.000000423789
       5        0.000040357093     0.000001916006     0.000024278963
       6       -0.000329482936    -0.000630775193    -0.000971860467
       7       -0.000001874035    -0.000009176571     0.000006985693
       8       -0.000002945207     0.000009923395     0.000006075184
       9       -0.000016755859     0.000002167487     0.000004960247
      10        0.000009273620    -0.000009829282    -0.000005046565
      11        0.000001775388     0.000001374489    -0.000003887817
      12        0.000009053635     0.000000717193    -0.000002130425
      13        0.000005806705     0.000005020791    -0.000015586301
      14       -0.000013894394    -0.000008306657    -0.000011032149
      15       -0.000006214373     0.000001783732     0.000017364830
      16        0.000007413147    -0.000010263596     0.000012435037

  **** Optimization is complete! (in 9 steps) ****
    Final optimized geometry and variables:
    Molecular point group: c1

    Geometry (in Angstrom), charge = 0, multiplicity = 1:

    H            2.357062260145    -0.879889980426    -0.286305810667
    O            2.080652552055    -0.000434792958    -0.074273456251
    C            0.744720986003    -0.006828782930     0.357244748707
    H            0.723292114927     0.018052298500     1.446119355630
    C           -0.083174481761    -1.195361229866    -0.135309756715
    C           -0.028155013279     1.186686164285    -0.192229735284
    H            0.152618731890    -1.360676917750    -1.184454730007
    H            0.132662565463    -2.115865228649     0.399268428143
    C           -1.546744572479    -0.737740684982     0.021533432470
    H            0.181501880866     1.260576293581    -1.255411324409
    H            0.262299855603     2.125566498502     0.265615151365
    C           -1.498316037763     0.816268820733     0.057160861584
    H           -2.162719582053    -1.106694338640    -0.790281850602
    H           -1.975199697956    -1.126852327809     0.938746130042
    H           -2.160040307265     1.264759816384    -0.674709574638
    H           -1.817612670071     1.177504974994     1.029492994443

  Mulliken Charges: (a.u.)
   Center  Symbol    Alpha    Beta     Spin     Total
       1     H     0.27971  0.27971  0.00000  0.44058
       2     O     4.38226  4.38226  0.00000 -0.76452
       3     C     2.89656  2.89656  0.00000  0.20688
       4     H     0.42771  0.42771  0.00000  0.14459
       5     C     3.18927  3.18927  0.00000 -0.37854
       6     C     3.16475  3.16475  0.00000 -0.32950
       7     H     0.41804  0.41804  0.00000  0.16392
       8     H     0.41605  0.41605  0.00000  0.16790
       9     C     3.16629  3.16629  0.00000 -0.33259
      10     H     0.41577  0.41577  0.00000  0.16846
      11     H     0.41224  0.41224  0.00000  0.17552
      12     C     3.17080  3.17080  0.00000 -0.34160
      13     H     0.41400  0.41400  0.00000  0.17199
      14     H     0.41576  0.41576  0.00000  0.16849
      15     H     0.41401  0.41401  0.00000  0.17198
      16     H     0.41678  0.41678  0.00000  0.16644

   Total alpha = 24.00000, Total beta = 24.00000, Total charge =  0.00000
