  ==> Input File <==

--------------------------------------------------------------------------
set {
	reference rhf
	basis cc-pvtz
}

set_num_threads( 4 )
memory 2 gb

molecule MOL {
0 1

H	 1.559557	 -0.106589	 -1.853067
O	 0.740595	 -0.204090	 -1.404245
C	 0.700177	 0.619554	 -0.266242
C	 -0.713111	 0.588314	 0.266177
H	 0.968818	 1.639968	 -0.522196
H	 1.385635	 0.260835	 0.497201
O	 -1.421673	 -0.521378	 -0.196983
H	 -1.244794	 1.469161	 -0.069059
H	 -0.685100	 0.604721	 1.352683
H	 -0.933408	 -1.297830	 0.014544

	symmetry c1
}
set optking {
	frozen_dihedral = ("
		5 3 4 7
	")
}

ee = optimize('scf')
oeprop('DIPOLE', 'QUADRUPOLE', 'MULLIKEN_CHARGES')
f=open( 'psi4out.xyz', 'w' )
f.write( "10  " )
f.write( str(ee) + "\n" )
f.write( MOL.save_string_xyz() )
f.close()
--------------------------------------------------------------------------

    Molecular point group: c1
  Charge       = 0
  Multiplicity = 1
  Basis Set: CC-PVTZ
  Basis Set:
  @DF-RHF Final Energy:  -229.01468057531076
    Total Energy =                       -229.0146805753108765
    Molecular point group: c1
  Basis Set: CC-PVTZ
  Basis Set:
  Basis Set: CC-PVTZ
  Basis Set:
  @DF-RHF Final Energy:  -229.01591163504401
    Total Energy =                       -229.0159116350440911
  Basis Set: CC-PVTZ
  Basis Set:
  Basis Set: CC-PVTZ
  Basis Set:
  @DF-RHF Final Energy:  -229.01701631482157
    Total Energy =                       -229.0170163148215181
  Basis Set: CC-PVTZ
  Basis Set:
  Basis Set: CC-PVTZ
  Basis Set:
  @DF-RHF Final Energy:  -229.01753138225175
    Total Energy =                       -229.0175313822516330
  Basis Set: CC-PVTZ
  Basis Set:
  @DF-RHF Final Energy:  -229.01820095860467
    Total Energy =                       -229.0182009586047229
  @DF-RHF Final Energy:  -229.01886667394839
    Total Energy =                       -229.0188666739483949
  @DF-RHF Final Energy:  -229.00032964731523
    Total Energy =                       -229.0003296473152545
  @DF-RHF Final Energy:  -229.01893502320280
    Total Energy =                       -229.0189350232027721
  @DF-RHF Final Energy:  -229.01993868623424
    Total Energy =                       -229.0199386862340418
  @DF-RHF Final Energy:  -229.02007243565876
    Total Energy =                       -229.0200724356588466
  @DF-RHF Final Energy:  -229.01806856034028
    Total Energy =                       -229.0180685603402253
  @DF-RHF Final Energy:  -229.02083215749920
    Total Energy =                       -229.0208321574991430
  @DF-RHF Final Energy:  -229.02091099019094
    Total Energy =                       -229.0209109901909414
  @DF-RHF Final Energy:  -229.02090520592628
    Total Energy =                       -229.0209052059261978
  Basis Set: CC-PVTZ
  Basis Set:
  @DF-RHF Final Energy:  -229.02092320987705
    Total Energy =                       -229.0209232098769121
  Basis Set: CC-PVTZ
  Basis Set:
  Basis Set: CC-PVTZ
  Basis Set:
  @DF-RHF Final Energy:  -229.02094112813518
    Total Energy =                       -229.0209411281352914
  Basis Set: CC-PVTZ
  Basis Set:
  Basis Set: CC-PVTZ
  Basis Set:
  @DF-RHF Final Energy:  -229.02094407102965
    Total Energy =                       -229.0209440710297599
  Basis Set: CC-PVTZ
  Basis Set:
  Charge       = 0
  Multiplicity = 1
  Basis Set: CC-PVTZ
  Basis Set:

    Orbital Energies (a.u.)
    -----------------------

    Doubly Occupied:

       1A    -20.565809     2A    -20.534568     3A    -11.279954
       4A    -11.267354     5A     -1.390648     6A     -1.349747
       7A     -0.999245     8A     -0.847994     9A     -0.728275
      10A     -0.682164    11A     -0.661987    12A     -0.593261
      13A     -0.581265    14A     -0.541556    15A     -0.486319
      16A     -0.465943    17A     -0.422783

  @DF-RHF Final Energy:  -229.02094451599032

   => Energetics <=

    Nuclear Repulsion Energy =            135.1266992424292539
    One-Electron Energy =                -581.4975450521851599
    Two-Electron Energy =                 217.3499012937656971
    DFT Exchange-Correlation Energy =       0.0000000000000000
    Empirical Dispersion Energy =           0.0000000000000000
    PCM Polarization Energy =               0.0000000000000000
    EFP Energy =                            0.0000000000000000
    Total Energy =                       -229.0209445159902089
    Molecular point group: c1
  Basis Set: CC-PVTZ
  Basis Set:

  -Total Gradient:
     Atom            X                  Y                   Z
    ------   -----------------  -----------------  -----------------
       1        0.000009827579     0.000000388456    -0.000006260285
       2        0.000026451074    -0.000012638463    -0.000059723334
       3        0.002584655531     0.003650702342     0.006174594628
       4        0.002534709007    -0.003580040989     0.005477189013
       5       -0.002772883458    -0.002297735323    -0.006517901420
       6       -0.000050470989    -0.000046720226     0.000043393645
       7       -0.002343871474     0.002295475802    -0.005115370061
       8       -0.000059143176    -0.000073765256    -0.000018912811
       9        0.000046806286     0.000057633561    -0.000015674102
      10        0.000023919618     0.000006700095     0.000038664727

  **** Optimization is complete! (in 18 steps) ****
    Final optimized geometry and variables:
    Molecular point group: c1

    Geometry (in Angstrom), charge = 0, multiplicity = 1:

    H            1.744040708423    -0.314173243751    -1.415377806974
    O            0.901151707377    -0.337797433411    -1.002875751717
    C            0.841720926028     0.596352899678     0.049754515475
    C           -0.567938650307     0.532364397500     0.664150489533
    H            1.000194087024     1.584846090793    -0.367033786418
    H            1.604724253571     0.378856855012     0.788228961619
    O           -1.218914163792    -0.675146498813     0.428235048291
    H           -1.162587798311     1.346042491097     0.257317494554
    H           -0.505512514760     0.681325804811     1.733992507894
    H           -0.897616611749    -1.040186208088    -0.377506991898

  Mulliken Charges: (a.u.)
   Center  Symbol    Alpha    Beta     Spin     Total
       1     H     0.39450  0.39450  0.00000  0.21101
       2     O     4.20155  4.20155  0.00000 -0.40309
       3     C     2.97160  2.97160  0.00000  0.05680
       4     C     2.95586  2.95586  0.00000  0.08829
       5     H     0.47069  0.47069  0.00000  0.05861
       6     H     0.47110  0.47110  0.00000  0.05779
       7     O     4.20838  4.20838  0.00000 -0.41677
       8     H     0.47853  0.47853  0.00000  0.04294
       9     H     0.46629  0.46629  0.00000  0.06743
      10     H     0.38150  0.38150  0.00000  0.23700

   Total alpha = 17.00000, Total beta = 17.00000, Total charge = -0.00000
