  ==> Input File <==

--------------------------------------------------------------------------
set {
	reference rhf
	basis cc-pvtz
}

set_num_threads( 4 )
memory 2 gb

molecule MOL {
0 1

H	 2.730435	 -0.012740	 0.503488
N	 1.755882	 0.194841	 0.511563
C	 1.030757	 -0.782168	 1.298639
C	 1.239250	 0.279842	 -0.839625
H	 1.430425	 -0.793111	 2.305365
H	 1.119811	 -1.790948	 0.891146
C	 -0.438757	 -0.404296	 1.341271
H	 1.789996	 1.038456	 -1.382335
H	 1.341477	 -0.661840	 -1.382215
C	 -0.230537	 0.656322	 -0.794192
H	 -0.548312	 0.535720	 1.889868
H	 -0.992112	 -1.164746	 1.879447
N	 -0.976577	 -0.298712	 -0.000000
H	 -0.633336	 0.662766	 -1.800090
H	 -0.325747	 1.669405	 -0.392710
C	 -2.391156	 -0.021003	 -0.000000
H	 -2.853954	 -0.458728	 -0.875714
H	 -2.853954	 -0.458728	 0.875714
H	 -2.614037	 1.049773	 -0.000000

	symmetry c1
}
set optking {
	frozen_dihedral = ("
		7 13 16 19
	")
}

ee = optimize('scf')
oeprop('DIPOLE', 'QUADRUPOLE', 'MULLIKEN_CHARGES')
f=open( 'psi4out.xyz', 'w' )
f.write( "19  " )
f.write( str(ee) + "\n" )
f.write( MOL.save_string_xyz() )
f.close()
--------------------------------------------------------------------------

    Molecular point group: c1
  Charge       = 0
  Multiplicity = 1
  Basis Set: CC-PVTZ
  Basis Set:
  @DF-RHF Final Energy:  -305.30635085668575
    Total Energy =                       -305.3063508566860946
    Molecular point group: c1
  Basis Set: CC-PVTZ
  Basis Set:
  Basis Set: CC-PVTZ
  Basis Set:
  @DF-RHF Final Energy:  -305.30670267740624
    Total Energy =                       -305.3067026774061787
  Basis Set: CC-PVTZ
  Basis Set:
  Basis Set: CC-PVTZ
  Basis Set:
  @DF-RHF Final Energy:  -305.30675864978105
    Total Energy =                       -305.3067586497813863
  Basis Set: CC-PVTZ
  Basis Set:
  Charge       = 0
  Multiplicity = 1
  Basis Set: CC-PVTZ
  Basis Set:

    Orbital Energies (a.u.)
    -----------------------

    Doubly Occupied:

       1A    -15.534027     2A    -15.531105     3A    -11.237066
       4A    -11.236948     5A    -11.235925     6A    -11.235867
       7A    -11.233172     8A     -1.248016     9A     -1.186628
      10A     -1.024250    11A     -0.965680    12A     -0.862174
      13A     -0.858440    14A     -0.756332    15A     -0.692393
      16A     -0.634457    17A     -0.627028    18A     -0.607906
      19A     -0.605024    20A     -0.582124    21A     -0.544715
      22A     -0.530032    23A     -0.513397    24A     -0.489708
      25A     -0.469151    26A     -0.458291    27A     -0.365946
      28A     -0.342167

  @DF-RHF Final Energy:  -305.30676121286319

   => Energetics <=

    Nuclear Repulsion Energy =            340.0199488228367954
    One-Electron Energy =               -1087.4374928174711386
    Two-Electron Energy =                 442.1107827817709790
    DFT Exchange-Correlation Energy =       0.0000000000000000
    Empirical Dispersion Energy =           0.0000000000000000
    PCM Polarization Energy =               0.0000000000000000
    EFP Energy =                            0.0000000000000000
    Total Energy =                       -305.3067612128633641
    Molecular point group: c1
  Basis Set: CC-PVTZ
  Basis Set:

  -Total Gradient:
     Atom            X                  Y                   Z
    ------   -----------------  -----------------  -----------------
       1       -0.000016483215    -0.000012874692    -0.000007825961
       2       -0.000037586865     0.000012776574     0.000002193370
       3        0.000017975292     0.000032478554     0.000017491115
       4       -0.000004425976    -0.000019366453    -0.000027450148
       5        0.000057657319    -0.000010526482     0.000027976311
       6       -0.000033563851     0.000029346354     0.000006627596
       7       -0.000543202809    -0.003370546587    -0.000021156523
       8        0.000035630624     0.000006174991    -0.000004976979
       9        0.000001649949     0.000006935450     0.000003201350
      10        0.000049025103     0.000092021550     0.000010887412
      11        0.000015415515    -0.000046173004    -0.000050102635
      12       -0.000010424210     0.000005915645    -0.000031591622
      13        0.000806119982     0.004667652972    -0.001210792022
      14        0.000001685819    -0.000024034340     0.000025645093
      15       -0.000011319088    -0.000025195938    -0.000007986764
      16       -0.000552118852    -0.001365892625     0.005820584479
      17        0.000023088506    -0.000007291937    -0.000025758244
      18        0.000058379368    -0.000030932981    -0.000010196915
      19        0.000142497387     0.000059532950    -0.004516768915

  **** Optimization is complete! (in 4 steps) ****
    Final optimized geometry and variables:
    Molecular point group: c1

    Geometry (in Angstrom), charge = 0, multiplicity = 1:

    H            2.742024328652     0.028307744695     0.271164700853
    N            1.768020374442     0.238488176212     0.283288149566
    C            1.045064707113    -0.733876945012     1.078042610647
    C            1.245119184330     0.319061516690    -1.065651256750
    H            1.458464610015    -0.751227374755     2.079264146227
    H            1.120499766572    -1.742094144476     0.665974781370
    C           -0.421683094327    -0.346172762337     1.141389941719
    H            1.799425100124     1.069133397734    -1.616773139928
    H            1.336515296942    -0.627423641906    -1.601982010453
    C           -0.221076874173     0.708468319111    -1.012792885137
    H           -0.516279972463     0.584216432442     1.709653128314
    H           -0.973100405442    -1.112885831925     1.671420302477
    N           -0.966448908631    -0.220432342143    -0.193688715461
    H           -0.635041869687     0.698640075308    -2.014788675190
    H           -0.304704833601     1.730686652820    -0.631942877732
    C           -2.389569820707     0.021701170196    -0.227543816273
    H           -2.813481841365    -0.383508559912    -1.140708768236
    H           -2.877081083875    -0.462774004387     0.607037924098
    H           -2.637949743987     1.085008168672    -0.212645044681

  Mulliken Charges: (a.u.)
   Center  Symbol    Alpha    Beta     Spin     Total
       1     H     0.43994  0.43994  0.00000  0.12013
       2     N     3.64278  3.64278  0.00000 -0.28556
       3     C     3.04168  3.04168  0.00000 -0.08335
       4     C     3.04101  3.04101  0.00000 -0.08201
       5     H     0.45259  0.45259  0.00000  0.09483
       6     H     0.46596  0.46596  0.00000  0.06808
       7     C     3.03189  3.03189  0.00000 -0.06377
       8     H     0.45257  0.45257  0.00000  0.09487
       9     H     0.46580  0.46580  0.00000  0.06840
      10     C     3.03405  3.03405  0.00000 -0.06811
      11     H     0.47026  0.47026  0.00000  0.05948
      12     H     0.45434  0.45434  0.00000  0.09131
      13     N     3.61490  3.61490  0.00000 -0.22980
      14     H     0.45451  0.45451  0.00000  0.09099
      15     H     0.46833  0.46833  0.00000  0.06335
      16     C     3.09557  3.09557  0.00000 -0.19115
      17     H     0.45145  0.45145  0.00000  0.09710
      18     H     0.45416  0.45416  0.00000  0.09168
      19     H     0.46822  0.46822  0.00000  0.06356

   Total alpha = 28.00000, Total beta = 28.00000, Total charge = -0.00000
