                              Psi4 1.0.54 Driver

  ==> Input File <==

--------------------------------------------------------------------------
set {
	reference rhf
	basis cc-pvtz
}

set_num_threads( 4 )
memory 2 gb

molecule MOL {
0 1

H	 2.728065	 -0.555581	 0.876016
O	 1.940346	 -0.943894	 0.526091
C	 0.975770	 -0.028532	 0.544200
C	 -0.318151	 -0.570512	 0.000144
O	 1.156258	 1.068041	 0.947835
C	 -1.454884	 0.441630	 -0.000560
H	 -0.115933	 -0.936588	 -1.001348
H	 -0.570941	 -1.446471	 0.588951
C	 -2.822577	 -0.232186	 0.000063
H	 -1.359760	 1.084704	 -0.867077
H	 -1.359641	 1.085996	 0.864983
H	 -2.954352	 -0.858985	 -0.875745
H	 -3.615886	 0.505352	 0.000019
H	 -2.953878	 -0.858359	 0.876394

	symmetry c1
}
set optking {
	frozen_dihedral = ("
		7 4 6 10
	")
}

ee,wfn = optimize('scf', return_wfn=True)
oeprop( wfn, 'DIPOLE', 'QUADRUPOLE', 'MULLIKEN_CHARGES')
f=open( 'psi4out.xyz', 'w' )
f.write( "14  " )
f.write( str(ee) + "\n" )
f.write( MOL.save_string_xyz() )
f.close()
--------------------------------------------------------------------------

    Molecular point group: c1
  Charge       = 0
  Multiplicity = 1
  Basis Set: CC-PVTZ
  Basis Set:
  @DF-RHF Final Energy:  -305.99933693512747
    Total Energy =                       -305.9993369351274737
    Molecular point group: c1
  Basis Set: CC-PVTZ
  Basis Set:
  Basis Set: CC-PVTZ
  Basis Set:
  @DF-RHF Final Energy:  -305.99952265330990
    Total Energy =                       -305.9995226533097821
  Basis Set: CC-PVTZ
  Basis Set:
  Basis Set: CC-PVTZ
  Basis Set:
  @DF-RHF Final Energy:  -305.99936340887069
    Total Energy =                       -305.9993634088707495
  Basis Set: CC-PVTZ
  Basis Set:
  Basis Set: CC-PVTZ
  Basis Set:
  @DF-RHF Final Energy:  -305.99955883793166
    Total Energy =                       -305.9995588379319429
  Basis Set: CC-PVTZ
  Basis Set:
  Basis Set: CC-PVTZ
  Basis Set:
  @DF-RHF Final Energy:  -305.99955989891487
    Total Energy =                       -305.9995598989149812
  Basis Set: CC-PVTZ
  Basis Set:
  Charge       = 0
  Multiplicity = 1
  Basis Set: CC-PVTZ
  Basis Set:

    Orbital Energies (a.u.)
    -----------------------

    Doubly Occupied:

       1A    -20.604346     2A    -20.541119     3A    -11.373975
       4A    -11.240074     5A    -11.223513     6A    -11.215044
       7A     -1.478056     8A     -1.369547     9A     -1.083554
      10A     -0.980944    11A     -0.858877    12A     -0.792395
      13A     -0.704289    14A     -0.691963    15A     -0.669290
      16A     -0.618116    17A     -0.597062    18A     -0.573449
      19A     -0.548911    20A     -0.503800    21A     -0.492000
      22A     -0.484876    23A     -0.482660    24A     -0.447600

  @DF-RHF Final Energy:  -305.99955997795718

   => Energetics <=

    Nuclear Repulsion Energy =            240.4447564219263427
    One-Electron Energy =                -893.7377076093381447
    Two-Electron Energy =                 347.2933912094547395
    DFT Exchange-Correlation Energy =       0.0000000000000000
    Empirical Dispersion Energy =           0.0000000000000000
    PCM Polarization Energy =               0.0000000000000000
    EFP Energy =                            0.0000000000000000
    Total Energy =                       -305.9995599779570057
    Molecular point group: c1
  Basis Set: CC-PVTZ
  Basis Set:

  -Total Gradient:
     Atom            X                  Y                   Z
    ------   -----------------  -----------------  -----------------
       1       -0.000010219427    -0.000006366830    -0.000003584657
       2        0.000013252909     0.000014891784     0.000000920215
       3       -0.000000556614     0.000009411072     0.000007267411
       4       -0.003332058024    -0.003718823215     0.000157533191
       5        0.000001534924    -0.000019409069     0.000002331133
       6        0.002974987173     0.003332670347     0.002115617819
       7        0.002281591674     0.002553720612    -0.000463409546
       8        0.000002836045     0.000007145977     0.000010659169
       9       -0.000009400807     0.000001371766     0.000004456314
      10       -0.001932630263    -0.002156997815    -0.001821062885
      11        0.000000690151    -0.000015319260    -0.000009366811
      12        0.000000889241     0.000005124198     0.000005488558
      13        0.000008305553    -0.000007679323     0.000004336835
      14        0.000000777464     0.000000259755    -0.000011186745

  **** Optimization is complete! (in 6 steps) ****
    Final optimized geometry and variables:
    Molecular point group: c1

    Geometry (in Angstrom), charge = 0, multiplicity = 1:

    H            2.786873393450    -0.502275606855     0.487601900774
    O            1.989729341737    -0.892560689572     0.162116040613
    C            1.028050302300     0.025871085686     0.194180672240
    C           -0.279862850824    -0.523161768391    -0.313882122899
    O            1.223255069073     1.126268051063     0.580002205742
    C           -1.416041602845     0.495161519389    -0.314368518231
    H           -0.077744083057    -0.888848352699    -1.314999921330
    H           -0.516767272497    -1.390900262345     0.291923207165
    C           -2.785223617102    -0.177823874208    -0.363388046053
    H           -1.316366455383     1.138286076247    -1.181128591565
    H           -1.341555294782     1.124983560497     0.561020029990
    H           -2.884110986210    -0.811377803739    -1.238892200572
    H           -3.577013092528     0.560592693237    -0.400344502730
    H           -2.950504993235    -0.796895739561     0.512060933043

  Mulliken Charges: (a.u.)
   Center  Symbol    Alpha    Beta     Spin     Total
       1     H     0.38231  0.38231  0.00000  0.23538
       2     O     4.16055  4.16055  0.00000 -0.32110
       3     C     2.80415  2.80415  0.00000  0.39169
       4     C     3.10702  3.10702  0.00000 -0.21404
       5     O     4.19056  4.19056  0.00000 -0.38113
       6     C     3.08177  3.08177  0.00000 -0.16355
       7     H     0.43697  0.43697  0.00000  0.12606
       8     H     0.43923  0.43923  0.00000  0.12155
       9     C     3.14975  3.14975  0.00000 -0.29951
      10     H     0.45055  0.45055  0.00000  0.09891
      11     H     0.44042  0.44042  0.00000  0.11915
      12     H     0.45556  0.45556  0.00000  0.08889
      13     H     0.44590  0.44590  0.00000  0.10820
      14     H     0.45526  0.45526  0.00000  0.08949

   Total alpha = 24.00000, Total beta = 24.00000, Total charge = -0.00000

*** Psi4 exiting successfully. Buy a developer a beer!
