                              Psi4 1.0.54 Driver

  ==> Input File <==

--------------------------------------------------------------------------
set {
	reference rhf
	basis cc-pvtz
}

set_num_threads( 4 )
memory 2 gb

molecule MOL {
0 1

H	 2.713501	 -0.127116	 0.812112
O	 1.871562	 -0.555439	 0.849715
C	 1.050374	 0.054877	 0.000135
C	 -0.318151	 -0.570512	 0.000144
O	 1.395257	 0.975056	 -0.657356
C	 -1.454884	 0.441630	 -0.000560
H	 -0.371613	 -1.223646	 -0.864985
H	 -0.371920	 -1.222758	 0.865929
C	 -2.822577	 -0.232186	 0.000063
H	 -1.359760	 1.084704	 -0.867077
H	 -1.359641	 1.085996	 0.864983
H	 -2.954352	 -0.858985	 -0.875745
H	 -3.615886	 0.505352	 0.000019
H	 -2.953878	 -0.858359	 0.876394

	symmetry c1
}
set optking {
	frozen_dihedral = ("
		2 3 4 7
	")
}

ee,wfn = optimize('scf', return_wfn=True)
oeprop( wfn, 'DIPOLE', 'QUADRUPOLE', 'MULLIKEN_CHARGES')
f=open( 'psi4out.xyz', 'w' )
f.write( "14  " )
f.write( str(ee) + "\n" )
f.write( MOL.save_string_xyz() )
f.close()
--------------------------------------------------------------------------

    Molecular point group: c1
  Charge       = 0
  Multiplicity = 1
  Basis Set: CC-PVTZ
  Basis Set:
  @DF-RHF Final Energy:  -305.99934644030526
    Total Energy =                       -305.9993464403050893
    Molecular point group: c1
  Basis Set: CC-PVTZ
  Basis Set:
  Basis Set: CC-PVTZ
  Basis Set:
  @DF-RHF Final Energy:  -305.99973128059901
    Total Energy =                       -305.9997312805987804
  Basis Set: CC-PVTZ
  Basis Set:
  Basis Set: CC-PVTZ
  Basis Set:
  @DF-RHF Final Energy:  -305.99899772134245
    Total Energy =                       -305.9989977213424481
  Basis Set: CC-PVTZ
  Basis Set:
  Basis Set: CC-PVTZ
  Basis Set:
  @DF-RHF Final Energy:  -305.99984634254605
    Total Energy =                       -305.9998463425459931
  Basis Set: CC-PVTZ
  Basis Set:
  Basis Set: CC-PVTZ
  Basis Set:
  @DF-RHF Final Energy:  -305.99985204637812
    Total Energy =                       -305.9998520463779528
  Basis Set: CC-PVTZ
  Basis Set:
  Charge       = 0
  Multiplicity = 1
  Basis Set: CC-PVTZ
  Basis Set:

    Orbital Energies (a.u.)
    -----------------------

    Doubly Occupied:

       1A    -20.606284     2A    -20.538980     3A    -11.374044
       4A    -11.239122     5A    -11.227270     6A    -11.216494
       7A     -1.478591     8A     -1.368968     9A     -1.084873
      10A     -0.980379    11A     -0.858265    12A     -0.798713
      13A     -0.705932    14A     -0.691348    15A     -0.660369
      16A     -0.624896    17A     -0.596553    18A     -0.573499
      19A     -0.549410    20A     -0.510417    21A     -0.493859
      22A     -0.486755    23A     -0.477998    24A     -0.445536

  @DF-RHF Final Energy:  -305.99985243597098

   => Energetics <=

    Nuclear Repulsion Energy =            240.4227543777940070
    One-Electron Energy =                -893.6681027012396044
    Two-Electron Energy =                 347.2454958874743625
    DFT Exchange-Correlation Energy =       0.0000000000000000
    Empirical Dispersion Energy =           0.0000000000000000
    PCM Polarization Energy =               0.0000000000000000
    EFP Energy =                            0.0000000000000000
    Total Energy =                       -305.9998524359712064
    Molecular point group: c1
  Basis Set: CC-PVTZ
  Basis Set:

  -Total Gradient:
     Atom            X                  Y                   Z
    ------   -----------------  -----------------  -----------------
       1        0.000025555745    -0.000016362417     0.000017195056
       2       -0.000181014984     0.000558289190     0.000626096343
       3        0.000104696713    -0.000551891588    -0.001020344961
       4        0.000369034384    -0.000712487083     0.000853182246
       5        0.000057769613    -0.000010379037     0.000042283821
       6        0.000005374782     0.000006585213     0.000009090337
       7       -0.000373169138     0.000740789018    -0.000515330136
       8        0.000001799378    -0.000004381063    -0.000007868502
       9       -0.000009258990    -0.000006365220    -0.000006836804
      10       -0.000007863418    -0.000000832263     0.000007007588
      11        0.000005130246    -0.000003222602    -0.000003286983
      12       -0.000002605920    -0.000004788115     0.000002507463
      13        0.000003414436     0.000000100007    -0.000000374726
      14        0.000001137153     0.000004945960    -0.000003320739

  **** Optimization is complete! (in 6 steps) ****
    Final optimized geometry and variables:
    Molecular point group: c1

    Geometry (in Angstrom), charge = 0, multiplicity = 1:

    H            2.766196550182    -0.108315507363     0.662146085441
    O            1.933246416848    -0.544833305364     0.763060937087
    C            1.052766270005     0.043011299970    -0.039406342371
    C           -0.305830329172    -0.606306191088     0.009615800428
    O            1.340885350143     0.968305584446    -0.717961071440
    C           -1.444925238242     0.410467534983    -0.024048020849
    H           -0.365487774592    -1.247861902829    -0.865002286310
    H           -0.367180452919    -1.242293924409     0.881695853818
    C           -2.813055163578    -0.261113047929    -0.045884908211
    H           -1.325655801133     1.043657252314    -0.893130997287
    H           -1.371223960873     1.058878107243     0.843118756813
    H           -2.927152101005    -0.889559093386    -0.922824234273
    H           -3.604906344971     0.477850746473    -0.063786440028
    H           -2.962032337926    -0.884450576881     0.829405950842

  Mulliken Charges: (a.u.)
   Center  Symbol    Alpha    Beta     Spin     Total
       1     H     0.38081  0.38081  0.00000  0.23838
       2     O     4.15772  4.15772  0.00000 -0.31544
       3     C     2.80953  2.80953  0.00000  0.38094
       4     C     3.09422  3.09422  0.00000 -0.18843
       5     O     4.19608  4.19608  0.00000 -0.39216
       6     C     3.08534  3.08534  0.00000 -0.17068
       7     H     0.44411  0.44411  0.00000  0.11179
       8     H     0.43707  0.43707  0.00000  0.12586
       9     C     3.14991  3.14991  0.00000 -0.29982
      10     H     0.43952  0.43952  0.00000  0.12096
      11     H     0.45088  0.45088  0.00000  0.09824
      12     H     0.45426  0.45426  0.00000  0.09148
      13     H     0.44538  0.44538  0.00000  0.10923
      14     H     0.45518  0.45518  0.00000  0.08964

   Total alpha = 24.00000, Total beta = 24.00000, Total charge = -0.00000

*** Psi4 exiting successfully. Buy a developer a beer!
