                              Psi4 1.0.54 Driver

  ==> Input File <==

--------------------------------------------------------------------------
set {
	reference rhf
	basis cc-pvtz
}

set_num_threads( 4 )
memory 2 gb

molecule MOL {
0 1

O	 2.683913	 1.638393	 0.454703
C	 2.270634	 1.047586	 1.398238
C	 0.991599	 0.236663	 1.350210
C	 3.001431	 1.066441	 2.721795
C	 0.288398	 0.247429	 0.000314
H	 1.237193	 -0.779999	 1.648790
H	 0.334600	 0.615017	 2.130086
C	 -0.993089	 -0.581367	 -0.000217
H	 0.968213	 -0.124732	 -0.757619
H	 0.064948	 1.271582	 -0.275935
C	 -2.258482	 0.271340	 0.000669
H	 -1.002280	 -1.233920	 -0.870484
H	 -1.002061	 -1.235367	 0.868958
C	 -3.544441	 -0.550271	 -0.000253
H	 -2.250545	 0.925250	 -0.867923
H	 -2.250598	 0.923423	 0.870642
C	 -4.804551	 0.308747	 0.000556
H	 -3.553737	 -1.201524	 -0.870151
H	 -3.553831	 -1.203282	 0.868313
H	 -4.842050	 0.949078	 -0.874436
H	 -5.698404	 -0.304480	 -0.000254
H	 -4.842277	 0.947103	 0.876982
H	 3.269249	 0.057495	 3.015649
H	 3.892412	 1.669580	 2.639537
H	 2.359091	 1.468063	 3.497773

	symmetry c1
}
set optking {
	frozen_dihedral = ("
		9 5 8 12
	")
}

ee,wfn = optimize('scf', return_wfn=True)
oeprop( wfn, 'DIPOLE', 'QUADRUPOLE', 'MULLIKEN_CHARGES')
f=open( 'psi4out.xyz', 'w' )
f.write( "25  " )
f.write( str(ee) + "\n" )
f.write( MOL.save_string_xyz() )
f.close()
--------------------------------------------------------------------------

    Molecular point group: c1
  Charge       = 0
  Multiplicity = 1
  Basis Set: CC-PVTZ
  Basis Set:
  @DF-RHF Final Energy:  -387.26939187096110
    Total Energy =                       -387.2693918709608170
    Molecular point group: c1
  Basis Set: CC-PVTZ
  Basis Set:
  Basis Set: CC-PVTZ
  Basis Set:
  @DF-RHF Final Energy:  -387.26968513273641
    Total Energy =                       -387.2696851327358445
  Basis Set: CC-PVTZ
  Basis Set:
  Basis Set: CC-PVTZ
  Basis Set:
  @DF-RHF Final Energy:  -387.26956763141567
    Total Energy =                       -387.2695676314153843
  Basis Set: CC-PVTZ
  Basis Set:
  Basis Set: CC-PVTZ
  Basis Set:
  @DF-RHF Final Energy:  -387.26975978561001
    Total Energy =                       -387.2697597856102902
  Basis Set: CC-PVTZ
  Basis Set:
  Charge       = 0
  Multiplicity = 1
  Basis Set: CC-PVTZ
  Basis Set:

    Orbital Energies (a.u.)
    -----------------------

    Doubly Occupied:

       1A    -20.538998     2A    -11.320434     3A    -11.230725
       4A    -11.226646     5A    -11.214906     6A    -11.214462
       7A    -11.214299     8A    -11.213363     9A    -11.207639
      10A     -1.398927    11A     -1.094413    12A     -1.057519
      13A     -1.014996    14A     -0.969887    15A     -0.893579
      16A     -0.816428    17A     -0.791478    18A     -0.733397
      19A     -0.660589    20A     -0.646770    21A     -0.640955
      22A     -0.624038    23A     -0.598996    24A     -0.577057
      25A     -0.570419    26A     -0.566751    27A     -0.541931
      28A     -0.523582    29A     -0.519566    30A     -0.495140
      31A     -0.485594    32A     -0.479181    33A     -0.464657
      34A     -0.460778    35A     -0.446968    36A     -0.401817

  @DF-RHF Final Energy:  -387.26976062264288

   => Energetics <=

    Nuclear Repulsion Energy =            442.3693126254050298
    One-Electron Energy =               -1401.5643765057209293
    Two-Electron Energy =                 571.9253032576732494
    DFT Exchange-Correlation Energy =       0.0000000000000000
    Empirical Dispersion Energy =           0.0000000000000000
    PCM Polarization Energy =               0.0000000000000000
    EFP Energy =                            0.0000000000000000
    Total Energy =                       -387.2697606226427069
    Molecular point group: c1
  Basis Set: CC-PVTZ
  Basis Set:

  -Total Gradient:
     Atom            X                  Y                   Z
    ------   -----------------  -----------------  -----------------
       1        0.000009714942     0.000036271142    -0.000054613360
       2       -0.000000183234    -0.000046186519     0.000012196148
       3        0.000000838941     0.000019686845     0.000049989859
       4        0.000009667230    -0.000010672228     0.000010037994
       5        0.001524675524    -0.002574918352     0.002615512809
       6        0.000000634457    -0.000011387918    -0.000001115370
       7       -0.000005752403    -0.000011797736    -0.000011925479
       8       -0.001667079514     0.002811851059    -0.002217262528
       9       -0.001061872708     0.001726955371    -0.001830936023
      10       -0.000000515223    -0.000022446971     0.000013369223
      11       -0.000000994142     0.000061614422    -0.000046275363
      12        0.001181544593    -0.001944512928     0.001448468730
      13        0.000008160198     0.000010981070    -0.000007010975
      14        0.000021192068    -0.000021095144    -0.000007980950
      15        0.000012379469    -0.000011168569    -0.000003374056
      16        0.000014010894    -0.000007544653    -0.000016488987
      17       -0.000013945565    -0.000006867227     0.000028688343
      18       -0.000004874769     0.000009270927     0.000002501456
      19       -0.000010791591    -0.000009458362    -0.000007288923
      20        0.000007121600    -0.000012330152     0.000003630158
      21       -0.000009637466     0.000009203327     0.000007106210
      22       -0.000003090534     0.000002403913    -0.000004765408
      23       -0.000002020839     0.000000291914     0.000019070332
      24       -0.000012325614    -0.000004152722    -0.000007211719
      25        0.000003143690     0.000006009494     0.000005677879

  **** Optimization is complete! (in 5 steps) ****
    Final optimized geometry and variables:
    Molecular point group: c1

    Geometry (in Angstrom), charge = 0, multiplicity = 1:

    O            2.942955571398     1.240778335217    -0.182670096813
    C            2.528002046676     0.635764525396     0.751123299357
    C            1.267083912732    -0.201411255766     0.679375763176
    C            3.238612383096     0.661521289634     2.085677840118
    C            0.589750531180    -0.208005855626    -0.684103372255
    H            1.526980986603    -1.212306845738     0.984352484611
    H            0.586940447154     0.164812829341     1.445387395603
    C           -0.721175995112    -1.016220557911    -0.706518161995
    H            1.279626278101    -0.581736452447    -1.429600495467
    H            0.391872191891     0.816195367860    -0.977275989810
    C           -1.978060498027    -0.150305498856    -0.688819865020
    H           -0.736906086166    -1.664630322145    -1.576365826242
    H           -0.748686203120    -1.689714459380     0.146854557473
    C           -3.272410581086    -0.957051573001    -0.653312432546
    H           -1.979209704670     0.493029862439    -1.564960018386
    H           -1.946211906666     0.513529950422     0.172799145215
    C           -4.523279143808    -0.084560357675    -0.644142869164
    H           -3.303453478177    -1.621636958047    -1.512460223961
    H           -3.273349864378    -1.596610900226     0.225298247160
    H           -4.570263525135     0.541101967684    -1.529171451874
    H           -5.423383198778    -0.687964733955    -0.618062669486
    H           -4.538441464662     0.569050563650     0.221797059138
    H            3.524654324355    -0.343219535137     2.376689520738
    H            4.117050533973     1.284877389845     2.020744847807
    H            2.576128909626     1.043389863925     2.854694913999

  Mulliken Charges: (a.u.)
   Center  Symbol    Alpha    Beta     Spin     Total
       1     O     4.17065  4.17065  0.00000 -0.34130
       2     C     2.86340  2.86340  0.00000  0.27321
       3     C     3.10955  3.10955  0.00000 -0.21910
       4     C     3.15097  3.15097  0.00000 -0.30194
       5     C     3.09565  3.09565  0.00000 -0.19130
       6     H     0.44394  0.44394  0.00000  0.11213
       7     H     0.44501  0.44501  0.00000  0.10997
       8     C     3.10095  3.10095  0.00000 -0.20191
       9     H     0.43956  0.43956  0.00000  0.12087
      10     H     0.44619  0.44619  0.00000  0.10762
      11     C     3.08430  3.08430  0.00000 -0.16859
      12     H     0.44499  0.44499  0.00000  0.11001
      13     H     0.45770  0.45770  0.00000  0.08461
      14     C     3.08546  3.08546  0.00000 -0.17092
      15     H     0.45178  0.45178  0.00000  0.09645
      16     H     0.45627  0.45627  0.00000  0.08746
      17     C     3.14980  3.14980  0.00000 -0.29960
      18     H     0.45412  0.45412  0.00000  0.09176
      19     H     0.45490  0.45490  0.00000  0.09019
      20     H     0.45445  0.45445  0.00000  0.09110
      21     H     0.44837  0.44837  0.00000  0.10326
      22     H     0.45564  0.45564  0.00000  0.08873
      23     H     0.45038  0.45038  0.00000  0.09924
      24     H     0.43537  0.43537  0.00000  0.12925
      25     H     0.45061  0.45061  0.00000  0.09879

   Total alpha = 36.00000, Total beta = 36.00000, Total charge =  0.00000

*** Psi4 exiting successfully. Buy a developer a beer!
