                              Psi4 1.0.54 Driver

  ==> Input File <==

--------------------------------------------------------------------------
set {
	reference rhf
	basis cc-pvtz
}

set_num_threads( 4 )
memory 2 gb

molecule MOL {
0 1

H	 3.702053	 -0.958067	 -0.185954
O	 2.803499	 -1.180423	 0.006023
C	 2.076458	 -0.067370	 -0.038225
C	 0.626018	 -0.337582	 0.258241
O	 2.554327	 0.985583	 -0.284745
C	 -0.267326	 0.883135	 0.076490
H	 0.325620	 -1.161483	 -0.378003
H	 0.574537	 -0.713685	 1.275261
C	 -1.726822	 0.642622	 0.463839
H	 -0.210803	 1.217591	 -0.953497
H	 0.129920	 1.693110	 0.675679
C	 -2.480891	 -0.340606	 -0.429852
H	 -2.243098	 1.597649	 0.438609
H	 -1.776542	 0.301208	 1.495542
C	 -3.955933	 -0.460128	 -0.060472
H	 -2.393755	 -0.020485	 -1.464726
H	 -2.024244	 -1.323637	 -0.374360
H	 -4.467673	 -1.160944	 -0.709827
H	 -4.458917	 0.497287	 -0.144505
H	 -4.076458	 -0.806900	 0.960497

	symmetry c1
}
set optking {
	frozen_dihedral = ("
		5 3 4 7
	")
}

ee,wfn = optimize('scf', return_wfn=True)
oeprop( wfn, 'DIPOLE', 'QUADRUPOLE', 'MULLIKEN_CHARGES')
f=open( 'psi4out.xyz', 'w' )
f.write( "20  " )
f.write( str(ee) + "\n" )
f.write( MOL.save_string_xyz() )
f.close()
--------------------------------------------------------------------------

    Molecular point group: c1
  Charge       = 0
  Multiplicity = 1
  Basis Set: CC-PVTZ
  Basis Set:
  @DF-RHF Final Energy:  -384.09497628241007
    Total Energy =                       -384.0949762824099594
    Molecular point group: c1
  Basis Set: CC-PVTZ
  Basis Set:
  Basis Set: CC-PVTZ
  Basis Set:
  @DF-RHF Final Energy:  -384.09483708369999
    Total Energy =                       -384.0948370836994172
  Basis Set: CC-PVTZ
  Basis Set:
  Basis Set: CC-PVTZ
  Basis Set:
  @DF-RHF Final Energy:  -384.09498929427315
    Total Energy =                       -384.0949892942728070
  Basis Set: CC-PVTZ
  Basis Set:
  Basis Set: CC-PVTZ
  Basis Set:
  @DF-RHF Final Energy:  -384.09499460146725
    Total Energy =                       -384.0949946014673060
  Basis Set: CC-PVTZ
  Basis Set:
  Charge       = 0
  Multiplicity = 1
  Basis Set: CC-PVTZ
  Basis Set:

    Orbital Energies (a.u.)
    -----------------------

    Doubly Occupied:

       1A    -20.603920     2A    -20.540408     3A    -11.373399
       4A    -11.238623     5A    -11.221070     6A    -11.218799
       7A    -11.218188     8A    -11.210570     9A     -1.477556
      10A     -1.368972    11A     -1.097610    12A     -1.042248
      13A     -0.962570    14A     -0.870411    15A     -0.817807
      16A     -0.778238    17A     -0.703837    18A     -0.693016
      19A     -0.665962    20A     -0.637817    21A     -0.605217
      22A     -0.596361    23A     -0.577056    24A     -0.556620
      25A     -0.541621    26A     -0.513748    27A     -0.496131
      28A     -0.484275    29A     -0.471701    30A     -0.468391
      31A     -0.458063    32A     -0.446556

  @DF-RHF Final Energy:  -384.09499370270549

   => Energetics <=

    Nuclear Repulsion Energy =            376.6144159242151659
    One-Electron Energy =               -1269.5052948107099837
    Two-Electron Energy =                 508.7958851837886414
    DFT Exchange-Correlation Energy =       0.0000000000000000
    Empirical Dispersion Energy =           0.0000000000000000
    PCM Polarization Energy =               0.0000000000000000
    EFP Energy =                            0.0000000000000000
    Total Energy =                       -384.0949937027062333
    Molecular point group: c1
  Basis Set: CC-PVTZ
  Basis Set:

  -Total Gradient:
     Atom            X                  Y                   Z
    ------   -----------------  -----------------  -----------------
       1       -0.000080844135     0.000000003774    -0.000028024629
       2       -0.000019265153     0.000120693608     0.000023003870
       3        0.000033361180    -0.000102316861    -0.000505904990
       4       -0.000045038977     0.000277550013     0.000029173281
       5        0.000011972634    -0.000102528181     0.000356355525
       6       -0.000008497494    -0.000020558794    -0.000050221184
       7        0.000065628173    -0.000175665449     0.000159460264
       8       -0.000013722545    -0.000021227880     0.000008715403
       9       -0.000020216829     0.000043738703    -0.000018017596
      10       -0.000012062437     0.000029660026     0.000019973583
      11        0.000015887445    -0.000036496888     0.000013419758
      12        0.000023737924     0.000021615451    -0.000020095370
      13       -0.000003985617    -0.000005584521    -0.000021004691
      14       -0.000011586832     0.000021160565     0.000000670508
      15        0.000008326378    -0.000022324633     0.000023183670
      16       -0.000008146032     0.000004062291     0.000019664507
      17        0.000049958612    -0.000024368481    -0.000008036563
      18        0.000003461040    -0.000004420039     0.000003829003
      19        0.000015672217    -0.000003994110    -0.000006150067
      20       -0.000004639549     0.000001001410     0.000000005718

  **** Optimization is complete! (in 5 steps) ****
    Final optimized geometry and variables:
    Molecular point group: c1

    Geometry (in Angstrom), charge = 0, multiplicity = 1:

    H            3.704999702783    -0.958342415833    -0.160097393067
    O            2.803883071152    -1.181430404807     0.018367134258
    C            2.076430352946    -0.069449755213    -0.039689299439
    C            0.624505579769    -0.338096319974     0.251444522729
    O            2.556223432341     0.983061963603    -0.284345553160
    C           -0.265444332818     0.886320979092     0.078449195949
    H            0.320168606362    -1.160898646561    -0.383348150824
    H            0.575263798797    -0.715214179901     1.268894515173
    C           -1.724616390982     0.648468068256     0.468553655936
    H           -0.211507898281     1.225346236872    -0.950523513742
    H            0.136719014741     1.691775289801     0.679903390574
    C           -2.481911136993    -0.334270451271    -0.423004606276
    H           -2.239451435308     1.604289228411     0.443955888954
    H           -1.772610179320     0.307709569223     1.500574750987
    C           -3.953709999662    -0.460642332683    -0.042919143333
    H           -2.403679723164    -0.010292722335    -1.457417255373
    H           -2.021162205320    -1.315758729627    -0.374453071850
    H           -4.467022094278    -1.163461502139    -0.688859348333
    H           -4.461619435702     0.494523632399    -0.122815729511
    H           -4.065309075917    -0.808423263365     0.978728293564

  Mulliken Charges: (a.u.)
   Center  Symbol    Alpha    Beta     Spin     Total
       1     H     0.38226  0.38226  0.00000  0.23548
       2     O     4.16021  4.16021  0.00000 -0.32042
       3     C     2.80365  2.80365  0.00000  0.39271
       4     C     3.11173  3.11173  0.00000 -0.22346
       5     O     4.19127  4.19127  0.00000 -0.38254
       6     C     3.09324  3.09324  0.00000 -0.18648
       7     H     0.43663  0.43663  0.00000  0.12675
       8     H     0.43839  0.43839  0.00000  0.12321
       9     C     3.09931  3.09931  0.00000 -0.19862
      10     H     0.44650  0.44650  0.00000  0.10699
      11     H     0.43815  0.43815  0.00000  0.12369
      12     C     3.08685  3.08685  0.00000 -0.17370
      13     H     0.44544  0.44544  0.00000  0.10911
      14     H     0.45388  0.45388  0.00000  0.09224
      15     C     3.14959  3.14959  0.00000 -0.29918
      16     H     0.45265  0.45265  0.00000  0.09471
      17     H     0.45412  0.45412  0.00000  0.09176
      18     H     0.44772  0.44772  0.00000  0.10457
      19     H     0.45360  0.45360  0.00000  0.09281
      20     H     0.45481  0.45481  0.00000  0.09037

   Total alpha = 32.00000, Total beta = 32.00000, Total charge =  0.00000

*** Psi4 exiting successfully. Buy a developer a beer!
