  ==> Input File <==

--------------------------------------------------------------------------
set {
	reference rhf
	basis 6-31G*
}

set_num_threads( 1 )
memory 2 gb

molecule MOL {
0 1

H	 1.626836	 -0.631686	 2.333272
O	 0.939012	 -0.079877	 1.989625
C	 1.135793	 0.118896	 0.612333
C	 0.031547	 1.023609	 0.088541
H	 1.102524	 -0.831109	 0.081980
H	 2.112905	 0.558976	 0.426095
C	 -1.134819	 0.293262	 -0.585751
H	 0.474374	 1.714721	 -0.623187
H	 -0.338529	 1.620940	 0.920081
C	 -1.917817	 -0.639439	 0.339494
H	 -0.758119	 -0.268455	 -1.433105
H	 -1.813832	 1.041889	 -0.986690
H	 -2.777680	 -1.057197	 -0.174994
H	 -1.310268	 -1.471279	 0.680599
H	 -2.283753	 -0.111424	 1.216626

	symmetry c1
}
set optking {
	frozen_dihedral = ("
		8 4 7 11,
		1 2 3 4
	")
}

ee = energy('scf')
oeprop('DIPOLE', 'QUADRUPOLE', 'MULLIKEN_CHARGES')
f=open( 'psi4out.xyz', 'w' )
f.write( "15  " )
f.write( str(ee) + "\n" )
f.write( MOL.save_string_xyz() )
f.close()
--------------------------------------------------------------------------

    Molecular point group: c1

    Geometry (in Angstrom), charge = 0, multiplicity = 1:

       Center              X                  Y                   Z               Mass
    ------------   -----------------  -----------------  -----------------  -----------------
           H          1.783447476450    -0.751136954977     1.796788086996     1.007825032070
           O          1.095623476450    -0.199327954977     1.453141086996    15.994914619560
           C          1.292404476450    -0.000554954977     0.075849086996    12.000000000000
           C          0.188158476450     0.904158045023    -0.447942913004    12.000000000000
           H          1.259135476450    -0.950559954977    -0.454503913004     1.007825032070
           H          2.269516476450     0.439525045023    -0.110388913004     1.007825032070
           C         -0.978207523550     0.173811045023    -1.122234913004    12.000000000000
           H          0.630985476450     1.595270045023    -1.159670913004     1.007825032070
           H         -0.181917523550     1.501489045023     0.383597086996     1.007825032070
           C         -1.761205523550    -0.758889954977    -0.196989913004    12.000000000000
           H         -0.601507523550    -0.387905954977    -1.969588913004     1.007825032070
           H         -1.657220523550     0.922438045023    -1.523173913004     1.007825032070
           H         -2.621068523550    -1.176647954977    -0.711477913004     1.007825032070
           H         -1.153656523550    -1.590729954977     0.144115086996     1.007825032070
           H         -2.127141523550    -0.230874954977     0.680142086996     1.007825032070

  Charge       = 0
  Multiplicity = 1
  Basis Set: 6-31G*
  Basis Set:

    Orbital Energies (a.u.)
    -----------------------

    Doubly Occupied:

       1A    -20.552490     2A    -11.266915     3A    -11.213524
       4A    -11.210572     5A    -11.201705     6A     -1.359131
       7A     -1.065485     8A     -0.968938     9A     -0.865272
      10A     -0.780720    11A     -0.701406    12A     -0.647341
      13A     -0.610507    14A     -0.572225    15A     -0.553970
      16A     -0.539033    17A     -0.503129    18A     -0.475886
      19A     -0.467985    20A     -0.455054    21A     -0.427084

  @DF-RHF Final Energy:  -232.13991477494545

   => Energetics <=

    Nuclear Repulsion Energy =            191.6656754921918946
    One-Electron Energy =                -694.7343678473137061
    Two-Electron Energy =                 270.9287775801767566
    DFT Exchange-Correlation Energy =       0.0000000000000000
    Empirical Dispersion Energy =           0.0000000000000000
    PCM Polarization Energy =               0.0000000000000000
    EFP Energy =                            0.0000000000000000
    Total Energy =                       -232.1399147749450549

  Mulliken Charges: (a.u.)
   Center  Symbol    Alpha    Beta     Spin     Total
       1     H     0.28189  0.28189  0.00000  0.43622
       2     O     4.36990  4.36990  0.00000 -0.73981
       3     C     2.99827  2.99827  0.00000  0.00347
       4     C     3.16278  3.16278  0.00000 -0.32557
       5     H     0.43116  0.43116  0.00000  0.13768
       6     H     0.42884  0.42884  0.00000  0.14231
       7     C     3.15692  3.15692  0.00000 -0.31385
       8     H     0.42132  0.42132  0.00000  0.15735
       9     H     0.40723  0.40723  0.00000  0.18554
      10     C     3.23674  3.23674  0.00000 -0.47348
      11     H     0.42487  0.42487  0.00000  0.15026
      12     H     0.42122  0.42122  0.00000  0.15755
      13     H     0.42310  0.42310  0.00000  0.15380
      14     H     0.41799  0.41799  0.00000  0.16402
      15     H     0.41775  0.41775  0.00000  0.16449

   Total alpha = 21.00000, Total beta = 21.00000, Total charge =  0.00000
