  ==> Input File <==

--------------------------------------------------------------------------
set {
	reference rhf
	basis 6-31G*
}

set_num_threads( 4 )
memory 2 gb

molecule MOL {
0 1

O	 1.696138	 1.118290	 -0.637235
C	 1.705091	 0.115954	 0.001797
C	 0.592902	 -0.360560	 0.903926
O	 2.721346	 -0.737485	 -0.000216
C	 -0.604069	 0.584677	 0.941778
H	 0.301853	 -1.351097	 0.565045
H	 1.015994	 -0.500016	 1.895019
C	 -1.715376	 0.077365	 1.861936
H	 -0.989016	 0.714647	 -0.064757
H	 -0.274457	 1.566250	 1.267629
C	 -2.924420	 1.013126	 1.911160
H	 -2.039084	 -0.908750	 1.532107
H	 -1.322504	 -0.053198	 2.869153
C	 -4.033960	 0.506313	 2.831656
H	 -3.319644	 1.142559	 0.906080
H	 -2.602820	 1.998373	 2.241310
H	 -4.401069	 -0.463173	 2.506782
H	 -4.876387	 1.190840	 2.845460
H	 -3.678376	 0.399002	 3.852614
C	 4.024888	 -0.184556	 -0.001949
H	 4.179030	 0.422472	 -0.882452
H	 4.701782	 -1.024608	 -0.003642
H	 4.181981	 0.421185	 0.878906

	symmetry c1
}
set optking {
	frozen_dihedral = ("
		1 2 4 20
	")
}

ee = optimize('scf')
oeprop('DIPOLE', 'QUADRUPOLE', 'MULLIKEN_CHARGES')
f=open( 'psi4out.xyz', 'w' )
f.write( "23  " )
f.write( str(ee) + "\n" )
f.write( MOL.save_string_xyz() )
f.close()
--------------------------------------------------------------------------

    Molecular point group: c1
  Charge       = 0
  Multiplicity = 1
  Basis Set: 6-31G*
  Basis Set:
  @DF-RHF Final Energy:  -422.96782271262384
    Total Energy =                       -422.9678227126235015
    Molecular point group: c1
  Basis Set: 6-31G*
  Basis Set:
  Basis Set: 6-31G*
  Basis Set:
  @DF-RHF Final Energy:  -422.96491251241287
    Total Energy =                       -422.9649125124133207
  Basis Set: 6-31G*
  Basis Set:
  Basis Set: 6-31G*
  Basis Set:
  @DF-RHF Final Energy:  -422.96840720744302
    Total Energy =                       -422.9684072074429650
  Basis Set: 6-31G*
  Basis Set:
  Basis Set: 6-31G*
  Basis Set:
  @DF-RHF Final Energy:  -422.96847121971825
    Total Energy =                       -422.9684712197182535
  Basis Set: 6-31G*
  Basis Set:
  Basis Set: 6-31G*
  Basis Set:
  @DF-RHF Final Energy:  -422.96848045887970
    Total Energy =                       -422.9684804588802081
  Basis Set: 6-31G*
  Basis Set:
  Basis Set: 6-31G*
  Basis Set:
  @DF-RHF Final Energy:  -422.96846224152830
    Total Energy =                       -422.9684622415277317
  Basis Set: 6-31G*
  Basis Set:
  Basis Set: 6-31G*
  Basis Set:
  @DF-RHF Final Energy:  -422.96848204109136
    Total Energy =                       -422.9684820410914199
  Basis Set: 6-31G*
  Basis Set:
  Charge       = 0
  Multiplicity = 1
  Basis Set: 6-31G*
  Basis Set:

    Orbital Energies (a.u.)
    -----------------------

    Doubly Occupied:

       1A    -20.595996     2A    -20.549574     3A    -11.373451
       4A    -11.284171     5A    -11.236127     6A    -11.219639
       7A    -11.218278     8A    -11.216759     9A    -11.209892
      10A     -1.464190    11A     -1.364152    12A     -1.093363
      13A     -1.042906    14A     -0.985250    15A     -0.934320
      16A     -0.845382    17A     -0.795438    18A     -0.765906
      19A     -0.696190    20A     -0.680132    21A     -0.671950
      22A     -0.650675    23A     -0.610472    24A     -0.602526
      25A     -0.574807    26A     -0.565629    27A     -0.553243
      28A     -0.529228    29A     -0.513525    30A     -0.507968
      31A     -0.485018    32A     -0.470379    33A     -0.466707
      34A     -0.464564    35A     -0.452596    36A     -0.432833

  @DF-RHF Final Energy:  -422.96848241328172

   => Energetics <=

    Nuclear Repulsion Energy =            451.7025651936159534
    One-Electron Energy =               -1471.0956182034578887
    Two-Electron Energy =                 596.4245705965596471
    DFT Exchange-Correlation Energy =       0.0000000000000000
    Empirical Dispersion Energy =           0.0000000000000000
    PCM Polarization Energy =               0.0000000000000000
    EFP Energy =                            0.0000000000000000
    Total Energy =                       -422.9684824132822314
    Molecular point group: c1
  Basis Set: 6-31G*
  Basis Set:

  -Total Gradient:
     Atom            X                  Y                   Z
    ------   -----------------  -----------------  -----------------
       1       -0.004759271964    -0.004551670776    -0.007459086066
       2        0.007441514387     0.006636714533     0.014948704324
       3       -0.000031144183    -0.000057859611    -0.000150566526
       4       -0.003204352492    -0.001673441860    -0.015105840441
       5        0.000031522365    -0.000016047607     0.000019371711
       6        0.000008915936    -0.000025457072     0.000024843038
       7        0.000009664815    -0.000029328067     0.000014152436
       8       -0.000004850699    -0.000001985967    -0.000000094661
       9       -0.000007092741     0.000003209228    -0.000005249039
      10        0.000001862942    -0.000007119258    -0.000002357568
      11        0.000001852038     0.000001584256    -0.000001187901
      12        0.000000127434     0.000001282322     0.000000949164
      13        0.000002750664     0.000002023166    -0.000001865357
      14        0.000001253511    -0.000002982256    -0.000001404095
      15        0.000000001012     0.000000973684    -0.000000910661
      16        0.000000460848    -0.000000428053     0.000000903978
      17       -0.000000370475    -0.000000475773     0.000000485948
      18        0.000000617283     0.000000317247    -0.000001092485
      19        0.000000227560     0.000000304231    -0.000000224667
      20        0.000487657188    -0.000277960827     0.007760252665
      21       -0.000002653676     0.000009406111    -0.000009518356
      22       -0.000000842746    -0.000013872912    -0.000006450715
      23        0.000022150995     0.000002815260    -0.000023814723

  **** Optimization is complete! (in 8 steps) ****
    Final optimized geometry and variables:
    Molecular point group: c1

    Geometry (in Angstrom), charge = 0, multiplicity = 1:

    O            1.540978286961     0.957810725273    -1.385726869759
    C            1.534692981598    -0.064873725300    -0.784756785943
    C            0.411226490854    -0.555291153706     0.093701745024
    O            2.505475773831    -0.978601836488    -0.891887192284
    C           -0.809079706485     0.359705022409     0.096103764363
    H            0.156379267046    -1.557998919163    -0.237675021825
    H            0.816395010953    -0.672998247240     1.096371802422
    C           -1.925325196572    -0.161885744655     1.002187807197
    H           -1.177802914214     0.465045970261    -0.919693616958
    H           -0.510200184480     1.353861388981     0.413003535870
    C           -3.157751579713     0.744057284955     1.014448049387
    H           -2.218058765163    -1.160374315180     0.680993801479
    H           -1.548979191858    -0.267998223413     2.018656664590
    C           -4.272637556562     0.222385702029     1.920081781347
    H           -3.535893513497     0.849732334080     0.000105765685
    H           -2.867214874254     1.741454319223     1.336779406607
    H           -4.608917083364    -0.760489858882     1.602066581093
    H           -5.131922130174     0.885597353329     1.907362485969
    H           -3.935165573391     0.138306353731     2.949334849772
    C            3.836244242697    -0.501437222584    -0.969096253002
    H            3.976668173981     0.116303776634    -1.843734912631
    H            4.465944204741    -1.375597959713    -1.026390826697
    H            4.081833643570     0.067178795852    -0.080769030257

  Mulliken Charges: (a.u.)
   Center  Symbol    Alpha    Beta     Spin     Total
       1     O     4.27500  4.27500  0.00000 -0.55000
       2     C     2.60456  2.60456  0.00000  0.79088
       3     C     3.21093  3.21093  0.00000 -0.42185
       4     O     4.31187  4.31187  0.00000 -0.62373
       5     C     3.15284  3.15284  0.00000 -0.30568
       6     H     0.39853  0.39853  0.00000  0.20294
       7     H     0.40389  0.40389  0.00000  0.19223
       8     C     3.15323  3.15323  0.00000 -0.30646
       9     H     0.41187  0.41187  0.00000  0.17626
      10     H     0.41146  0.41146  0.00000  0.17708
      11     C     3.15157  3.15157  0.00000 -0.30313
      12     H     0.42365  0.42365  0.00000  0.15270
      13     H     0.42438  0.42438  0.00000  0.15123
      14     C     3.23959  3.23959  0.00000 -0.47919
      15     H     0.42116  0.42116  0.00000  0.15769
      16     H     0.42141  0.42141  0.00000  0.15718
      17     H     0.42170  0.42170  0.00000  0.15661
      18     H     0.41841  0.41841  0.00000  0.16317
      19     H     0.42194  0.42194  0.00000  0.15612
      20     C     3.09448  3.09448  0.00000 -0.18896
      21     H     0.40326  0.40326  0.00000  0.19347
      22     H     0.40666  0.40666  0.00000  0.18669
      23     H     0.41763  0.41763  0.00000  0.16475

   Total alpha = 36.00000, Total beta = 36.00000, Total charge = -0.00000
