                              Psi4 1.0.54 Driver

  ==> Input File <==

--------------------------------------------------------------------------
set {
	reference rhf
	basis cc-pvtz
}

set_num_threads( 4 )
memory 2 gb

molecule MOL {
0 1

H	 2.614283	 2.028610	 0.296620
O	 3.358864	 1.662087	 -0.142800
C	 3.565468	 0.338079	 0.273842
C	 4.597479	 -0.406161	 -0.560271
H	 3.905520	 0.400597	 1.298750
H	 2.624745	 -0.209150	 0.279419
C	 4.184740	 -0.632598	 -2.012931
H	 5.531733	 0.146325	 -0.527305
H	 4.781651	 -1.366588	 -0.084815
C	 5.230440	 -1.411001	 -2.810074
H	 4.007497	 0.326038	 -2.488961
H	 3.240699	 -1.174264	 -2.038856
C	 4.836513	 -1.731014	 -4.253219
H	 6.165987	 -0.856949	 -2.807974
H	 5.432130	 -2.345647	 -2.294101
C	 4.721486	 -0.518989	 -5.175989
H	 5.577238	 -2.410268	 -4.666096
H	 3.894753	 -2.275292	 -4.255459
C	 4.424629	 -0.897357	 -6.624824
H	 5.648476	 0.049079	 -5.137797
H	 3.941240	 0.147800	 -4.821572
C	 4.305425	 0.310599	 -7.548147
H	 5.208209	 -1.554628	 -6.991669
H	 3.503182	 -1.472235	 -6.663729
H	 5.223316	 0.889087	 -7.556238
H	 4.097459	 0.006981	 -8.567791
H	 3.504253	 0.969502	 -7.229838

	symmetry c1
}
set optking {
	frozen_dihedral = ("
		4 3 2 1
	")
}

ee,wfn = optimize('scf', return_wfn=True)
oeprop( wfn, 'DIPOLE', 'QUADRUPOLE', 'MULLIKEN_CHARGES')
f=open( 'psi4out.xyz', 'w' )
f.write( "27  " )
f.write( str(ee) + "\n" )
f.write( MOL.save_string_xyz() )
f.close()
--------------------------------------------------------------------------

    Molecular point group: c1
  Charge       = 0
  Multiplicity = 1
  Basis Set: CC-PVTZ
  Basis Set:
  @DF-RHF Final Energy:  -388.42672902243277
    Total Energy =                       -388.4267290224328235
    Molecular point group: c1
  Basis Set: CC-PVTZ
  Basis Set:
  Basis Set: CC-PVTZ
  Basis Set:
  @DF-RHF Final Energy:  -388.42351156641843
    Total Energy =                       -388.4235115664191653
  Basis Set: CC-PVTZ
  Basis Set:
  Basis Set: CC-PVTZ
  Basis Set:
  @DF-RHF Final Energy:  -388.42834785689979
    Total Energy =                       -388.4283478569000181
  Basis Set: CC-PVTZ
  Basis Set:
  Basis Set: CC-PVTZ
  Basis Set:
  @DF-RHF Final Energy:  -388.42849812766138
    Total Energy =                       -388.4284981276611006
  Basis Set: CC-PVTZ
  Basis Set:
  Basis Set: CC-PVTZ
  Basis Set:
  @DF-RHF Final Energy:  -388.42850080025255
    Total Energy =                       -388.4285008002524364
  Basis Set: CC-PVTZ
  Basis Set:
  Basis Set: CC-PVTZ
  Basis Set:
  @DF-RHF Final Energy:  -388.42850334370132
    Total Energy =                       -388.4285033437016637
  Basis Set: CC-PVTZ
  Basis Set:
  Basis Set: CC-PVTZ
  Basis Set:
  @DF-RHF Final Energy:  -388.42850580687997
    Total Energy =                       -388.4285058068799117
  Basis Set: CC-PVTZ
  Basis Set:
  Charge       = 0
  Multiplicity = 1
  Basis Set: CC-PVTZ
  Basis Set:

    Orbital Energies (a.u.)
    -----------------------

    Doubly Occupied:

       1A    -20.546322     2A    -11.265834     3A    -11.210147
       4A    -11.208777     5A    -11.207269     6A    -11.206666
       7A    -11.205190     8A    -11.204334     9A    -11.202780
      10A     -1.364029    11A     -1.089473    12A     -1.057644
      13A     -1.009067    14A     -0.944062    15A     -0.880360
      16A     -0.811483    17A     -0.794666    18A     -0.771425
      19A     -0.708757    20A     -0.645374    21A     -0.635771
      22A     -0.620255    23A     -0.588828    24A     -0.579537
      25A     -0.573483    26A     -0.548301    27A     -0.537340
      28A     -0.516383    29A     -0.507898    30A     -0.490027
      31A     -0.477179    32A     -0.473801    33A     -0.460358
      34A     -0.453300    35A     -0.445144    36A     -0.440301
      37A     -0.425313

  @DF-RHF Final Energy:  -388.42850583600290

   => Energetics <=

    Nuclear Repulsion Energy =            460.6136490379508928
    One-Electron Energy =               -1439.8705511589212165
    Two-Electron Energy =                 590.8283962849675390
    DFT Exchange-Correlation Energy =       0.0000000000000000
    Empirical Dispersion Energy =           0.0000000000000000
    PCM Polarization Energy =               0.0000000000000000
    EFP Energy =                            0.0000000000000000
    Total Energy =                       -388.4285058360028415
    Molecular point group: c1
  Basis Set: CC-PVTZ
  Basis Set:

  -Total Gradient:
     Atom            X                  Y                   Z
    ------   -----------------  -----------------  -----------------
       1       -0.000305323587    -0.000265539335    -0.000444079885
       2        0.000279403359     0.000320190006     0.000443511947
       3        0.000243636946     0.000150180629     0.000199258887
       4       -0.000246215964    -0.000169244575    -0.000218177591
       5        0.000013765948    -0.000018712057    -0.000006493098
       6        0.000012286720    -0.000016174290     0.000010069604
       7       -0.000003994183     0.000001665865     0.000013743691
       8        0.000003009162    -0.000010448584    -0.000008558541
       9       -0.000004491932    -0.000000579469    -0.000001279293
      10        0.000011359020    -0.000001128301     0.000000721975
      11       -0.000009272916    -0.000007959171     0.000001566897
      12        0.000005017757     0.000007602866     0.000004380956
      13        0.000002309905     0.000006408391     0.000003762845
      14        0.000001699825    -0.000004864941    -0.000002880936
      15       -0.000003295532     0.000003108128    -0.000005523918
      16       -0.000000428317    -0.000000206731    -0.000001057512
      17       -0.000002118549     0.000002550303     0.000005814503
      18        0.000004073754     0.000005656141     0.000001742830
      19       -0.000002013718     0.000001237472     0.000001696574
      20       -0.000003316520    -0.000004466548    -0.000002324550
      21        0.000002454564    -0.000002574527    -0.000000799509
      22        0.000001460466     0.000002091245    -0.000000782859
      23       -0.000004213110     0.000003057665     0.000002504857
      24        0.000003404216     0.000004382175     0.000001574921
      25       -0.000004107446    -0.000004201981     0.000000640686
      26        0.000000685764     0.000001090426     0.000001884510
      27        0.000004224366    -0.000003120802    -0.000000917988

  **** Optimization is complete! (in 8 steps) ****
    Final optimized geometry and variables:
    Molecular point group: c1

    Geometry (in Angstrom), charge = 0, multiplicity = 1:

    H           -2.029863604097     2.021040936402     3.336965494740
    O           -1.227303783630     1.736795077804     2.940997297138
    C           -0.859611272291     0.476659093441     3.440633185221
    C            0.290755375633    -0.068431367008     2.616463578714
    H           -0.556634075558     0.559271983096     4.481296206601
    H           -1.702430654599    -0.210189378854     3.396750884034
    C           -0.074248115178    -0.357428658245     1.162938588830
    H            1.107414581515     0.646268132064     2.655551254065
    H            0.646000941451    -0.977744733329     3.094370150673
    C            1.110797069403    -0.878328287978     0.351951238627
    H           -0.468763870368     0.545874780768     0.716764141351
    H           -0.875662877604    -1.093456461555     1.136448343518
    C            0.781779052760    -1.267390105284    -1.090524205592
    H            1.899580467158    -0.129626632733     0.349140540697
    H            1.523245426563    -1.748617563014     0.855966062671
    C            0.383599907816    -0.104120510186    -1.996955823860
    H            1.650882033391    -1.758535177123    -1.519916714755
    H           -0.013343781430    -2.009671623168    -1.088660687595
    C            0.150864542326    -0.527334011836    -3.444981058759
    H            1.162593928778     0.654643058552    -1.967440836000
    H           -0.517097000487     0.370361574210    -1.620523083170
    C           -0.248998144926     0.631643466634    -4.352050939766
    H            1.052901727599    -0.992865139146    -3.832834802498
    H           -0.621962716015    -1.290809784662    -3.475575216596
    H            0.519003577298     1.397876251578    -4.369279200805
    H           -0.405279098821     0.297702121610    -5.371550682149
    H           -1.168632080063     1.095875188122    -4.011560305710

  Mulliken Charges: (a.u.)
   Center  Symbol    Alpha    Beta     Spin     Total
       1     H     0.39559  0.39559  0.00000  0.20881
       2     O     4.19853  4.19853  0.00000 -0.39707
       3     C     2.97479  2.97479  0.00000  0.05041
       4     C     3.09216  3.09216  0.00000 -0.18432
       5     H     0.46428  0.46428  0.00000  0.07143
       6     H     0.47350  0.47350  0.00000  0.05299
       7     C     3.09265  3.09265  0.00000 -0.18530
       8     H     0.45154  0.45154  0.00000  0.09692
       9     H     0.45312  0.45312  0.00000  0.09376
      10     C     3.09894  3.09894  0.00000 -0.19789
      11     H     0.44195  0.44195  0.00000  0.11610
      12     H     0.45916  0.45916  0.00000  0.08168
      13     C     3.09771  3.09771  0.00000 -0.19542
      14     H     0.45314  0.45314  0.00000  0.09373
      15     H     0.45033  0.45033  0.00000  0.09934
      16     C     3.08769  3.08769  0.00000 -0.17538
      17     H     0.44931  0.44931  0.00000  0.10137
      18     H     0.45479  0.45479  0.00000  0.09042
      19     C     3.08381  3.08381  0.00000 -0.16763
      20     H     0.45507  0.45507  0.00000  0.08985
      21     H     0.45240  0.45240  0.00000  0.09520
      22     C     3.14967  3.14967  0.00000 -0.29935
      23     H     0.45471  0.45471  0.00000  0.09057
      24     H     0.45532  0.45532  0.00000  0.08937
      25     H     0.45525  0.45525  0.00000  0.08950
      26     H     0.44920  0.44920  0.00000  0.10161
      27     H     0.45535  0.45535  0.00000  0.08930

   Total alpha = 37.00000, Total beta = 37.00000, Total charge = -0.00000

*** Psi4 exiting successfully. Buy a developer a beer!
