  ==> Input File <==

--------------------------------------------------------------------------
set {
	reference rhf
	basis 6-31G*
}

set_num_threads( 4 )
memory 2 gb

molecule MOL {
0 1

H	 2.221905	 -1.187076	 -0.616917
N	 2.434251	 -0.367735	 -0.081097
C	 1.267428	 0.496480	 0.024474
H	 3.179121	 0.104633	 -0.557493
C	 -0.016086	 -0.325158	 -0.029487
H	 1.288818	 1.183521	 -0.816092
H	 1.267576	 1.109062	 0.929528
C	 -1.282277	 0.529072	 0.046735
H	 -0.012495	 -0.908639	 -0.945788
H	 -0.015903	 -1.041248	 0.791956
C	 -2.563920	 -0.301775	 -0.006060
H	 -1.284084	 1.244622	 -0.773004
H	 -1.271387	 1.115393	 0.963286
H	 -2.621848	 -0.873522	 -0.927727
H	 -3.445135	 0.329952	 0.047812
H	 -2.609542	 -1.004582	 0.821105

	symmetry c1
}
set optking {
	frozen_dihedral = ("
		1 2 3 6
	")
}

ee = optimize('scf')
oeprop('DIPOLE', 'QUADRUPOLE', 'MULLIKEN_CHARGES')
f=open( 'psi4out.xyz', 'w' )
f.write( "16  " )
f.write( str(ee) + "\n" )
f.write( MOL.save_string_xyz() )
f.close()
--------------------------------------------------------------------------

    Molecular point group: c1
  Charge       = 0
  Multiplicity = 1
  Basis Set: 6-31G*
  Basis Set:
  @DF-RHF Final Energy:  -212.31264031845458
    Total Energy =                       -212.3126403184546120
    Molecular point group: c1
  Basis Set: 6-31G*
  Basis Set:
  Basis Set: 6-31G*
  Basis Set:
  @DF-RHF Final Energy:  -212.31455258673083
    Total Energy =                       -212.3145525867308834
  Basis Set: 6-31G*
  Basis Set:
  Basis Set: 6-31G*
  Basis Set:
  @DF-RHF Final Energy:  -212.31479499744850
    Total Energy =                       -212.3147949974485300
  Basis Set: 6-31G*
  Basis Set:
  Basis Set: 6-31G*
  Basis Set:
  @DF-RHF Final Energy:  -212.31480097505880
    Total Energy =                       -212.3148009750587448
  Basis Set: 6-31G*
  Basis Set:
  Charge       = 0
  Multiplicity = 1
  Basis Set: 6-31G*
  Basis Set:

    Orbital Energies (a.u.)
    -----------------------

    Doubly Occupied:

       1A    -15.529229     2A    -11.239147     3A    -11.217596
       4A    -11.214936     5A    -11.209932     6A     -1.174207
       7A     -1.061716     8A     -0.959952     9A     -0.845519
      10A     -0.796737    11A     -0.652369    12A     -0.650313
      13A     -0.599951    14A     -0.576769    15A     -0.572604
      16A     -0.521807    17A     -0.508207    18A     -0.472507
      19A     -0.468296    20A     -0.461972    21A     -0.375441

  @DF-RHF Final Energy:  -212.31480165997007

   => Energetics <=

    Nuclear Repulsion Energy =            186.3721552014769429
    One-Electron Energy =                -655.1555010914433979
    Two-Electron Energy =                 256.4685442299963825
    DFT Exchange-Correlation Energy =       0.0000000000000000
    Empirical Dispersion Energy =           0.0000000000000000
    PCM Polarization Energy =               0.0000000000000000
    EFP Energy =                            0.0000000000000000
    Total Energy =                       -212.3148016599700441
    Molecular point group: c1
  Basis Set: 6-31G*
  Basis Set:

  -Total Gradient:
     Atom            X                  Y                   Z
    ------   -----------------  -----------------  -----------------
       1       -0.001192322158    -0.001593280080     0.002907881562
       2        0.001972383782     0.002599999990    -0.003098674519
       3       -0.002419956569    -0.003236959775    -0.001772937016
       4       -0.000023415620    -0.000007420319     0.000003577523
       5        0.000142663010     0.000060798094     0.000004362156
       6        0.001586252383     0.002156125536     0.001848674791
       7       -0.000041086595    -0.000016858325     0.000043685182
       8       -0.000033564117    -0.000001144718     0.000050324191
       9        0.000034691036     0.000017551366     0.000029808529
      10        0.000008195560     0.000033878059    -0.000006421586
      11       -0.000035620703     0.000018111711    -0.000026635253
      12        0.000018136835    -0.000011044391     0.000014317972
      13       -0.000000621262    -0.000014525221     0.000007270861
      14        0.000005866693    -0.000013280890     0.000006163334
      15       -0.000017609839    -0.000007114593    -0.000019960479
      16       -0.000003992433     0.000015163554     0.000008562754

  **** Optimization is complete! (in 5 steps) ****
    Final optimized geometry and variables:
    Molecular point group: c1

    Geometry (in Angstrom), charge = 0, multiplicity = 1:

    H            2.285573891060    -1.191914081062    -0.554214006147
    N            2.444110655085    -0.362885686849    -0.016776538684
    C            1.269017391019     0.498522883259    -0.009711309096
    H            3.248397074579     0.100914081171    -0.387728495820
    C           -0.015355308946    -0.321310953105    -0.034454076803
    H            1.269685255320     1.216353553096    -0.832152102321
    H            1.290642421842     1.091935349055     0.900863682197
    C           -1.278702305991     0.532982049290     0.078330882171
    H           -0.053181444870    -0.899589270787    -0.957284088657
    H            0.017487554458    -1.039501413253     0.781448622423
    C           -2.561971470546    -0.296269403056     0.042296138207
    H           -1.297177851443     1.260376705936    -0.730425819864
    H           -1.244986451555     1.104245049449     1.003155402393
    H           -2.641211897678    -0.856400313504    -0.885160623385
    H           -3.440731124475     0.335978304969     0.122609787562
    H           -2.590721914854    -1.008866143648     0.861571163778

  Mulliken Charges: (a.u.)
   Center  Symbol    Alpha    Beta     Spin     Total
       1     H     0.33350  0.33350  0.00000  0.33300
       2     N     3.92974  3.92974  0.00000 -0.85947
       3     C     3.04787  3.04787  0.00000 -0.09574
       4     H     0.33174  0.33174  0.00000  0.33651
       5     C     3.16271  3.16271  0.00000 -0.32543
       6     H     0.43388  0.43388  0.00000  0.13224
       7     H     0.42108  0.42108  0.00000  0.15783
       8     C     3.15454  3.15454  0.00000 -0.30908
       9     H     0.42693  0.42693  0.00000  0.14614
      10     H     0.41422  0.41422  0.00000  0.17156
      11     C     3.23922  3.23922  0.00000 -0.47843
      12     H     0.42272  0.42272  0.00000  0.15456
      13     H     0.42063  0.42063  0.00000  0.15873
      14     H     0.42188  0.42188  0.00000  0.15623
      15     H     0.41884  0.41884  0.00000  0.16232
      16     H     0.42049  0.42049  0.00000  0.15901

   Total alpha = 21.00000, Total beta = 21.00000, Total charge =  0.00000
