  ==> Input File <==

--------------------------------------------------------------------------
set {
	reference rhf
	basis 6-31G*
}

set_num_threads( 1 )
memory 2 gb

molecule MOL {
0 1

H	 1.606497	 -1.724154	 0.000322
O	 2.016064	 -0.864478	 0.000222
C	 1.050492	 0.053836	 0.000068
C	 -0.318135	 -0.576402	 0.000164
O	 1.285279	 1.218255	 -0.000078
C	 -1.454360	 0.441875	 -0.000474
H	 -0.374042	 -1.230163	 -0.866135
H	 -0.374274	 -1.229227	 0.867154
C	 -2.826123	 -0.230780	 0.000056
H	 -1.357605	 1.085198	 -0.868380
H	 -1.357504	 1.086451	 0.866496
H	 -2.959731	 -0.858053	 -0.876869
H	 -3.619374	 0.509403	 -0.000080
H	 -2.959371	 -0.857318	 0.877556

	symmetry c1
}
set optking {
	frozen_dihedral = ("
		7 4 6 10,
		2 3 4 7
	")
}

ee = energy('scf')
oeprop('DIPOLE', 'QUADRUPOLE', 'MULLIKEN_CHARGES')
f=open( 'psi4out.xyz', 'w' )
f.write( "14  " )
f.write( str(ee) + "\n" )
f.write( MOL.save_string_xyz() )
f.close()
--------------------------------------------------------------------------

    Molecular point group: c1

    Geometry (in Angstrom), charge = 0, multiplicity = 1:

       Center              X                  Y                   Z               Mass
    ------------   -----------------  -----------------  -----------------  -----------------
           H          1.620776969265    -1.709139513979     0.000320458095     1.007825032070
           O          2.030343969265    -0.849463513979     0.000220458095    15.994914619560
           C          1.064771969265     0.068850486021     0.000066458095    12.000000000000
           C         -0.303855030735    -0.561387513979     0.000162458095    12.000000000000
           O          1.299558969265     1.233269486021    -0.000079541905    15.994914619560
           C         -1.440080030735     0.456889486021    -0.000475541905    12.000000000000
           H         -0.359762030735    -1.215148513979    -0.866136541905     1.007825032070
           H         -0.359994030735    -1.214212513979     0.867152458095     1.007825032070
           C         -2.811843030735    -0.215765513979     0.000054458095    12.000000000000
           H         -1.343325030735     1.100212486021    -0.868381541905     1.007825032070
           H         -1.343224030735     1.101465486021     0.866494458095     1.007825032070
           H         -2.945451030735    -0.843038513979    -0.876870541905     1.007825032070
           H         -3.605094030735     0.524417486021    -0.000081541905     1.007825032070
           H         -2.945091030735    -0.842303513979     0.877554458095     1.007825032070

  Charge       = 0
  Multiplicity = 1
  Basis Set: 6-31G*
  Basis Set:

    Orbital Energies (a.u.)
    -----------------------

    Doubly Occupied:

       1A    -20.616275     2A    -20.549345     3A    -11.381725
       4A    -11.253988     5A    -11.233070     6A    -11.223318
       7A     -1.471682     8A     -1.371130     9A     -1.090917
      10A     -0.982095    11A     -0.851747    12A     -0.820551
      13A     -0.721856    14A     -0.675827    15A     -0.661258
      16A     -0.618298    17A     -0.598233    18A     -0.585070
      19A     -0.554556    20A     -0.510151    21A     -0.498274
      22A     -0.490719    23A     -0.475734    24A     -0.440795

  @DF-RHF Final Energy:  -305.86825316573197

   => Energetics <=

    Nuclear Repulsion Energy =            240.4339167321321327
    One-Electron Energy =                -893.2511255316087500
    Two-Electron Energy =                 346.9489556337447311
    DFT Exchange-Correlation Energy =       0.0000000000000000
    Empirical Dispersion Energy =           0.0000000000000000
    PCM Polarization Energy =               0.0000000000000000
    EFP Energy =                            0.0000000000000000
    Total Energy =                       -305.8682531657318577

  Mulliken Charges: (a.u.)
   Center  Symbol    Alpha    Beta     Spin     Total
       1     H     0.26701  0.26701  0.00000  0.46598
       2     O     4.34889  4.34889  0.00000 -0.69777
       3     C     2.60061  2.60061  0.00000  0.79879
       4     C     3.24438  3.24438  0.00000 -0.48877
       5     O     4.26928  4.26928  0.00000 -0.53855
       6     C     3.15087  3.15087  0.00000 -0.30174
       7     H     0.40361  0.40361  0.00000  0.19277
       8     H     0.40360  0.40360  0.00000  0.19281
       9     C     3.24378  3.24378  0.00000 -0.48755
      10     H     0.40656  0.40656  0.00000  0.18687
      11     H     0.40654  0.40654  0.00000  0.18691
      12     H     0.42120  0.42120  0.00000  0.15760
      13     H     0.41247  0.41247  0.00000  0.17507
      14     H     0.42120  0.42120  0.00000  0.15759

   Total alpha = 24.00000, Total beta = 24.00000, Total charge = -0.00000
