  ==> Input File <==

--------------------------------------------------------------------------
set {
	reference rhf
	basis 6-31G*
}

set_num_threads( 1 )
memory 2 gb

molecule MOL {
0 1

H	 2.591676	 2.013956	 0.335017
O	 3.341076	 1.666752	 -0.126416
C	 3.569581	 0.339145	 0.272707
C	 2.539767	 -0.640285	 -0.279495
H	 4.553106	 0.084646	 -0.100901
H	 3.608576	 0.269204	 1.359154
C	 1.115811	 -0.397273	 0.226630
H	 2.556196	 -0.582511	 -1.364741
H	 2.852081	 -1.648031	 -0.010655
C	 1.011464	 -0.463042	 1.752934
H	 0.449530	 -1.133285	 -0.214643
H	 0.772668	 0.580085	 -0.113024
C	 -0.377181	 -0.142279	 2.317839
H	 1.317683	 -1.451564	 2.090426
H	 1.726664	 0.237301	 2.179208
C	 -1.466752	 -1.158773	 1.965628
H	 -0.299127	 -0.079203	 3.401235
H	 -0.683249	 0.846468	 1.979403
C	 -2.807041	 -0.852884	 2.637560
H	 -1.137513	 -2.154366	 2.259749
H	 -1.613482	 -1.192148	 0.888754
C	 -3.898133	 -1.862417	 2.282559
H	 -2.672169	 -0.832414	 3.716855
H	 -3.132870	 0.145358	 2.352543
H	 -3.616070	 -2.867060	 2.584811
H	 -4.834557	 -1.619718	 2.775351
H	 -4.083059	 -1.880298	 1.212117

	symmetry c1
}
set optking {
	frozen_dihedral = ("
		14 10 7 4,
		14 10 13 16,
		8 4 3 2,
		10 13 16 20,
		20 16 19 22,
		4 3 2 1
	")
}

ee = energy('scf')
oeprop('DIPOLE', 'QUADRUPOLE', 'MULLIKEN_CHARGES')
f=open( 'psi4out.xyz', 'w' )
f.write( "27  " )
f.write( str(ee) + "\n" )
f.write( MOL.save_string_xyz() )
f.close()
--------------------------------------------------------------------------

    Molecular point group: c1

    Geometry (in Angstrom), charge = 0, multiplicity = 1:

       Center              X                  Y                   Z               Mass
    ------------   -----------------  -----------------  -----------------  -----------------
           H          2.222571952474     2.373779126809    -0.876204241556     1.007825032070
           O          2.971971952474     2.026575126809    -1.337637241556    15.994914619560
           C          3.200476952474     0.698968126809    -0.938514241556    12.000000000000
           C          2.170662952474    -0.280461873191    -1.490716241556    12.000000000000
           H          4.184001952474     0.444469126809    -1.312122241556     1.007825032070
           H          3.239471952474     0.629027126809     0.147932758444     1.007825032070
           C          0.746706952474    -0.037449873191    -0.984591241556    12.000000000000
           H          2.187091952474    -0.222687873191    -2.575962241556     1.007825032070
           H          2.482976952474    -1.288207873191    -1.221876241556     1.007825032070
           C          0.642359952474    -0.103218873191     0.541712758444    12.000000000000
           H          0.080425952474    -0.773461873191    -1.425864241556     1.007825032070
           H          0.403563952474     0.939908126809    -1.324245241556     1.007825032070
           C         -0.746285047526     0.217544126809     1.106617758444    12.000000000000
           H          0.948578952474    -1.091740873191     0.879204758444     1.007825032070
           H          1.357559952474     0.597124126809     0.967986758444     1.007825032070
           C         -1.835856047526    -0.798949873191     0.754406758444    12.000000000000
           H         -0.668231047526     0.280620126809     2.190013758444     1.007825032070
           H         -1.052353047526     1.206291126809     0.768181758444     1.007825032070
           C         -3.176145047526    -0.493060873191     1.426338758444    12.000000000000
           H         -1.506617047526    -1.794542873191     1.048527758444     1.007825032070
           H         -1.982586047526    -0.832324873191    -0.322467241556     1.007825032070
           C         -4.267237047526    -1.502593873191     1.071337758444    12.000000000000
           H         -3.041273047526    -0.472590873191     2.505633758444     1.007825032070
           H         -3.501974047526     0.505181126809     1.141321758444     1.007825032070
           H         -3.985174047526    -2.507236873191     1.373589758444     1.007825032070
           H         -5.203661047526    -1.259894873191     1.564129758444     1.007825032070
           H         -4.452163047526    -1.520474873191     0.000895758444     1.007825032070

  Charge       = 0
  Multiplicity = 1
  Basis Set: 6-31G*
  Basis Set:

    Orbital Energies (a.u.)
    -----------------------

    Doubly Occupied:

       1A    -20.552435     2A    -11.265578     3A    -11.219900
       4A    -11.219260     5A    -11.218170     6A    -11.217084
       7A    -11.215592     8A    -11.215135     9A    -11.210115
      10A     -1.359103    11A     -1.097669    12A     -1.062922
      13A     -1.011002    14A     -0.946658    15A     -0.893619
      16A     -0.828005    17A     -0.798822    18A     -0.773073
      19A     -0.695865    20A     -0.649324    21A     -0.645135
      22A     -0.610004    23A     -0.602193    24A     -0.586489
      25A     -0.572476    26A     -0.565934    27A     -0.543726
      28A     -0.527116    29A     -0.510320    30A     -0.497644
      31A     -0.487465    32A     -0.472962    33A     -0.467446
      34A     -0.462111    35A     -0.451946    36A     -0.442306
      37A     -0.422223

  @DF-RHF Final Energy:  -388.27863344344894

   => Energetics <=

    Nuclear Repulsion Energy =            464.8216461025982653
    One-Electron Energy =               -1447.5670506389812999
    Two-Electron Energy =                 594.4667710929329587
    DFT Exchange-Correlation Energy =       0.0000000000000000
    Empirical Dispersion Energy =           0.0000000000000000
    PCM Polarization Energy =               0.0000000000000000
    EFP Energy =                            0.0000000000000000
    Total Energy =                       -388.2786334434500759

  Mulliken Charges: (a.u.)
   Center  Symbol    Alpha    Beta     Spin     Total
       1     H     0.28015  0.28015  0.00000  0.43971
       2     O     4.37121  4.37121  0.00000 -0.74242
       3     C     3.00204  3.00204  0.00000 -0.00408
       4     C     3.16191  3.16191  0.00000 -0.32383
       5     H     0.41387  0.41387  0.00000  0.17226
       6     H     0.42837  0.42837  0.00000  0.14327
       7     C     3.16511  3.16511  0.00000 -0.33022
       8     H     0.41293  0.41293  0.00000  0.17415
       9     H     0.42430  0.42430  0.00000  0.15140
      10     C     3.15894  3.15894  0.00000 -0.31789
      11     H     0.41454  0.41454  0.00000  0.17093
      12     H     0.42500  0.42500  0.00000  0.15001
      13     C     3.15132  3.15132  0.00000 -0.30263
      14     H     0.42184  0.42184  0.00000  0.15632
      15     H     0.42411  0.42411  0.00000  0.15178
      16     C     3.15307  3.15307  0.00000 -0.30615
      17     H     0.42121  0.42121  0.00000  0.15758
      18     H     0.42523  0.42523  0.00000  0.14954
      19     C     3.15132  3.15132  0.00000 -0.30265
      20     H     0.42420  0.42420  0.00000  0.15160
      21     H     0.42168  0.42168  0.00000  0.15664
      22     C     3.23930  3.23930  0.00000 -0.47860
      23     H     0.42298  0.42298  0.00000  0.15404
      24     H     0.42292  0.42292  0.00000  0.15415
      25     H     0.42172  0.42172  0.00000  0.15656
      26     H     0.41903  0.41903  0.00000  0.16193
      27     H     0.42170  0.42170  0.00000  0.15660

   Total alpha = 37.00000, Total beta = 37.00000, Total charge =  0.00000
