  ==> Input File <==

--------------------------------------------------------------------------
set {
	reference rhf
	basis 6-31G*
}

set_num_threads( 4 )
memory 2 gb

molecule MOL {
0 1

H	 1.148083	 -1.049780	 0.784252
O	 1.319262	 -0.618148	 -0.041729
C	 0.709265	 0.639550	 -0.033818
C	 -0.711126	 0.639738	 -0.534886
H	 1.318576	 1.275137	 -0.666252
H	 0.736034	 1.076371	 0.963928
C	 -1.320452	 -0.384573	 -1.097268
H	 -1.238187	 1.572854	 -0.408458
H	 -0.820610	 -1.322929	 -1.255625
H	 -2.339680	 -0.314064	 -1.432200

	symmetry c1
}
set optking {
	frozen_dihedral = ("
		5 3 2 1
	")
}

ee = optimize('scf')
oeprop('DIPOLE', 'QUADRUPOLE', 'MULLIKEN_CHARGES')
f=open( 'psi4out.xyz', 'w' )
f.write( "10  " )
f.write( str(ee) + "\n" )
f.write( MOL.save_string_xyz() )
f.close()
--------------------------------------------------------------------------

    Molecular point group: c1
  Charge       = 0
  Multiplicity = 1
  Basis Set: 6-31G*
  Basis Set:
  @DF-RHF Final Energy:  -191.91607592697889
    Total Energy =                       -191.9160759269790333
    Molecular point group: c1
  Basis Set: 6-31G*
  Basis Set:
  Basis Set: 6-31G*
  Basis Set:
  @DF-RHF Final Energy:  -191.91625437651294
    Total Energy =                       -191.9162543765129669
  Basis Set: 6-31G*
  Basis Set:
  Basis Set: 6-31G*
  Basis Set:
  @DF-RHF Final Energy:  -191.91628671283055
    Total Energy =                       -191.9162867128305834
  Basis Set: 6-31G*
  Basis Set:
  Charge       = 0
  Multiplicity = 1
  Basis Set: 6-31G*
  Basis Set:

    Orbital Energies (a.u.)
    -----------------------

    Doubly Occupied:

       1A    -20.560354     2A    -11.278588     3A    -11.226524
       4A    -11.214247     5A     -1.368482     6A     -1.054957
       7A     -0.926107     8A     -0.763385     9A     -0.695302
      10A     -0.656355    11A     -0.611975    12A     -0.572499
      13A     -0.523278    14A     -0.499933    15A     -0.445363
      16A     -0.360395

  @DF-RHF Final Energy:  -191.91628749346205

   => Energetics <=

    Nuclear Repulsion Energy =            119.2567363761153132
    One-Electron Energy =                -496.8305565131265666
    Two-Electron Energy =                 185.6575326435492457
    DFT Exchange-Correlation Energy =       0.0000000000000000
    Empirical Dispersion Energy =           0.0000000000000000
    PCM Polarization Energy =               0.0000000000000000
    EFP Energy =                            0.0000000000000000
    Total Energy =                       -191.9162874934619936
    Molecular point group: c1
  Basis Set: 6-31G*
  Basis Set:

  -Total Gradient:
     Atom            X                  Y                   Z
    ------   -----------------  -----------------  -----------------
       1        0.001778746794     0.000835259715     0.000922576404
       2       -0.001985713286    -0.000952382992    -0.000711709067
       3       -0.000790899169    -0.000308141297    -0.001748464088
       4        0.000008851610     0.000055273469     0.000020281415
       5        0.000961095733     0.000469290745     0.001520625373
       6        0.000013648061    -0.000062137856     0.000007801529
       7        0.000027874381    -0.000027708518    -0.000019813049
       8       -0.000000240144    -0.000009711651    -0.000005369210
       9       -0.000008446703     0.000004817047    -0.000006149728
      10       -0.000004917280    -0.000004558660     0.000020220420

  **** Optimization is complete! (in 4 steps) ****
    Final optimized geometry and variables:
    Molecular point group: c1

    Geometry (in Angstrom), charge = 0, multiplicity = 1:

    H            1.069323364514    -1.122862361792     1.117568621009
    O            1.255398386869    -0.647242217550     0.321191737350
    C            0.634731174763     0.606863369711     0.368463894462
    C           -0.776276352138     0.607427920571    -0.154947951787
    H            1.248538541466     1.284967497717    -0.214832086009
    H            0.638458414800     1.000153403093     1.384371203947
    C           -1.393873723532    -0.433122263981    -0.675361825732
    H           -1.286684540543     1.555695968222    -0.082245512617
    H           -0.905703307342    -1.385174495736    -0.772105911878
    H           -2.406046081866    -0.361822096060    -1.031182461468

  Mulliken Charges: (a.u.)
   Center  Symbol    Alpha    Beta     Spin     Total
       1     H     0.27886  0.27886  0.00000  0.44229
       2     O     4.36760  4.36760  0.00000 -0.73520
       3     C     3.00384  3.00384  0.00000 -0.00768
       4     C     3.09034  3.09034  0.00000 -0.18067
       5     H     0.41024  0.41024  0.00000  0.17952
       6     H     0.42643  0.42643  0.00000  0.14714
       7     C     3.19424  3.19424  0.00000 -0.38847
       8     H     0.41207  0.41207  0.00000  0.17586
       9     H     0.40355  0.40355  0.00000  0.19290
      10     H     0.41284  0.41284  0.00000  0.17431

   Total alpha = 16.00000, Total beta = 16.00000, Total charge =  0.00000
