  ==> Input File <==

--------------------------------------------------------------------------
set {
	reference rhf
	basis 6-31G*
}

set_num_threads( 4 )
memory 2 gb

molecule MOL {
0 1

H	 2.410427	 -0.185281	 1.312216
C	 1.951159	 -0.223429	 0.317018
C	 0.692068	 0.589600	 0.160137
O	 2.447745	 -0.873590	 -0.544854
C	 -0.558097	 -0.297372	 0.091132
H	 0.791645	 1.202255	 -0.728243
H	 0.616171	 1.253469	 1.020572
C	 -1.850991	 0.512573	 -0.019058
H	 -0.476753	 -0.965681	 -0.762987
H	 -0.604799	 -0.930658	 0.975228
C	 -3.096943	 -0.368295	 -0.099594
H	 -1.800724	 1.150330	 -0.898172
H	 -1.931651	 1.177355	 0.838044
H	 -3.060452	 -1.020287	 -0.967456
H	 -3.996858	 0.233488	 -0.175704
H	 -3.191959	 -0.995686	 0.782074

	symmetry c1
}
set optking {
	frozen_dihedral = ("
		4 2 3 6
	")
}

ee = optimize('scf')
oeprop('DIPOLE', 'QUADRUPOLE', 'MULLIKEN_CHARGES')
f=open( 'psi4out.xyz', 'w' )
f.write( "16  " )
f.write( str(ee) + "\n" )
f.write( MOL.save_string_xyz() )
f.close()
--------------------------------------------------------------------------

    Molecular point group: c1
  Charge       = 0
  Multiplicity = 1
  Basis Set: 6-31G*
  Basis Set:
  @DF-RHF Final Energy:  -270.01813114526510
    Total Energy =                       -270.0181311452650448
    Molecular point group: c1
  Basis Set: 6-31G*
  Basis Set:
  Basis Set: 6-31G*
  Basis Set:
  @DF-RHF Final Energy:  -270.01757046914059
    Total Energy =                       -270.0175704691404803
  Basis Set: 6-31G*
  Basis Set:
  Basis Set: 6-31G*
  Basis Set:
  @DF-RHF Final Energy:  -270.01838455329073
    Total Energy =                       -270.0183845532907299
  Basis Set: 6-31G*
  Basis Set:
  Basis Set: 6-31G*
  Basis Set:
  @DF-RHF Final Energy:  -270.01852956692949
    Total Energy =                       -270.0185295669295442
  Basis Set: 6-31G*
  Basis Set:
  Basis Set: 6-31G*
  Basis Set:
  @DF-RHF Final Energy:  -270.01834804330849
    Total Energy =                       -270.0183480433086629
  Basis Set: 6-31G*
  Basis Set:
  Basis Set: 6-31G*
  Basis Set:
  @DF-RHF Final Energy:  -270.01854123310466
    Total Energy =                       -270.0185412331045427
  Basis Set: 6-31G*
  Basis Set:
  Basis Set: 6-31G*
  Basis Set:
  @DF-RHF Final Energy:  -270.01854240889531
    Total Energy =                       -270.0185424088954278
  Basis Set: 6-31G*
  Basis Set:
  Charge       = 0
  Multiplicity = 1
  Basis Set: 6-31G*
  Basis Set:

    Orbital Energies (a.u.)
    -----------------------

    Doubly Occupied:

       1A    -20.562408     2A    -11.327149     3A    -11.234797
       4A    -11.231926     5A    -11.226078     6A    -11.215636
       7A     -1.402691     8A     -1.091952     9A     -1.015396
      10A     -0.905602    11A     -0.812794    12A     -0.784499
      13A     -0.681712    14A     -0.645656    15A     -0.627717
      16A     -0.601147    17A     -0.577869    18A     -0.549382
      19A     -0.526221    20A     -0.507911    21A     -0.484086
      22A     -0.478376    23A     -0.474086    24A     -0.408391

  @DF-RHF Final Energy:  -270.01854241096316

   => Energetics <=

    Nuclear Repulsion Energy =            230.7208247743112679
    One-Electron Energy =                -822.7317729589916553
    Two-Electron Energy =                 321.9924057737171097
    DFT Exchange-Correlation Energy =       0.0000000000000000
    Empirical Dispersion Energy =           0.0000000000000000
    PCM Polarization Energy =               0.0000000000000000
    EFP Energy =                            0.0000000000000000
    Total Energy =                       -270.0185424109632777
    Molecular point group: c1
  Basis Set: 6-31G*
  Basis Set:

  -Total Gradient:
     Atom            X                  Y                   Z
    ------   -----------------  -----------------  -----------------
       1        0.000001162828    -0.000000340782     0.000001079854
       2        0.000403895980     0.000591675837    -0.000148489631
       3       -0.000345218044    -0.000552761001    -0.000227811424
       4       -0.000252827836    -0.000359513369     0.000143096726
       5        0.000004871665     0.000006439944    -0.000002194968
       6        0.000194052508     0.000325233549     0.000236791882
       7        0.000006115640     0.000000164279     0.000001701100
       8        0.000000047684    -0.000005571750    -0.000003631457
       9       -0.000003540234    -0.000001155662    -0.000001030501
      10       -0.000007225798    -0.000001180542    -0.000002938064
      11       -0.000003724090     0.000000077853     0.000004392590
      12        0.000001072093    -0.000002291265    -0.000001043590
      13        0.000004164338    -0.000000433767    -0.000001680647
      14        0.000000978664     0.000001813218     0.000001349030
      15       -0.000002765068    -0.000000941951     0.000000683197
      16       -0.000001060329    -0.000001214589    -0.000000274098

  **** Optimization is complete! (in 8 steps) ****
    Final optimized geometry and variables:
    Molecular point group: c1

    Geometry (in Angstrom), charge = 0, multiplicity = 1:

    H            2.545672668840    -0.108772972347     1.300477991423
    C            2.037257705063    -0.105972423739     0.330377488638
    C            0.776694093273     0.722216602691     0.225685262124
    O            2.467938578413    -0.753416194026    -0.569005477645
    C           -0.470556280683    -0.170981398276     0.143405571849
    H            0.852432376059     1.330897570932    -0.670292967610
    H            0.705892885614     1.391208148996     1.078390527161
    C           -1.762543823869     0.634379450544     0.000858731164
    H           -0.357767118167    -0.843821238682    -0.700788260056
    H           -0.530667380242    -0.794680900065     1.033332684753
    C           -3.004283152536    -0.252307188373    -0.083136218645
    H           -1.700753228440     1.256052914114    -0.889372552766
    H           -1.859998518329     1.314793887994     0.844001579365
    H           -2.950303326733    -0.921836030047    -0.936485753230
    H           -3.904795925342     0.344600374354    -0.186781414216
    H           -3.112305405537    -0.862116634583     0.809262473473

  Mulliken Charges: (a.u.)
   Center  Symbol    Alpha    Beta     Spin     Total
       1     H     0.42752  0.42752  0.00000  0.14495
       2     C     2.84280  2.84280  0.00000  0.31440
       3     C     3.20054  3.20054  0.00000 -0.40108
       4     O     4.23666  4.23666  0.00000 -0.47333
       5     C     3.15943  3.15943  0.00000 -0.31885
       6     H     0.40069  0.40069  0.00000  0.19862
       7     H     0.41652  0.41652  0.00000  0.16695
       8     C     3.15252  3.15252  0.00000 -0.30504
       9     H     0.40544  0.40544  0.00000  0.18912
      10     H     0.41928  0.41928  0.00000  0.16144
      11     C     3.24042  3.24042  0.00000 -0.48083
      12     H     0.41962  0.41962  0.00000  0.16077
      13     H     0.42197  0.42197  0.00000  0.15606
      14     H     0.41867  0.41867  0.00000  0.16267
      15     H     0.41729  0.41729  0.00000  0.16541
      16     H     0.42063  0.42063  0.00000  0.15874

   Total alpha = 24.00000, Total beta = 24.00000, Total charge =  0.00000
