  ==> Input File <==

--------------------------------------------------------------------------
set {
	reference rhf
	basis cc-pvtz
}

set_num_threads( 4 )
memory 2 gb

molecule MOL {
0 1

O	 -0.694481	 1.313155	 -0.204815
C	 -0.862519	 0.151932	 -0.046791
C	 -2.171428	 -0.477048	 0.339095
O	 0.085519	 -0.757083	 -0.192238
H	 -2.467997	 -1.191667	 -0.417688
H	 -2.923379	 0.287970	 0.444097
H	 -2.053854	 -1.015120	 1.270901
C	 1.132678	 -0.511255	 -1.123638
C	 2.245063	 0.313822	 -0.510657
H	 0.725023	 -0.026615	 -1.996998
H	 1.488967	 -1.492316	 -1.399917
H	 3.052312	 0.423584	 -1.226026
H	 1.892074	 1.300248	 -0.242802
H	 2.638218	 -0.171471	 0.374505

	symmetry c1
}
set optking {
	frozen_dihedral = ("
		8 4 2 1
	")
}

ee = optimize('scf')
oeprop('DIPOLE', 'QUADRUPOLE', 'MULLIKEN_CHARGES')
f=open( 'psi4out.xyz', 'w' )
f.write( "14  " )
f.write( str(ee) + "\n" )
f.write( MOL.save_string_xyz() )
f.close()
--------------------------------------------------------------------------

    Molecular point group: c1
  Charge       = 0
  Multiplicity = 1
  Basis Set: CC-PVTZ
  Basis Set:
  @DF-RHF Final Energy:  -305.98583912261449
    Total Energy =                       -305.9858391226141521
    Molecular point group: c1
  Basis Set: CC-PVTZ
  Basis Set:
  Basis Set: CC-PVTZ
  Basis Set:
  @DF-RHF Final Energy:  -305.98320946854074
    Total Energy =                       -305.9832094685405650
  Basis Set: CC-PVTZ
  Basis Set:
  Basis Set: CC-PVTZ
  Basis Set:
  @DF-RHF Final Energy:  -305.98662007233190
    Total Energy =                       -305.9866200723317888
  Basis Set: CC-PVTZ
  Basis Set:
  Basis Set: CC-PVTZ
  Basis Set:
  @DF-RHF Final Energy:  -305.98676115112590
    Total Energy =                       -305.9867611511259042
  Basis Set: CC-PVTZ
  Basis Set:
  Basis Set: CC-PVTZ
  Basis Set:
  @DF-RHF Final Energy:  -305.98682712404059
    Total Energy =                       -305.9868271240404169
  Basis Set: CC-PVTZ
  Basis Set:
  Basis Set: CC-PVTZ
  Basis Set:
  @DF-RHF Final Energy:  -305.98684197914025
    Total Energy =                       -305.9868419791403085
  Basis Set: CC-PVTZ
  Basis Set:
  Basis Set: CC-PVTZ
  Basis Set:
  @DF-RHF Final Energy:  -305.98684429112245
    Total Energy =                       -305.9868442911226225
  Basis Set: CC-PVTZ
  Basis Set:
  Charge       = 0
  Multiplicity = 1
  Basis Set: CC-PVTZ
  Basis Set:

    Orbital Energies (a.u.)
    -----------------------

    Doubly Occupied:

       1A    -20.590125     2A    -20.535358     3A    -11.368667
       4A    -11.285758     5A    -11.232130     6A    -11.215065
       7A     -1.468130     8A     -1.366074     9A     -1.054888
      10A     -0.999649    11A     -0.880733    12A     -0.771751
      13A     -0.700441    14A     -0.684806    15A     -0.656320
      16A     -0.613824    17A     -0.584980    18A     -0.571923
      19A     -0.563673    20A     -0.531019    21A     -0.512142
      22A     -0.497845    23A     -0.451949    24A     -0.442715

  @DF-RHF Final Energy:  -305.98684497097389

   => Energetics <=

    Nuclear Repulsion Energy =            248.0277677065438979
    One-Electron Energy =                -908.8692833043705832
    Two-Electron Energy =                 354.8546706268529078
    DFT Exchange-Correlation Energy =       0.0000000000000000
    Empirical Dispersion Energy =           0.0000000000000000
    PCM Polarization Energy =               0.0000000000000000
    EFP Energy =                            0.0000000000000000
    Total Energy =                       -305.9868449709737206
    Molecular point group: c1
  Basis Set: CC-PVTZ
  Basis Set:

  -Total Gradient:
     Atom            X                  Y                   Z
    ------   -----------------  -----------------  -----------------
       1        0.001713390460     0.001996897597     0.007903284287
       2       -0.004193884140    -0.004882858312    -0.014018167057
       3       -0.000017529307    -0.000046085904    -0.000050568949
       4        0.005580634115     0.006757676754     0.010478879275
       5        0.000009825887    -0.000017282635     0.000023501538
       6        0.000012734583     0.000002626351     0.000002145241
       7       -0.000001223224     0.000012378805     0.000018326394
       8       -0.003137618125    -0.003808652490    -0.004389925543
       9        0.000044960112    -0.000035340950     0.000018467051
      10        0.000000645708    -0.000004544816     0.000010355111
      11       -0.000002480594    -0.000006151565    -0.000004083207
      12       -0.000007683278     0.000005548955     0.000002629478
      13       -0.000000707820     0.000020263449     0.000005392664
      14       -0.000001064374     0.000005524760    -0.000000236282

  **** Optimization is complete! (in 8 steps) ****
    Final optimized geometry and variables:
    Molecular point group: c1

    Geometry (in Angstrom), charge = 0, multiplicity = 1:

    O           -0.794149786858     1.280276569413    -0.126792514893
    C           -0.872995498294     0.140088986376     0.177651807122
    C           -2.116560882544    -0.519253212444     0.701945492597
    O            0.156948937884    -0.694781213083     0.167168042757
    H           -2.439445903702    -1.280748469071     0.002631382958
    H           -2.893723765694     0.216365038716     0.831130985624
    H           -1.900074478374    -1.009165253705     1.642019307369
    C            1.205560955473    -0.475315778428    -0.771182719257
    C            2.374120054116     0.255110840058    -0.143997104642
    H            0.815934928266     0.075825369325    -1.614006748050
    H            1.498474057642    -1.461522263988    -1.100411743869
    H            3.178421745725     0.347337910387    -0.865534265068
    H            2.079340570778     1.246032631204     0.172474446169
    H            2.747399867257    -0.289775192100     0.714582727394

  Mulliken Charges: (a.u.)
   Center  Symbol    Alpha    Beta     Spin     Total
       1     O     4.19399  4.19399  0.00000 -0.38799
       2     C     2.80491  2.80491  0.00000  0.39017
       3     C     3.13659  3.13659  0.00000 -0.27319
       4     O     4.16030  4.16030  0.00000 -0.32061
       5     H     0.44823  0.44823  0.00000  0.10354
       6     H     0.43863  0.43863  0.00000  0.12273
       7     H     0.44389  0.44389  0.00000  0.11222
       8     C     2.98307  2.98307  0.00000  0.03386
       9     C     3.14219  3.14219  0.00000 -0.28439
      10     H     0.45434  0.45434  0.00000  0.09133
      11     H     0.44530  0.44530  0.00000  0.10941
      12     H     0.45375  0.45375  0.00000  0.09251
      13     H     0.44202  0.44202  0.00000  0.11596
      14     H     0.45277  0.45277  0.00000  0.09446

   Total alpha = 24.00000, Total beta = 24.00000, Total charge =  0.00000
