  ==> Input File <==

--------------------------------------------------------------------------
set {
	reference rhf
	basis 6-31G*
}

set_num_threads( 4 )
memory 2 gb

molecule MOL {
0 1

O	 -2.275131	 -1.021105	 1.163138
C	 -1.833468	 0.019314	 0.796077
C	 -2.551799	 1.338998	 0.878418
O	 -0.632575	 0.154573	 0.251549
H	 -2.658314	 1.760570	 -0.114497
H	 -3.524048	 1.195285	 1.325535
H	 -1.970088	 2.036151	 1.470318
C	 0.160891	 -1.019931	 0.106212
C	 1.589627	 -0.672828	 0.480843
H	 0.089836	 -1.367806	 -0.916050
H	 -0.238459	 -1.792301	 0.749618
C	 2.246377	 0.346236	 -0.452210
H	 2.163194	 -1.597435	 0.473358
H	 1.604769	 -0.303424	 1.502885
C	 3.691736	 0.652107	 -0.061850
H	 2.219579	 -0.032311	 -1.472055
H	 1.666466	 1.263317	 -0.447249
H	 4.134505	 1.377213	 -0.737283
H	 4.305508	 -0.243868	 -0.089969
H	 3.748266	 1.059562	 0.943567

	symmetry c1
}
set optking {
	frozen_dihedral = ("
		2 4 8 10
	")
}

ee = optimize('scf')
oeprop('DIPOLE', 'QUADRUPOLE', 'MULLIKEN_CHARGES')
f=open( 'psi4out.xyz', 'w' )
f.write( "20  " )
f.write( str(ee) + "\n" )
f.write( MOL.save_string_xyz() )
f.close()
--------------------------------------------------------------------------

    Molecular point group: c1
  Charge       = 0
  Multiplicity = 1
  Basis Set: 6-31G*
  Basis Set:
  @DF-RHF Final Energy:  -383.94341578941066
    Total Energy =                       -383.9434157894104374
    Molecular point group: c1
  Basis Set: 6-31G*
  Basis Set:
  Basis Set: 6-31G*
  Basis Set:
  @DF-RHF Final Energy:  -383.94358155530682
    Total Energy =                       -383.9435815553071052
  Basis Set: 6-31G*
  Basis Set:
  Basis Set: 6-31G*
  Basis Set:
  @DF-RHF Final Energy:  -383.94375127550302
    Total Energy =                       -383.9437512755031321
  Basis Set: 6-31G*
  Basis Set:
  Basis Set: 6-31G*
  Basis Set:
  @DF-RHF Final Energy:  -383.94389551262168
    Total Energy =                       -383.9438955126219071
  Basis Set: 6-31G*
  Basis Set:
  Basis Set: 6-31G*
  Basis Set:
  @DF-RHF Final Energy:  -383.94396401759144
    Total Energy =                       -383.9439640175917248
  Basis Set: 6-31G*
  Basis Set:
  Basis Set: 6-31G*
  Basis Set:
  @DF-RHF Final Energy:  -383.94397673312113
    Total Energy =                       -383.9439767331208486
  Basis Set: 6-31G*
  Basis Set:
  Charge       = 0
  Multiplicity = 1
  Basis Set: 6-31G*
  Basis Set:

    Orbital Energies (a.u.)
    -----------------------

    Doubly Occupied:

       1A    -20.601173     2A    -20.543771     3A    -11.375878
       4A    -11.281340     5A    -11.233029     6A    -11.225387
       7A    -11.220254     8A    -11.213315     9A     -1.465961
      10A     -1.362806    11A     -1.085735    12A     -1.028234
      13A     -0.981021    14A     -0.881972    15A     -0.815515
      16A     -0.767467    17A     -0.694290    18A     -0.684203
      19A     -0.662489    20A     -0.630752    21A     -0.599127
      22A     -0.593269    23A     -0.570545    24A     -0.559488
      25A     -0.541981    26A     -0.526589    27A     -0.516557
      28A     -0.488076    29A     -0.474987    30A     -0.465587
      31A     -0.446992    32A     -0.438190

  @DF-RHF Final Energy:  -383.94397646724383

   => Energetics <=

    Nuclear Repulsion Energy =            384.9050215480051520
    One-Electron Energy =               -1285.7460266718849198
    Two-Electron Energy =                 516.8970286566360528
    DFT Exchange-Correlation Energy =       0.0000000000000000
    Empirical Dispersion Energy =           0.0000000000000000
    PCM Polarization Energy =               0.0000000000000000
    EFP Energy =                            0.0000000000000000
    Total Energy =                       -383.9439764672437150
    Molecular point group: c1
  Basis Set: 6-31G*
  Basis Set:

  -Total Gradient:
     Atom            X                  Y                   Z
    ------   -----------------  -----------------  -----------------
       1       -0.000042800404    -0.000011719868     0.000044150649
       2        0.000440737058     0.000153880238     0.000880561170
       3        0.000009499483    -0.000022048198    -0.000004911087
       4       -0.000309818569     0.000039875991    -0.001428354719
       5        0.000001695983    -0.000006995449     0.000004938937
       6       -0.000004069021    -0.000002428207     0.000001502068
       7        0.000006696003    -0.000005423586     0.000003998473
       8       -0.000978552756    -0.000712946599     0.000770545615
       9       -0.000051063791     0.000005998061    -0.000005285109
      10        0.000936256042     0.000635603918    -0.000239934048
      11        0.000012090794    -0.000050919824     0.000006768556
      12        0.000014134187    -0.000051021540    -0.000019752619
      13       -0.000021485687    -0.000016027365    -0.000019815106
      14        0.000010227549    -0.000012023056    -0.000008145088
      15       -0.000012934295     0.000040962258     0.000028556243
      16        0.000010332822    -0.000002010850     0.000002446837
      17       -0.000018673367     0.000008265103    -0.000023238504
      18       -0.000001409947     0.000011115500     0.000009169887
      19       -0.000013497493     0.000002723818    -0.000012378254
      20        0.000012635412    -0.000004860341     0.000009176099

  **** Optimization is complete! (in 7 steps) ****
    Final optimized geometry and variables:
    Molecular point group: c1

    Geometry (in Angstrom), charge = 0, multiplicity = 1:

    O           -2.373745716462    -0.983238420381     0.747862159502
    C           -1.885013564463     0.038456008352     0.388520125513
    C           -2.556352535554     1.383306982352     0.465543163915
    O           -0.671625266859     0.142328247995    -0.137288312636
    H           -2.635409125577     1.809111695620    -0.528087047436
    H           -3.538617102687     1.273647403060     0.900227863679
    H           -1.957008019990     2.058426561310     1.065292804875
    C            0.138295887431    -1.024625693381    -0.267725199971
    C            1.572507007282    -0.668399854847     0.083147967402
    H            0.066649838425    -1.357148346467    -1.296669274734
    H           -0.246210058708    -1.799173346690     0.375658701853
    C            2.199405725611     0.376691111967    -0.841225324354
    H            2.156191892757    -1.586280388901     0.045724344390
    H            1.604127396966    -0.319735518674     1.112359934823
    C            3.644288844433     0.701936625050    -0.464846405384
    H            2.165838770630     0.013529779871    -1.866491328949
    H            1.603181826150     1.282914634786    -0.815468476571
    H            4.065670632842     1.444733061792    -1.134749075535
    H            4.273213646830    -0.182593713139    -0.514174088758
    H            3.707095949118     1.095263969245     0.545842159523

  Mulliken Charges: (a.u.)
   Center  Symbol    Alpha    Beta     Spin     Total
       1     O     4.28289  4.28289  0.00000 -0.56578
       2     C     2.61928  2.61928  0.00000  0.76145
       3     C     3.28223  3.28223  0.00000 -0.56446
       4     O     4.30966  4.30966  0.00000 -0.61933
       5     H     0.40041  0.40041  0.00000  0.19918
       6     H     0.39703  0.39703  0.00000  0.20594
       7     H     0.40116  0.40116  0.00000  0.19768
       8     C     3.01031  3.01031  0.00000 -0.02062
       9     C     3.16263  3.16263  0.00000 -0.32526
      10     H     0.41585  0.41585  0.00000  0.16830
      11     H     0.39357  0.39357  0.00000  0.21285
      12     C     3.15500  3.15500  0.00000 -0.31001
      13     H     0.41905  0.41905  0.00000  0.16191
      14     H     0.41613  0.41613  0.00000  0.16774
      15     C     3.24029  3.24029  0.00000 -0.48059
      16     H     0.42319  0.42319  0.00000  0.15361
      17     H     0.41120  0.41120  0.00000  0.17759
      18     H     0.41765  0.41765  0.00000  0.16470
      19     H     0.42172  0.42172  0.00000  0.15655
      20     H     0.42074  0.42074  0.00000  0.15853

   Total alpha = 32.00000, Total beta = 32.00000, Total charge =  0.00000
