  ==> Input File <==

--------------------------------------------------------------------------
set {
	reference rhf
	basis cc-pvtz
}

set_num_threads( 4 )
memory 2 gb

molecule MOL {
0 1

O	 0.015198	 0.669742	 0.965633
C	 0.485107	 0.171416	 -0.000134
C	 1.606966	 -0.836201	 0.000174
O	 0.078655	 0.439206	 -1.228821
C	 2.988788	 -0.202529	 -0.000115
H	 1.465110	 -1.474645	 -0.864821
H	 1.465209	 -1.474077	 0.865596
H	 3.131767	 0.419673	 -0.873407
H	 3.750876	 -0.972315	 0.000098
H	 3.131883	 0.420264	 0.872742
C	 -0.978038	 1.375292	 -1.388289
C	 -1.255794	 1.510507	 -2.867159
H	 -0.682409	 2.319049	 -0.952088
H	 -1.847181	 1.021420	 -0.851924
H	 -0.378408	 1.864424	 -3.393759
H	 -2.059612	 2.219919	 -3.024779
H	 -1.549876	 0.559442	 -3.293027

	symmetry c1
}
set optking {
	frozen_dihedral = ("
		4 2 3 6
	")
}

ee = optimize('scf')
oeprop('DIPOLE', 'QUADRUPOLE', 'MULLIKEN_CHARGES')
f=open( 'psi4out.xyz', 'w' )
f.write( "17  " )
f.write( str(ee) + "\n" )
f.write( MOL.save_string_xyz() )
f.close()
--------------------------------------------------------------------------

    Molecular point group: c1
  Charge       = 0
  Multiplicity = 1
  Basis Set: CC-PVTZ
  Basis Set:
  @DF-RHF Final Energy:  -345.03825105181420
    Total Energy =                       -345.0382510518143135
    Molecular point group: c1
  Basis Set: CC-PVTZ
  Basis Set:
  Basis Set: CC-PVTZ
  Basis Set:
  @DF-RHF Final Energy:  -345.03863065951515
    Total Energy =                       -345.0386306595152064
  Basis Set: CC-PVTZ
  Basis Set:
  Basis Set: CC-PVTZ
  Basis Set:
  @DF-RHF Final Energy:  -345.03783030003575
    Total Energy =                       -345.0378303000353526
  Basis Set: CC-PVTZ
  Basis Set:
  Basis Set: CC-PVTZ
  Basis Set:
  @DF-RHF Final Energy:  -345.03900392975254
    Total Energy =                       -345.0390039297521980
  Basis Set: CC-PVTZ
  Basis Set:
  Basis Set: CC-PVTZ
  Basis Set:
  @DF-RHF Final Energy:  -345.03900959725001
    Total Energy =                       -345.0390095972497875
  Basis Set: CC-PVTZ
  Basis Set:
  Charge       = 0
  Multiplicity = 1
  Basis Set: CC-PVTZ
  Basis Set:

    Orbital Energies (a.u.)
    -----------------------

    Doubly Occupied:

       1A    -20.594999     2A    -20.530571     3A    -11.362559
       4A    -11.282593     5A    -11.234365     6A    -11.224539
       7A    -11.220605     8A     -1.470289     9A     -1.363533
      10A     -1.073080    11A     -1.032487    12A     -0.909328
      13A     -0.854292    14A     -0.779245    15A     -0.696615
      16A     -0.685802    17A     -0.670399    18A     -0.616600
      19A     -0.602015    20A     -0.575735    21A     -0.554530
      22A     -0.539618    23A     -0.527272    24A     -0.509211
      25A     -0.503754    26A     -0.497643    27A     -0.454968
      28A     -0.434832

  @DF-RHF Final Energy:  -345.03900980659722

   => Energetics <=

    Nuclear Repulsion Energy =            316.7889142535273663
    One-Electron Energy =               -1098.0528920755089075
    Two-Electron Energy =                 436.2249680153846043
    DFT Exchange-Correlation Energy =       0.0000000000000000
    Empirical Dispersion Energy =           0.0000000000000000
    PCM Polarization Energy =               0.0000000000000000
    EFP Energy =                            0.0000000000000000
    Total Energy =                       -345.0390098065969937
    Molecular point group: c1
  Basis Set: CC-PVTZ
  Basis Set:

  -Total Gradient:
     Atom            X                  Y                   Z
    ------   -----------------  -----------------  -----------------
       1        0.000019970551    -0.000021641480    -0.000039441466
       2        0.000322199105     0.000359935946     0.000020168282
       3       -0.000306713173    -0.000355970829     0.000254748032
       4       -0.000222064758    -0.000181023063    -0.000036654473
       5       -0.000022523662    -0.000008108049    -0.000006839752
       6        0.000208360988     0.000235224740    -0.000182927182
       7        0.000003468788    -0.000004173711    -0.000001109146
       8        0.000004384100     0.000007077733    -0.000005168192
       9        0.000001978458    -0.000005393075     0.000002218505
      10       -0.000001893915    -0.000003004795    -0.000000881672
      11       -0.000020046332    -0.000052052213     0.000003279355
      12        0.000008342778     0.000015612090    -0.000002661509
      13        0.000006551896    -0.000000117192    -0.000003830450
      14       -0.000006773223     0.000013011808     0.000001379840
      15        0.000001355297     0.000001127326    -0.000009304043
      16        0.000002476271    -0.000000382593     0.000000869926
      17        0.000000926835    -0.000000122642     0.000006153948

  **** Optimization is complete! (in 6 steps) ****
    Final optimized geometry and variables:
    Molecular point group: c1

    Geometry (in Angstrom), charge = 0, multiplicity = 1:

    O           -0.393975953156     0.182269479324     1.619939028870
    C            0.062776567896    -0.320893732595     0.649484440823
    C            1.187699717229    -1.323893056543     0.663962011505
    O           -0.341763003990    -0.038179153661    -0.576066260703
    C            2.545626243831    -0.616616863111     0.638620781985
    H            1.094620600869    -1.979682616956    -0.190507823290
    H            1.089582539918    -1.906404383781     1.568969810050
    H            2.661542645789    -0.027742872103    -0.263177182519
    H            3.345816766537    -1.345032718849     0.668438205219
    H            2.652776884086     0.039845959583     1.492637724929
    C           -1.366854600880     0.934219553593    -0.726860426664
    C           -1.649474555618     1.082558557934    -2.203551187876
    H           -1.036045477571     1.865943052929    -0.290048078913
    H           -2.243566970201     0.608594761211    -0.185238013929
    H           -0.764177205779     1.407715661114    -2.735508365954
    H           -2.429571115159     1.819435377081    -2.354038758487
    H           -1.978895463932     0.143224152765    -2.629566938713

  Mulliken Charges: (a.u.)
   Center  Symbol    Alpha    Beta     Spin     Total
       1     O     4.20377  4.20377  0.00000 -0.40754
       2     C     2.80368  2.80368  0.00000  0.39265
       3     C     3.08339  3.08339  0.00000 -0.16678
       4     O     4.15380  4.15380  0.00000 -0.30760
       5     C     3.15058  3.15058  0.00000 -0.30116
       6     H     0.44462  0.44462  0.00000  0.11075
       7     H     0.44019  0.44019  0.00000  0.11962
       8     H     0.45037  0.45037  0.00000  0.09927
       9     H     0.44788  0.44788  0.00000  0.10423
      10     H     0.44484  0.44484  0.00000  0.11032
      11     C     2.97918  2.97918  0.00000  0.04163
      12     C     3.13321  3.13321  0.00000 -0.26642
      13     H     0.45427  0.45427  0.00000  0.09145
      14     H     0.45297  0.45297  0.00000  0.09406
      15     H     0.45165  0.45165  0.00000  0.09670
      16     H     0.45429  0.45429  0.00000  0.09141
      17     H     0.45129  0.45129  0.00000  0.09741

   Total alpha = 28.00000, Total beta = 28.00000, Total charge = -0.00000
