  ==> Input File <==

--------------------------------------------------------------------------
set {
	reference rhf
	basis 6-31G*
}

set_num_threads( 4 )
memory 2 gb

molecule MOL {
0 1

O	 1.619439	 1.023653	 0.764598
C	 1.705091	 0.115954	 0.001797
C	 0.705619	 -0.221665	 -1.077525
O	 2.721346	 -0.737485	 -0.000216
C	 -0.484770	 0.731601	 -1.121133
H	 1.239577	 -0.228370	 -2.023864
H	 0.383678	 -1.246339	 -0.912855
C	 -1.480220	 0.367020	 -2.223504
H	 -0.125854	 1.745319	 -1.268591
H	 -0.983319	 0.725515	 -0.156912
C	 -2.680364	 1.313633	 -2.282128
H	 -0.973416	 0.371354	 -3.187417
H	 -1.834636	 -0.651380	 -2.071413
C	 -3.675239	 0.948128	 -3.382981
H	 -2.328148	 2.331093	 -2.436594
H	 -3.188184	 1.309736	 -1.320233
H	 -3.205244	 0.976990	 -4.362004
H	 -4.514226	 1.636822	 -3.398897
H	 -4.071791	 -0.052745	 -3.236999
C	 4.024888	 -0.184556	 -0.001949
H	 4.179030	 0.422472	 -0.882452
H	 4.701782	 -1.024608	 -0.003642
H	 4.181981	 0.421185	 0.878906

	symmetry c1
}
set optking {
	frozen_dihedral = ("
		1 2 4 20
	")
}

ee = optimize('scf')
oeprop('DIPOLE', 'QUADRUPOLE', 'MULLIKEN_CHARGES')
f=open( 'psi4out.xyz', 'w' )
f.write( "23  " )
f.write( str(ee) + "\n" )
f.write( MOL.save_string_xyz() )
f.close()
--------------------------------------------------------------------------

    Molecular point group: c1
  Charge       = 0
  Multiplicity = 1
  Basis Set: 6-31G*
  Basis Set:
  @DF-RHF Final Energy:  -422.96435682452136
    Total Energy =                       -422.9643568245213601
    Molecular point group: c1
  Basis Set: 6-31G*
  Basis Set:
  Basis Set: 6-31G*
  Basis Set:
  @DF-RHF Final Energy:  -422.96207118703990
    Total Energy =                       -422.9620711870394416
  Basis Set: 6-31G*
  Basis Set:
  Basis Set: 6-31G*
  Basis Set:
  @DF-RHF Final Energy:  -422.96519011763758
    Total Energy =                       -422.9651901176380306
  Basis Set: 6-31G*
  Basis Set:
  Basis Set: 6-31G*
  Basis Set:
  @DF-RHF Final Energy:  -422.96526048153038
    Total Energy =                       -422.9652604815305494
  Basis Set: 6-31G*
  Basis Set:
  Basis Set: 6-31G*
  Basis Set:
  @DF-RHF Final Energy:  -422.96526776301238
    Total Energy =                       -422.9652677630118660
  Basis Set: 6-31G*
  Basis Set:
  Charge       = 0
  Multiplicity = 1
  Basis Set: 6-31G*
  Basis Set:

    Orbital Energies (a.u.)
    -----------------------

    Doubly Occupied:

       1A    -20.592641     2A    -20.551642     3A    -11.374011
       4A    -11.285574     5A    -11.236593     6A    -11.219956
       7A    -11.218567     8A    -11.216985     9A    -11.210079
      10A     -1.462191    11A     -1.364770    12A     -1.093533
      13A     -1.042623    14A     -0.984344    15A     -0.935495
      16A     -0.846234    17A     -0.795699    18A     -0.765251
      19A     -0.696126    20A     -0.678911    21A     -0.672350
      22A     -0.650059    23A     -0.611408    24A     -0.604270
      25A     -0.575832    26A     -0.566789    27A     -0.553335
      28A     -0.530355    29A     -0.510471    30A     -0.508006
      31A     -0.485456    32A     -0.471044    33A     -0.467524
      34A     -0.465602    35A     -0.451651    36A     -0.432021

  @DF-RHF Final Energy:  -422.96526861607816

   => Energetics <=

    Nuclear Repulsion Energy =            451.6218681570873628
    One-Electron Energy =               -1470.9194803128391413
    Two-Electron Energy =                 596.3323435396739569
    DFT Exchange-Correlation Energy =       0.0000000000000000
    Empirical Dispersion Energy =           0.0000000000000000
    PCM Polarization Energy =               0.0000000000000000
    EFP Energy =                            0.0000000000000000
    Total Energy =                       -422.9652686160777648
    Molecular point group: c1
  Basis Set: 6-31G*
  Basis Set:

  -Total Gradient:
     Atom            X                  Y                   Z
    ------   -----------------  -----------------  -----------------
       1       -0.005520289877    -0.005406094347     0.005850544805
       2        0.008344398382     0.008035744271    -0.012335796932
       3        0.000052459953     0.000038843980     0.000001104606
       4       -0.003364942594    -0.002600587339     0.014059142875
       5       -0.000008831853    -0.000015875725    -0.000009026051
       6       -0.000000728139    -0.000019718431     0.000012014238
       7       -0.000014175185    -0.000001010761     0.000020203577
       8       -0.000014543129     0.000002526127    -0.000002467071
       9       -0.000003025074     0.000007963413     0.000001871106
      10        0.000002789174    -0.000007460526    -0.000001718166
      11       -0.000007115746    -0.000003816938     0.000006755112
      12        0.000000394741    -0.000010486528     0.000000540187
      13       -0.000004850070     0.000001651619     0.000012663712
      14        0.000015652303     0.000008424742    -0.000012253382
      15       -0.000000652823     0.000003048470     0.000008069588
      16       -0.000003374162    -0.000008515474    -0.000000427997
      17       -0.000001265438    -0.000004755734    -0.000005098817
      18        0.000006414474     0.000004252665    -0.000000537571
      19       -0.000000634482     0.000002536441     0.000005169595
      20        0.000505514448    -0.000007618352    -0.007602103512
      21        0.000013088200    -0.000007100496    -0.000004818848
      22       -0.000003211869    -0.000000785958     0.000001142937
      23        0.000006928762    -0.000011165121    -0.000004973993

  **** Optimization is complete! (in 6 steps) ****
    Final optimized geometry and variables:
    Molecular point group: c1

    Geometry (in Angstrom), charge = 0, multiplicity = 1:

    O            1.349135563382     0.714216219470     1.717882192960
    C            1.430493946016    -0.196816353483     0.964274551251
    C            0.417579915644    -0.542367178770    -0.097833411581
    O            2.406566990433    -1.115577690402     1.034988797070
    C           -0.800868367952     0.374955791570    -0.108337302445
    H            0.935380932206    -0.521213138587    -1.054420458420
    H            0.133179305241    -1.579713071045     0.056077402314
    C           -1.803580562880    -0.001768016560    -1.200004012630
    H           -0.475045894780     1.401437364593    -0.244610363848
    H           -1.282791032233     0.338085213801     0.863828158313
    C           -3.031648159847     0.909829669848    -1.224142913373
    H           -1.313258895771     0.032504485404    -2.171877961707
    H           -2.125366228329    -1.032415815457    -1.058417659872
    C           -4.031260840295     0.535166873655    -2.317604192158
    H           -2.711696809443     1.939903096301    -1.364529589804
    H           -3.525068084681     0.873350800729    -0.255518567201
    H           -3.576376505848     0.594786584383    -3.302416779804
    H           -4.889732245587     1.199490712747    -2.309543995476
    H           -4.396892186215    -0.479113511925    -2.184188991681
    C            3.736951082339    -0.640898689937     1.121377719964
    H            4.007649133236    -0.120691750022     0.209932433596
    H            4.363486126779    -1.511445611601     1.237843056436
    H            3.858446915906     0.018525838325     1.968336305148

  Mulliken Charges: (a.u.)
   Center  Symbol    Alpha    Beta     Spin     Total
       1     O     4.26979  4.26979  0.00000 -0.53957
       2     C     2.60539  2.60539  0.00000  0.78923
       3     C     3.21141  3.21141  0.00000 -0.42282
       4     O     4.31389  4.31389  0.00000 -0.62779
       5     C     3.15295  3.15295  0.00000 -0.30590
       6     H     0.40488  0.40488  0.00000  0.19023
       7     H     0.39822  0.39822  0.00000  0.20355
       8     C     3.15320  3.15320  0.00000 -0.30641
       9     H     0.41195  0.41195  0.00000  0.17610
      10     H     0.41140  0.41140  0.00000  0.17720
      11     C     3.15158  3.15158  0.00000 -0.30316
      12     H     0.42448  0.42448  0.00000  0.15104
      13     H     0.42355  0.42355  0.00000  0.15291
      14     C     3.23960  3.23960  0.00000 -0.47920
      15     H     0.42146  0.42146  0.00000  0.15708
      16     H     0.42106  0.42106  0.00000  0.15788
      17     H     0.42197  0.42197  0.00000  0.15607
      18     H     0.41837  0.41837  0.00000  0.16325
      19     H     0.42165  0.42165  0.00000  0.15670
      20     C     3.09521  3.09521  0.00000 -0.19042
      21     H     0.41931  0.41931  0.00000  0.16138
      22     H     0.40591  0.40591  0.00000  0.18817
      23     H     0.40275  0.40275  0.00000  0.19449

   Total alpha = 36.00000, Total beta = 36.00000, Total charge = -0.00000
