                              Psi4 1.0.54 Driver

  ==> Input File <==

--------------------------------------------------------------------------
set {
	reference rhf
	basis cc-pvtz
}

set_num_threads( 4 )
memory 2 gb

molecule MOL {
0 1

H	 2.710681	 -0.113361	 0.668574
N	 1.735811	 0.092606	 0.679296
C	 0.987572	 -1.002143	 1.263680
C	 1.264426	 0.408083	 -0.654163
H	 1.353369	 -1.185615	 2.266617
H	 1.093104	 -1.926987	 0.693465
C	 -0.483625	 -0.632843	 1.320894
H	 1.830838	 1.246494	 -1.040939
H	 1.387450	 -0.427662	 -1.345548
C	 -0.207133	 0.775536	 -0.594436
H	 -0.614169	 0.200258	 2.017666
H	 -1.052487	 -1.472282	 1.702806
N	 -0.976577	 -0.298712	 -0.000000
H	 -0.576074	 0.954442	 -1.597429
H	 -0.318629	 1.705662	 -0.029614
C	 -2.391156	 -0.021003	 -0.000000
H	 -2.853954	 -0.458728	 -0.875714
H	 -2.853954	 -0.458728	 0.875714
H	 -2.614037	 1.049773	 -0.000000

	symmetry c1
}
set optking {
	frozen_dihedral = ("
		7 13 16 19
	")
}

ee,wfn = optimize('scf', return_wfn=True)
oeprop( wfn, 'DIPOLE', 'QUADRUPOLE', 'MULLIKEN_CHARGES')
f=open( 'psi4out.xyz', 'w' )
f.write( "19  " )
f.write( str(ee) + "\n" )
f.write( MOL.save_string_xyz() )
f.close()
--------------------------------------------------------------------------

    Molecular point group: c1
  Charge       = 0
  Multiplicity = 1
  Basis Set: CC-PVTZ
  Basis Set:
  @DF-RHF Final Energy:  -305.30460891329238
    Total Energy =                       -305.3046089132925545
    Molecular point group: c1
  Basis Set: CC-PVTZ
  Basis Set:
  Basis Set: CC-PVTZ
  Basis Set:
  @DF-RHF Final Energy:  -305.30511718449651
    Total Energy =                       -305.3051171844966802
  Basis Set: CC-PVTZ
  Basis Set:
  Basis Set: CC-PVTZ
  Basis Set:
  @DF-RHF Final Energy:  -305.30521810794437
    Total Energy =                       -305.3052181079439720
  Basis Set: CC-PVTZ
  Basis Set:
  Charge       = 0
  Multiplicity = 1
  Basis Set: CC-PVTZ
  Basis Set:

    Orbital Energies (a.u.)
    -----------------------

    Doubly Occupied:

       1A    -15.533012     2A    -15.530938     3A    -11.236852
       4A    -11.236744     5A    -11.235866     6A    -11.235801
       7A    -11.233121     8A     -1.247135     9A     -1.185899
      10A     -1.024116    11A     -0.965441    12A     -0.862007
      13A     -0.858633    14A     -0.756062    15A     -0.692126
      16A     -0.633606    17A     -0.626237    18A     -0.607300
      19A     -0.604709    20A     -0.582211    21A     -0.544931
      22A     -0.531325    23A     -0.513591    24A     -0.489172
      25A     -0.469081    26A     -0.457996    27A     -0.365782
      28A     -0.340203

  @DF-RHF Final Energy:  -305.30522430851806

   => Energetics <=

    Nuclear Repulsion Energy =            339.8629528741264494
    One-Electron Energy =               -1087.1365555721754390
    Two-Electron Energy =                 441.9683783895307556
    DFT Exchange-Correlation Energy =       0.0000000000000000
    Empirical Dispersion Energy =           0.0000000000000000
    PCM Polarization Energy =               0.0000000000000000
    EFP Energy =                            0.0000000000000000
    Total Energy =                       -305.3052243085182340
    Molecular point group: c1
  Basis Set: CC-PVTZ
  Basis Set:

  -Total Gradient:
     Atom            X                  Y                   Z
    ------   -----------------  -----------------  -----------------
       1       -0.000032277498    -0.000016125820    -0.000018938809
       2       -0.000069147437     0.000017360168     0.000002398079
       3        0.000028880049     0.000025687377     0.000005377444
       4        0.000019133604    -0.000015720914    -0.000033108843
       5        0.000073330189    -0.000017672261     0.000035675098
       6       -0.000035552978     0.000033164053     0.000013040267
       7       -0.000527326624    -0.003370787292    -0.000605062594
       8        0.000064459512     0.000011885018    -0.000004912628
       9       -0.000006157253     0.000013998813     0.000012765823
      10        0.000078123943     0.000103791741     0.000052316485
      11        0.000011989950    -0.000042783652    -0.000066303482
      12       -0.000001664865     0.000022202519    -0.000055998259
      13        0.000825555127     0.004668233236    -0.000398443556
      14       -0.000001870045    -0.000047975541     0.000039101082
      15       -0.000018281983    -0.000040765572    -0.000014834779
      16       -0.000698583594    -0.001340607432     0.005659675314
      17        0.000055947915    -0.000013583671    -0.000013065083
      18        0.000055831025    -0.000037501576     0.000001495870
      19        0.000177610962     0.000047200806    -0.004611177429

  **** Optimization is complete! (in 4 steps) ****
    Final optimized geometry and variables:
    Molecular point group: c1

    Geometry (in Angstrom), charge = 0, multiplicity = 1:

    H            2.734447521740    -0.056040463189     0.341109805426
    N            1.762664173711     0.163274282619     0.364137814816
    C            1.008938069658    -0.918121598854     0.965929949525
    C            1.277354714679     0.475741299430    -0.964863093723
    H            1.396071025069    -1.110097240053     1.959411004887
    H            1.084236747001    -1.843443188874     0.391357512803
    C           -0.454728905774    -0.524801144427     1.058974848314
    H            1.854719867288     1.298545751477    -1.369011094184
    H            1.372797647673    -0.369491147614    -1.649220058149
    C           -0.185436557193     0.873233154586    -0.884409033955
    H           -0.554085003808     0.295909134412     1.775935817489
    H           -1.027084990893    -1.362909645164     1.436667507523
    N           -0.962384239143    -0.165869420015    -0.247841382917
    H           -0.571592976763     1.033412032486    -1.884709804107
    H           -0.268101276394     1.820857306104    -0.343903147964
    C           -2.386721346169     0.084565367314    -0.288322440956
    H           -2.813622672998    -0.313317901300    -1.203787192717
    H           -2.884827177447    -0.394182736304     0.543447348820
    H           -2.624202256631     1.148536690211    -0.271383264325

  Mulliken Charges: (a.u.)
   Center  Symbol    Alpha    Beta     Spin     Total
       1     H     0.43995  0.43995  0.00000  0.12011
       2     N     3.64272  3.64272  0.00000 -0.28544
       3     C     3.04176  3.04176  0.00000 -0.08353
       4     C     3.04151  3.04151  0.00000 -0.08302
       5     H     0.45266  0.45266  0.00000  0.09467
       6     H     0.46617  0.46617  0.00000  0.06765
       7     C     3.03237  3.03237  0.00000 -0.06474
       8     H     0.45264  0.45264  0.00000  0.09471
       9     H     0.46602  0.46602  0.00000  0.06795
      10     C     3.03383  3.03383  0.00000 -0.06765
      11     H     0.47002  0.47002  0.00000  0.05995
      12     H     0.45440  0.45440  0.00000  0.09120
      13     N     3.61559  3.61559  0.00000 -0.23118
      14     H     0.45430  0.45430  0.00000  0.09140
      15     H     0.46871  0.46871  0.00000  0.06257
      16     C     3.09432  3.09432  0.00000 -0.18863
      17     H     0.45111  0.45111  0.00000  0.09779
      18     H     0.45545  0.45545  0.00000  0.08909
      19     H     0.46645  0.46645  0.00000  0.06710

   Total alpha = 28.00000, Total beta = 28.00000, Total charge = -0.00000

*** Psi4 exiting successfully. Buy a developer a beer!
