  ==> Input File <==

--------------------------------------------------------------------------
set {
	reference rhf
	basis 6-31G*
}

set_num_threads( 4 )
memory 2 gb

molecule MOL {
0 1

H	 2.824758	 -2.203297	 2.542281
C	 2.709427	 -1.792172	 1.544571
C	 1.418765	 -0.982351	 1.429054
H	 3.579710	 -1.174948	 1.339948
H	 2.720329	 -2.621433	 0.842820
C	 1.217350	 -0.386724	 0.039429
H	 1.416503	 -0.175118	 2.154836
H	 0.570649	 -1.620242	 1.672332
N	 0.000003	 0.397874	 -0.023260
H	 2.050964	 0.270529	 -0.193100
H	 1.236489	 -1.186709	 -0.708257
C	 -1.217365	 -0.386708	 0.039277
H	 -0.000031	 1.072115	 0.718656
C	 -2.452633	 0.504241	 -0.042481
H	 -1.215291	 -1.074557	 -0.802042
H	 -1.269739	 -1.003477	 0.942735
C	 -3.758029	 -0.289423	 -0.010781
H	 -2.394220	 1.093569	 -0.952170
H	 -2.440793	 1.210787	 0.785871
H	 -3.816659	 -0.981993	 -0.845726
H	 -4.617837	 0.370165	 -0.069296
H	 -3.847478	 -0.867502	 0.904682

	symmetry c1
}
set optking {
	frozen_dihedral = ("
		10 6 9 12
	")
}

ee = optimize('scf')
oeprop('DIPOLE', 'QUADRUPOLE', 'MULLIKEN_CHARGES')
f=open( 'psi4out.xyz', 'w' )
f.write( "22  " )
f.write( str(ee) + "\n" )
f.write( MOL.save_string_xyz() )
f.close()
--------------------------------------------------------------------------

    Molecular point group: c1
  Charge       = 0
  Multiplicity = 1
  Basis Set: 6-31G*
  Basis Set:
  @DF-RHF Final Energy:  -290.37794422062865
    Total Energy =                       -290.3779442206288195
    Molecular point group: c1
  Basis Set: 6-31G*
  Basis Set:
  Basis Set: 6-31G*
  Basis Set:
  @DF-RHF Final Energy:  -290.38018817184047
    Total Energy =                       -290.3801881718407003
  Basis Set: 6-31G*
  Basis Set:
  Basis Set: 6-31G*
  Basis Set:
  @DF-RHF Final Energy:  -290.38093274871909
    Total Energy =                       -290.3809327487190330
  Basis Set: 6-31G*
  Basis Set:
  Basis Set: 6-31G*
  Basis Set:
  @DF-RHF Final Energy:  -290.38096805245664
    Total Energy =                       -290.3809680524562395
  Basis Set: 6-31G*
  Basis Set:
  Basis Set: 6-31G*
  Basis Set:
  @DF-RHF Final Energy:  -290.38097143737446
    Total Energy =                       -290.3809714373744555
  Basis Set: 6-31G*
  Basis Set:
  Charge       = 0
  Multiplicity = 1
  Basis Set: 6-31G*
  Basis Set:

    Orbital Energies (a.u.)
    -----------------------

    Doubly Occupied:

       1A    -15.532504     2A    -11.238290     3A    -11.237722
       4A    -11.213680     5A    -11.211978     6A    -11.210955
       7A    -11.208890     8A     -1.202674     9A     -1.057027
      10A     -1.026524    11A     -0.929113    12A     -0.871490
      13A     -0.807861    14A     -0.798525    15A     -0.664673
      16A     -0.634107    17A     -0.614749    18A     -0.600160
      19A     -0.579658    20A     -0.555654    21A     -0.542990
      22A     -0.520753    23A     -0.506439    24A     -0.494300
      25A     -0.484570    26A     -0.471233    27A     -0.468158
      28A     -0.460251    29A     -0.350759

  @DF-RHF Final Energy:  -290.38097176959644

   => Energetics <=

    Nuclear Repulsion Energy =            316.5341848648886867
    One-Electron Energy =               -1018.8389389612864306
    Two-Electron Energy =                 411.9237823268011880
    DFT Exchange-Correlation Energy =       0.0000000000000000
    Empirical Dispersion Energy =           0.0000000000000000
    PCM Polarization Energy =               0.0000000000000000
    EFP Energy =                            0.0000000000000000
    Total Energy =                       -290.3809717695966128
    Molecular point group: c1
  Basis Set: 6-31G*
  Basis Set:

  -Total Gradient:
     Atom            X                  Y                   Z
    ------   -----------------  -----------------  -----------------
       1       -0.000011167469     0.000007628536    -0.000012027547
       2        0.000008006679     0.000012203803    -0.000004029349
       3       -0.000032039166    -0.000012670717     0.000015093832
       4        0.000013886830     0.000007508238     0.000005608605
       5       -0.000008904659    -0.000002818162    -0.000003170482
       6       -0.000003061365     0.000080194043     0.000221673109
       7        0.000007400791    -0.000009377926    -0.000012268762
       8       -0.000015829432    -0.000005717568     0.000016801572
       9        0.000017424730     0.000004077278     0.000260913008
      10       -0.000032724747    -0.000035529755    -0.000256599833
      11        0.000010075602    -0.000008690827    -0.000010159796
      12        0.000006822528    -0.000034854286    -0.000223930545
      13        0.000016550933    -0.000005244984    -0.000006006831
      14        0.000006078748     0.000011321815    -0.000014567652
      15       -0.000005299329    -0.000006148651    -0.000003742674
      16        0.000000805754    -0.000002544797     0.000009699816
      17        0.000016431836    -0.000009299165     0.000027333695
      18        0.000004021202    -0.000005148810    -0.000009495195
      19       -0.000013331997     0.000008700225    -0.000002401626
      20        0.000001570310     0.000006840827    -0.000005317428
      21        0.000014440214     0.000008418508     0.000007173555
      22       -0.000001157992    -0.000008847624    -0.000000579471

  **** Optimization is complete! (in 6 steps) ****
    Final optimized geometry and variables:
    Molecular point group: c1

    Geometry (in Angstrom), charge = 0, multiplicity = 1:

    H            3.344982058136    -1.834654702094     1.970156784160
    C            3.142177998378    -1.358097576962     1.016442200216
    C            1.793112542861    -0.639243168153     1.030934887243
    H            3.954674870103    -0.665938128607     0.813508474154
    H            3.167560168744    -2.128773592295     0.250973124446
    C            1.486417050580     0.047787905532    -0.305033584056
    H            1.787501336003     0.107318088696     1.823631343898
    H            1.008765781815    -1.351079517899     1.272641937308
    N            0.254831673175     0.810964723093    -0.376326028579
    H            2.303043797584     0.721984988195    -0.549853509158
    H            1.460783446809    -0.696986028241    -1.096305139688
    C           -0.979740434180     0.053376194532    -0.304233309138
    H            0.257016205594     1.534854479694     0.316385664509
    C           -2.182332581429     0.951041903469    -0.579894729994
    H           -0.934165719693    -0.726051864200    -1.060350706589
    H           -1.122878894314    -0.452377510998     0.654026594857
    C           -3.508719295150     0.193525851621    -0.537917637958
    H           -2.047653859716     1.420734411316    -1.549032954248
    H           -2.203677541454     1.755505056225     0.153449355907
    H           -3.532789367514    -0.597839223007    -1.281940585791
    H           -4.344141674854     0.857198537329    -0.736521949252
    H           -3.673932057664    -0.262444622127     0.434305875978

  Mulliken Charges: (a.u.)
   Center  Symbol    Alpha    Beta     Spin     Total
       1     H     0.41785  0.41785  0.00000  0.16431
       2     C     3.24330  3.24330  0.00000 -0.48661
       3     C     3.16022  3.16022  0.00000 -0.32044
       4     H     0.42111  0.42111  0.00000  0.15777
       5     H     0.42088  0.42088  0.00000  0.15823
       6     C     3.05276  3.05276  0.00000 -0.10551
       7     H     0.42675  0.42675  0.00000  0.14649
       8     H     0.42026  0.42026  0.00000  0.15947
       9     N     3.85612  3.85612  0.00000 -0.71223
      10     H     0.41895  0.41895  0.00000  0.16209
      11     H     0.42139  0.42139  0.00000  0.15722
      12     C     3.05082  3.05082  0.00000 -0.10163
      13     H     0.33520  0.33520  0.00000  0.32961
      14     C     3.15252  3.15252  0.00000 -0.30504
      15     H     0.42261  0.42261  0.00000  0.15479
      16     H     0.43444  0.43444  0.00000  0.13111
      17     C     3.24356  3.24356  0.00000 -0.48712
      18     H     0.41337  0.41337  0.00000  0.17325
      19     H     0.42682  0.42682  0.00000  0.14637
      20     H     0.42114  0.42114  0.00000  0.15772
      21     H     0.41786  0.41786  0.00000  0.16429
      22     H     0.42207  0.42207  0.00000  0.15587

   Total alpha = 29.00000, Total beta = 29.00000, Total charge =  0.00000
