  ==> Input File <==

--------------------------------------------------------------------------
set {
	reference rhf
	basis 6-31G*
}

set_num_threads( 4 )
memory 2 gb

molecule MOL {
0 1

H	 3.516416	 0.916638	 0.622112
O	 2.602645	 0.778034	 0.851390
C	 2.077727	 -0.067559	 -0.035091
C	 0.624473	 -0.343591	 0.253101
O	 2.715669	 -0.523108	 -0.927571
C	 -0.265902	 0.883932	 0.072916
H	 0.324016	 -1.163849	 -0.390541
H	 0.565024	 -0.726111	 1.268924
C	 -1.728698	 0.646073	 0.462102
H	 -0.209144	 1.219470	 -0.958188
H	 0.135059	 1.692851	 0.673903
C	 -2.482460	 -0.343073	 -0.431425
H	 -2.245265	 1.602650	 0.432430
H	 -1.779332	 0.308348	 1.496285
C	 -3.960546	 -0.461025	 -0.060175
H	 -2.395034	 -0.026811	 -1.468912
H	 -2.024850	 -1.327147	 -0.371646
H	 -4.472726	 -1.168004	 -0.705284
H	 -4.465146	 0.496508	 -0.151489
H	 -4.081218	 -0.800940	 0.964585

	symmetry c1
}
set optking {
	frozen_dihedral = ("
		5 3 4 7
	")
}

ee = optimize('scf')
oeprop('DIPOLE', 'QUADRUPOLE', 'MULLIKEN_CHARGES')
f=open( 'psi4out.xyz', 'w' )
f.write( "20  " )
f.write( str(ee) + "\n" )
f.write( MOL.save_string_xyz() )
f.close()
--------------------------------------------------------------------------

    Molecular point group: c1
  Charge       = 0
  Multiplicity = 1
  Basis Set: 6-31G*
  Basis Set:
  @DF-RHF Final Energy:  -383.94701508042141
    Total Energy =                       -383.9470150804212381
    Molecular point group: c1
  Basis Set: 6-31G*
  Basis Set:
  Basis Set: 6-31G*
  Basis Set:
  @DF-RHF Final Energy:  -383.94733261721922
    Total Energy =                       -383.9473326172193310
  Basis Set: 6-31G*
  Basis Set:
  Basis Set: 6-31G*
  Basis Set:
  @DF-RHF Final Energy:  -383.94672483343004
    Total Energy =                       -383.9467248334299256
  Basis Set: 6-31G*
  Basis Set:
  Basis Set: 6-31G*
  Basis Set:
  @DF-RHF Final Energy:  -383.94736700870033
    Total Energy =                       -383.9473670087002688
  Basis Set: 6-31G*
  Basis Set:
  Basis Set: 6-31G*
  Basis Set:
  @DF-RHF Final Energy:  -383.94734871150098
    Total Energy =                       -383.9473487115009220
  Basis Set: 6-31G*
  Basis Set:
  Basis Set: 6-31G*
  Basis Set:
  @DF-RHF Final Energy:  -383.94739703115232
    Total Energy =                       -383.9473970311525477
  Basis Set: 6-31G*
  Basis Set:
  Basis Set: 6-31G*
  Basis Set:
  @DF-RHF Final Energy:  -383.94739881091181
    Total Energy =                       -383.9473988109118068
  Basis Set: 6-31G*
  Basis Set:
  Charge       = 0
  Multiplicity = 1
  Basis Set: 6-31G*
  Basis Set:

    Orbital Energies (a.u.)
    -----------------------

    Doubly Occupied:

       1A    -20.612643     2A    -20.549585     3A    -11.379531
       4A    -11.238441     5A    -11.232361     6A    -11.224267
       7A    -11.221669     8A    -11.213528     9A     -1.473585
      10A     -1.363931    11A     -1.099298    12A     -1.042148
      13A     -0.960638    14A     -0.863872    15A     -0.823128
      16A     -0.789542    17A     -0.700852    18A     -0.686334
      19A     -0.642862    20A     -0.635313    21A     -0.619297
      22A     -0.592274    23A     -0.578312    24A     -0.553907
      25A     -0.540880    26A     -0.520956    27A     -0.499061
      28A     -0.482969    29A     -0.476530    30A     -0.469915
      31A     -0.458655    32A     -0.434813

  @DF-RHF Final Energy:  -383.94739869832341

   => Energetics <=

    Nuclear Repulsion Energy =            376.4950313038451100
    One-Electron Energy =               -1268.9226628270369019
    Two-Electron Energy =                 508.4802328248680965
    DFT Exchange-Correlation Energy =       0.0000000000000000
    Empirical Dispersion Energy =           0.0000000000000000
    PCM Polarization Energy =               0.0000000000000000
    EFP Energy =                            0.0000000000000000
    Total Energy =                       -383.9473986983237523
    Molecular point group: c1
  Basis Set: 6-31G*
  Basis Set:

  -Total Gradient:
     Atom            X                  Y                   Z
    ------   -----------------  -----------------  -----------------
       1       -0.000032500182    -0.000036910962    -0.000014507833
       2       -0.000042096349     0.000046749693     0.000045005596
       3        0.000013573905     0.000136239530    -0.000099777079
       4        0.000076632701    -0.000153325653     0.000168408060
       5       -0.000002433436    -0.000110484663     0.000015629387
       6       -0.000005986356     0.000029948450    -0.000099805554
       7       -0.000007090935     0.000136569776    -0.000080259382
       8        0.000009723489     0.000011862683     0.000027915627
       9       -0.000011333045    -0.000020632401     0.000012690464
      10        0.000019208312     0.000036964381    -0.000030459236
      11        0.000022102462    -0.000053293639     0.000007987206
      12        0.000005037880    -0.000022735746     0.000046252084
      13       -0.000008992029    -0.000013362688     0.000001603821
      14       -0.000020118159    -0.000009152001     0.000005604451
      15       -0.000012298152     0.000016178435    -0.000020807541
      16        0.000013190489    -0.000003579640     0.000013300428
      17       -0.000010871838     0.000005098553     0.000006402481
      18       -0.000010048798     0.000008491877    -0.000007863369
      19       -0.000001560295     0.000002301269     0.000011139557
      20        0.000005860328    -0.000006927252    -0.000008459170

  **** Optimization is complete! (in 8 steps) ****
    Final optimized geometry and variables:
    Molecular point group: c1

    Geometry (in Angstrom), charge = 0, multiplicity = 1:

    H            3.537783704808     0.847900683581     0.535380244608
    O            2.636525197255     0.698996800612     0.804256079645
    C            2.079971128478    -0.143606101380    -0.066399864495
    C            0.637954516482    -0.433211406775     0.257657501508
    O            2.685203581332    -0.589043316931    -0.986775210778
    C           -0.253439969411     0.805708971888     0.072442980843
    H            0.328594458241    -1.242879173001    -0.387425595459
    H            0.583383441661    -0.770280268921     1.288500767863
    C           -1.720576724191     0.567586074882     0.445241452327
    H           -0.191334102145     1.138413810583    -0.961139925792
    H            0.138967729737     1.610308468295     0.684807543360
    C           -2.464455025696    -0.420787487874    -0.456872650745
    H           -2.235555161691     1.524951629635     0.410712655795
    H           -1.779063218352     0.229961636500     1.478690118837
    C           -3.947335970729    -0.533907091587    -0.103612416735
    H           -2.362978658024    -0.106120928814    -1.493402532348
    H           -2.009840845554    -1.405327152437    -0.390122535484
    H           -4.453169649636    -1.239164121672    -0.755392434235
    H           -4.448182976637     0.425047262233    -0.200908630687
    H           -4.081801811998    -0.873990223090     0.919359287424

  Mulliken Charges: (a.u.)
   Center  Symbol    Alpha    Beta     Spin     Total
       1     H     0.26763  0.26763  0.00000  0.46475
       2     O     4.34766  4.34766  0.00000 -0.69531
       3     C     2.63177  2.63177  0.00000  0.73645
       4     C     3.20169  3.20169  0.00000 -0.40339
       5     O     4.27833  4.27833  0.00000 -0.55666
       6     C     3.16752  3.16752  0.00000 -0.33504
       7     H     0.39519  0.39519  0.00000  0.20962
       8     H     0.40313  0.40313  0.00000  0.19375
       9     C     3.15396  3.15396  0.00000 -0.30792
      10     H     0.41313  0.41313  0.00000  0.17374
      11     H     0.40478  0.40478  0.00000  0.19043
      12     C     3.15500  3.15500  0.00000 -0.30999
      13     H     0.41794  0.41794  0.00000  0.16413
      14     H     0.42171  0.42171  0.00000  0.15658
      15     C     3.23962  3.23962  0.00000 -0.47925
      16     H     0.42065  0.42065  0.00000  0.15870
      17     H     0.42074  0.42074  0.00000  0.15851
      18     H     0.41752  0.41752  0.00000  0.16496
      19     H     0.42089  0.42089  0.00000  0.15822
      20     H     0.42114  0.42114  0.00000  0.15772

   Total alpha = 32.00000, Total beta = 32.00000, Total charge =  0.00000
