  ==> Input File <==

--------------------------------------------------------------------------
set {
	reference rhf
	basis 6-31G*
}

set_num_threads( 1 )
memory 2 gb

molecule MOL {
0 1

H	 -3.261111	 -0.295142	 1.469456
C	 -3.306842	 -0.277400	 0.373456
C	 -2.660244	 0.921717	 -0.272021
O	 -3.838538	 -1.161155	 -0.216482
C	 -1.220012	 1.144545	 0.209990
H	 -2.705793	 0.797307	 -1.347733
H	 -3.263782	 1.790044	 -0.010477
C	 -0.252658	 0.041456	 -0.226725
H	 -0.873521	 2.100229	 -0.171974
H	 -1.211708	 1.231594	 1.295398
C	 1.180775	 0.282413	 0.250794
H	 -0.266029	 -0.034465	 -1.312038
H	 -0.597733	 -0.921000	 0.146291
C	 2.148627	 -0.814315	 -0.201312
H	 1.516199	 1.249228	 -0.115937
H	 1.192670	 0.346017	 1.338083
C	 3.580890	 -0.659131	 0.322722
H	 2.166869	 -0.852443	 -1.289387
H	 1.762857	 -1.776509	 0.128956
C	 4.306188	 -1.978882	 0.590716
H	 3.548004	 -0.086510	 1.246287
H	 4.159685	 -0.064928	 -0.381438
H	 3.741646	 -2.601400	 1.279941
H	 4.461695	 -2.549288	 -0.318915
H	 5.281789	 -1.799215	 1.032211

	symmetry c1
}
set optking {
	frozen_dihedral = ("
		6 3 5 8,
		6 3 2 4,
		3 5 8 12,
		12 8 11 14,
		8 11 14 18
	")
}

ee = energy('scf')
oeprop('DIPOLE', 'QUADRUPOLE', 'MULLIKEN_CHARGES')
f=open( 'psi4out.xyz', 'w' )
f.write( "25  " )
f.write( str(ee) + "\n" )
f.write( MOL.save_string_xyz() )
f.close()
--------------------------------------------------------------------------

    Molecular point group: c1

    Geometry (in Angstrom), charge = 0, multiplicity = 1:

       Center              X                  Y                   Z               Mass
    ------------   -----------------  -----------------  -----------------  -----------------
           H         -3.258752375598     0.002557899587     1.374849936448     1.007825032070
           C         -3.304483375598     0.020299899587     0.278849936448    12.000000000000
           C         -2.657885375598     1.219416899587    -0.366627063552    12.000000000000
           O         -3.836179375598    -0.863455100413    -0.311088063552    15.994914619560
           C         -1.217653375598     1.442244899587     0.115383936448    12.000000000000
           H         -2.703434375598     1.095006899587    -1.442339063552     1.007825032070
           H         -3.261423375598     2.087743899587    -0.105083063552     1.007825032070
           C         -0.250299375598     0.339155899587    -0.321331063552    12.000000000000
           H         -0.871162375598     2.397928899587    -0.266580063552     1.007825032070
           H         -1.209349375598     1.529293899587     1.200791936448     1.007825032070
           C          1.183133624402     0.580112899587     0.156187936448    12.000000000000
           H         -0.263670375598     0.263234899587    -1.406644063552     1.007825032070
           H         -0.595374375598    -0.623300100413     0.051684936448     1.007825032070
           C          2.150985624402    -0.516615100413    -0.295918063552    12.000000000000
           H          1.518557624402     1.546927899587    -0.210543063552     1.007825032070
           H          1.195028624402     0.643716899587     1.243476936448     1.007825032070
           C          3.583248624402    -0.361431100413     0.228115936448    12.000000000000
           H          2.169227624402    -0.554743100413    -1.383993063552     1.007825032070
           H          1.765215624402    -1.478809100413     0.034349936448     1.007825032070
           C          4.308546624402    -1.681182100413     0.496109936448    12.000000000000
           H          3.550362624402     0.211189899587     1.151680936448     1.007825032070
           H          4.162043624402     0.232771899587    -0.476044063552     1.007825032070
           H          3.744004624402    -2.303700100413     1.185334936448     1.007825032070
           H          4.464053624402    -2.251588100413    -0.413521063552     1.007825032070
           H          5.284147624402    -1.501515100413     0.937604936448     1.007825032070

  Charge       = 0
  Multiplicity = 1
  Basis Set: 6-31G*
  Basis Set:

    Orbital Energies (a.u.)
    -----------------------

    Doubly Occupied:

       1A    -20.562090     2A    -11.326205     3A    -11.235459
       4A    -11.234734     5A    -11.223956     6A    -11.220891
       7A    -11.217018     8A    -11.216067     9A    -11.210728
      10A     -1.402056    11A     -1.103812    12A     -1.069027
      13A     -1.015151    14A     -0.943592    15A     -0.869272
      16A     -0.815368    17A     -0.793157    18A     -0.786900
      19A     -0.664574    20A     -0.664104    21A     -0.637572
      22A     -0.617474    23A     -0.602443    24A     -0.595277
      25A     -0.567449    26A     -0.550560    27A     -0.541753
      28A     -0.521587    29A     -0.507326    30A     -0.498285
      31A     -0.488640    32A     -0.477855    33A     -0.463610
      34A     -0.461579    35A     -0.441485    36A     -0.409626

  @DF-RHF Final Energy:  -387.11999263130144

   => Energetics <=

    Nuclear Repulsion Energy =            435.6579814914772442
    One-Electron Energy =               -1387.6429502221089933
    Two-Electron Energy =                 564.8649760993312157
    DFT Exchange-Correlation Energy =       0.0000000000000000
    Empirical Dispersion Energy =           0.0000000000000000
    PCM Polarization Energy =               0.0000000000000000
    EFP Energy =                            0.0000000000000000
    Total Energy =                       -387.1199926313005335

  Mulliken Charges: (a.u.)
   Center  Symbol    Alpha    Beta     Spin     Total
       1     H     0.43260  0.43260  0.00000  0.13480
       2     C     2.83087  2.83087  0.00000  0.33826
       3     C     3.20808  3.20808  0.00000 -0.41616
       4     O     4.23772  4.23772  0.00000 -0.47545
       5     C     3.16665  3.16665  0.00000 -0.33329
       6     H     0.39967  0.39967  0.00000  0.20066
       7     H     0.40666  0.40666  0.00000  0.18668
       8     C     3.15562  3.15562  0.00000 -0.31124
       9     H     0.41277  0.41277  0.00000  0.17445
      10     H     0.41961  0.41961  0.00000  0.16078
      11     C     3.15365  3.15365  0.00000 -0.30730
      12     H     0.41790  0.41790  0.00000  0.16420
      13     H     0.41815  0.41815  0.00000  0.16370
      14     C     3.15322  3.15322  0.00000 -0.30643
      15     H     0.42229  0.42229  0.00000  0.15541
      16     H     0.42312  0.42312  0.00000  0.15376
      17     C     3.15336  3.15336  0.00000 -0.30673
      18     H     0.42103  0.42103  0.00000  0.15794
      19     H     0.42176  0.42176  0.00000  0.15647
      20     C     3.23982  3.23982  0.00000 -0.47964
      21     H     0.42269  0.42269  0.00000  0.15462
      22     H     0.42116  0.42116  0.00000  0.15768
      23     H     0.42152  0.42152  0.00000  0.15696
      24     H     0.42050  0.42050  0.00000  0.15900
      25     H     0.41957  0.41957  0.00000  0.16086

   Total alpha = 36.00000, Total beta = 36.00000, Total charge =  0.00000
