                              Psi4 1.0.54 Driver

  ==> Input File <==

--------------------------------------------------------------------------
set {
	reference rhf
	basis cc-pvtz
}

set_num_threads( 4 )
memory 2 gb

molecule MOL {
0 1

O	 2.868453	 1.353349	 -0.000734
C	 2.841259	 0.166180	 -0.000295
C	 1.542794	 -0.614730	 -0.000853
C	 4.113372	 -0.651103	 0.000743
C	 0.288398	 0.247429	 0.000314
H	 1.557171	 -1.273139	 -0.866508
H	 1.557484	 -1.274998	 0.863344
C	 -0.993089	 -0.581367	 -0.000217
H	 0.305153	 0.900562	 -0.864701
H	 0.305567	 0.898805	 0.866656
C	 -2.258482	 0.271340	 0.000669
H	 -1.002280	 -1.233920	 -0.870484
H	 -1.002061	 -1.235367	 0.868958
C	 -2.839770	 0.493991	 1.393962
H	 -3.008742	 -0.200141	 -0.629354
H	 -2.042009	 1.234341	 -0.455287
C	 -4.104047	 1.346834	 1.386695
H	 -3.057564	 -0.468043	 1.850026
H	 -2.090945	 0.966399	 2.024050
H	 -4.884842	 0.883843	 0.792523
H	 -4.490573	 1.485422	 2.389896
H	 -3.911030	 2.328952	 0.968085
H	 4.145311	 -1.294584	 -0.871587
H	 4.970080	 0.004978	 -0.000091
H	 4.145223	 -1.291980	 0.874988

	symmetry c1
}
set optking {
	frozen_dihedral = ("
		15 11 8 12
	")
}

ee,wfn = optimize('scf', return_wfn=True)
oeprop( wfn, 'DIPOLE', 'QUADRUPOLE', 'MULLIKEN_CHARGES')
f=open( 'psi4out.xyz', 'w' )
f.write( "25  " )
f.write( str(ee) + "\n" )
f.write( MOL.save_string_xyz() )
f.close()
--------------------------------------------------------------------------

    Molecular point group: c1
  Charge       = 0
  Multiplicity = 1
  Basis Set: CC-PVTZ
  Basis Set:
  @DF-RHF Final Energy:  -387.27072984750578
    Total Energy =                       -387.2707298475054358
    Molecular point group: c1
  Basis Set: CC-PVTZ
  Basis Set:
  Basis Set: CC-PVTZ
  Basis Set:
  @DF-RHF Final Energy:  -387.27098420758392
    Total Energy =                       -387.2709842075840925
  Basis Set: CC-PVTZ
  Basis Set:
  Basis Set: CC-PVTZ
  Basis Set:
  @DF-RHF Final Energy:  -387.27104522919302
    Total Energy =                       -387.2710452291934189
  Basis Set: CC-PVTZ
  Basis Set:
  Basis Set: CC-PVTZ
  Basis Set:
  @DF-RHF Final Energy:  -387.27096312708136
    Total Energy =                       -387.2709631270811315
  Basis Set: CC-PVTZ
  Basis Set:
  Basis Set: CC-PVTZ
  Basis Set:
  @DF-RHF Final Energy:  -387.27104727371085
    Total Energy =                       -387.2710472737106784
  Basis Set: CC-PVTZ
  Basis Set:
  Charge       = 0
  Multiplicity = 1
  Basis Set: CC-PVTZ
  Basis Set:

    Orbital Energies (a.u.)
    -----------------------

    Doubly Occupied:

       1A    -20.539019     2A    -11.320665     3A    -11.230138
       4A    -11.226670     5A    -11.215404     6A    -11.214636
       7A    -11.213262     8A    -11.211324     9A    -11.205775
      10A     -1.399049    11A     -1.094496    12A     -1.056637
      13A     -1.014856    14A     -0.969457    15A     -0.890898
      16A     -0.822964    17A     -0.785825    18A     -0.731822
      19A     -0.654545    20A     -0.653370    21A     -0.637713
      22A     -0.620784    23A     -0.604765    24A     -0.581809
      25A     -0.566608    26A     -0.564482    27A     -0.544937
      28A     -0.526203    29A     -0.506142    30A     -0.494671
      31A     -0.488914    32A     -0.481530    33A     -0.463587
      34A     -0.456423    35A     -0.448950    36A     -0.401824

  @DF-RHF Final Energy:  -387.27104746256560

   => Energetics <=

    Nuclear Repulsion Energy =            443.4089779538844027
    One-Electron Energy =               -1403.6797410367139491
    Two-Electron Energy =                 572.9997156202642827
    DFT Exchange-Correlation Energy =       0.0000000000000000
    Empirical Dispersion Energy =           0.0000000000000000
    PCM Polarization Energy =               0.0000000000000000
    EFP Energy =                            0.0000000000000000
    Total Energy =                       -387.2710474625652068
    Molecular point group: c1
  Basis Set: CC-PVTZ
  Basis Set:

  -Total Gradient:
     Atom            X                  Y                   Z
    ------   -----------------  -----------------  -----------------
       1       -0.000017771857     0.000016214844     0.000002502249
       2        0.000008547049    -0.000012486989    -0.000009239060
       3       -0.000003099208     0.000000824825     0.000032655771
       4        0.000000131775    -0.000008208182    -0.000009138366
       5        0.000009212657     0.000017825893    -0.000023549781
       6        0.000007763272     0.000004884559    -0.000009189355
       7        0.000002196588    -0.000004145624    -0.000009896252
       8        0.001922967387     0.003212738877    -0.002652324248
       9       -0.000005023075    -0.000003792565     0.000003900208
      10       -0.000010489648    -0.000001648976     0.000001483282
      11       -0.001514312152    -0.002606275271     0.003466749351
      12       -0.001373166770    -0.002265018898     0.001667825285
      13       -0.000000150140    -0.000000075784     0.000003171698
      14       -0.000003737286    -0.000008161289     0.000011614424
      15        0.000974843064     0.001660671016    -0.002472111853
      16        0.000001285220     0.000002815486     0.000001643405
      17        0.000001895127     0.000005487014    -0.000003987653
      18        0.000005200728    -0.000003292991    -0.000006561076
      19        0.000002402869    -0.000005331428    -0.000007560132
      20       -0.000002117816     0.000001314878     0.000002041748
      21       -0.000004200209     0.000004854339     0.000002398067
      22       -0.000004568346     0.000000382350    -0.000001960178
      23        0.000005214907    -0.000010574447     0.000002444610
      24       -0.000006314344     0.000001376303     0.000000295324
      25        0.000003290207    -0.000000377942     0.000006792533

  **** Optimization is complete! (in 6 steps) ****
    Final optimized geometry and variables:
    Molecular point group: c1

    Geometry (in Angstrom), charge = 0, multiplicity = 1:

    O            2.674093844437     1.177542104552    -0.311753303188
    C            2.676453041453    -0.009843764280    -0.298029433775
    C            1.397875161380    -0.822965441716    -0.309072238044
    C            3.968237726815    -0.795142545548    -0.267205576818
    C            0.123241249127     0.007636310085    -0.347296930457
    H            1.444513345112    -1.496078108458    -1.162241873162
    H            1.412422208649    -1.467184721981     0.567121620886
    C           -1.137611028801    -0.852488832205    -0.366947523121
    H            0.141943936631     0.648170894606    -1.221394072220
    H            0.106658044388     0.671915378566     0.509145080086
    C           -2.439999720955    -0.038384800086    -0.329741589384
    H           -1.132168925157    -1.497280200568    -1.240848281927
    H           -1.121395730293    -1.530284453250     0.484018106970
    C           -2.993296665166     0.183512408287     1.075421646699
    H           -3.192273204125    -0.519393554233    -0.947404282839
    H           -2.266049914295     0.928102448065    -0.796696236269
    C           -4.243267341838     1.056448259469     1.095856141809
    H           -3.218891016839    -0.779614965317     1.524964516642
    H           -2.227767254692     0.638153022785     1.698073686169
    H           -5.037949932881     0.615045103825     0.503343260232
    H           -4.616378565623     1.185086346536     2.105447414639
    H           -4.039031138015     2.041779807087     0.690620241496
    H            4.030525264690    -1.446608024492    -1.131919583124
    H            4.808481151436    -0.118079102522    -0.261078085539
    H            4.001210920225    -1.425878743128     0.614356579004

  Mulliken Charges: (a.u.)
   Center  Symbol    Alpha    Beta     Spin     Total
       1     O     4.17071  4.17071  0.00000 -0.34142
       2     C     2.86201  2.86201  0.00000  0.27598
       3     C     3.11541  3.11541  0.00000 -0.23083
       4     C     3.15115  3.15115  0.00000 -0.30231
       5     C     3.08118  3.08118  0.00000 -0.16235
       6     H     0.44507  0.44507  0.00000  0.10986
       7     H     0.44487  0.44487  0.00000  0.11026
       8     C     3.10144  3.10144  0.00000 -0.20288
       9     H     0.44583  0.44583  0.00000  0.10834
      10     H     0.44528  0.44528  0.00000  0.10943
      11     C     3.09688  3.09688  0.00000 -0.19377
      12     H     0.44737  0.44737  0.00000  0.10526
      13     H     0.45695  0.45695  0.00000  0.08610
      14     C     3.08073  3.08073  0.00000 -0.16146
      15     H     0.44728  0.44728  0.00000  0.10543
      16     H     0.45408  0.45408  0.00000  0.09184
      17     C     3.15079  3.15079  0.00000 -0.30158
      18     H     0.45523  0.45523  0.00000  0.08954
      19     H     0.45399  0.45399  0.00000  0.09202
      20     H     0.45529  0.45529  0.00000  0.08943
      21     H     0.44862  0.44862  0.00000  0.10277
      22     H     0.45374  0.45374  0.00000  0.09252
      23     H     0.45034  0.45034  0.00000  0.09932
      24     H     0.43535  0.43535  0.00000  0.12929
      25     H     0.45039  0.45039  0.00000  0.09921

   Total alpha = 36.00000, Total beta = 36.00000, Total charge = -0.00000

*** Psi4 exiting successfully. Buy a developer a beer!
