                              Psi4 1.0.54 Driver

  ==> Input File <==

--------------------------------------------------------------------------
set {
	reference rhf
	basis cc-pvtz
}

set_num_threads( 4 )
memory 2 gb

molecule MOL {
0 1

H	 -0.734498	 -1.835655	 -1.686520
C	 -0.848358	 -0.776067	 -1.891342
O	 -0.775228	 0.000056	 -0.739966
H	 -1.831787	 -0.618646	 -2.311147
H	 -0.113439	 -0.486349	 -2.635377
C	 0.406133	 -0.000384	 0.036994
C	 1.526415	 -0.003194	 -0.997339
C	 0.498772	 1.259027	 0.900673
C	 0.495883	 -1.257378	 0.904465
H	 1.452279	 0.872071	 -1.630204
H	 1.451276	 -0.881020	 -1.626529
H	 2.497919	 -0.002741	 -0.517601
H	 0.368981	 2.144239	 0.289753
H	 1.470064	 1.313479	 1.377660
H	 -0.248448	 1.271586	 1.684297
H	 0.363971	 -2.144195	 0.296316
H	 1.467114	 -1.312636	 1.381470
H	 -0.251246	 -1.265768	 1.688235

	symmetry c1
}
set optking {
	frozen_dihedral = ("
		2 3 6 7
	")
}

ee,wfn = optimize('scf', return_wfn=True)
oeprop( wfn, 'DIPOLE', 'QUADRUPOLE', 'MULLIKEN_CHARGES')
f=open( 'psi4out.xyz', 'w' )
f.write( "18  " )
f.write( str(ee) + "\n" )
f.write( MOL.save_string_xyz() )
f.close()
--------------------------------------------------------------------------

    Molecular point group: c1
  Charge       = 0
  Multiplicity = 1
  Basis Set: CC-PVTZ
  Basis Set:
  @DF-RHF Final Energy:  -271.26548643387940
    Total Energy =                       -271.2654864338795164
    Molecular point group: c1
  Basis Set: CC-PVTZ
  Basis Set:
  Basis Set: CC-PVTZ
  Basis Set:
  @DF-RHF Final Energy:  -271.15132855683203
    Total Energy =                       -271.1513285568319134
  Basis Set: CC-PVTZ
  Basis Set:
  Basis Set: CC-PVTZ
  Basis Set:
  @DF-RHF Final Energy:  -271.24545460841949
    Total Energy =                       -271.2454546084194362
  Basis Set: CC-PVTZ
  Basis Set:
  Basis Set: CC-PVTZ
  Basis Set:
  @DF-RHF Final Energy:  -271.27347719254760
    Total Energy =                       -271.2734771925477730
  Basis Set: CC-PVTZ
  Basis Set:
  @DF-RHF Final Energy:  -271.16533001012749
    Total Energy =                       -271.1653300101273203
  @DF-RHF Final Energy:  -271.26549835811988
    Total Energy =                       -271.2654983581198849
  @DF-RHF Final Energy:  -271.27587126908048
    Total Energy =                       -271.2758712690804259
  @DF-RHF Final Energy:  -271.27593926770606
    Total Energy =                       -271.2759392677057804
  Basis Set: CC-PVTZ
  Basis Set:
  @DF-RHF Final Energy:  -271.27600989980203
    Total Energy =                       -271.2760098998021476
  Basis Set: CC-PVTZ
  Basis Set:
  Basis Set: CC-PVTZ
  Basis Set:
  @DF-RHF Final Energy:  -271.27602898769635
    Total Energy =                       -271.2760289876964066
  Basis Set: CC-PVTZ
  Basis Set:
  Basis Set: CC-PVTZ
  Basis Set:
  @DF-RHF Final Energy:  -271.27603085512339
    Total Energy =                       -271.2760308551229400
  Basis Set: CC-PVTZ
  Basis Set:
  Charge       = 0
  Multiplicity = 1
  Basis Set: CC-PVTZ
  Basis Set:

    Orbital Energies (a.u.)
    -----------------------

    Doubly Occupied:

       1A    -20.539879     2A    -11.280256     3A    -11.258791
       4A    -11.209684     5A    -11.204528     6A    -11.202155
       7A     -1.372883     8A     -1.074766     9A     -0.949443
      10A     -0.938235    11A     -0.913100    12A     -0.753181
      13A     -0.657248    14A     -0.647378    15A     -0.639823
      16A     -0.590413    17A     -0.575199    18A     -0.552740
      19A     -0.535371    20A     -0.526221    21A     -0.515400
      22A     -0.491022    23A     -0.486819    24A     -0.442463
      25A     -0.404451

  @DF-RHF Final Energy:  -271.27603093199241

   => Energetics <=

    Nuclear Repulsion Energy =            272.6614820559877899
    One-Electron Energy =                -908.3521272819842807
    Two-Electron Energy =                 364.4146142940041955
    DFT Exchange-Correlation Energy =       0.0000000000000000
    Empirical Dispersion Energy =           0.0000000000000000
    PCM Polarization Energy =               0.0000000000000000
    EFP Energy =                            0.0000000000000000
    Total Energy =                       -271.2760309319922953
    Molecular point group: c1
  Basis Set: CC-PVTZ
  Basis Set:

  -Total Gradient:
     Atom            X                  Y                   Z
    ------   -----------------  -----------------  -----------------
       1       -0.000011121765    -0.000013787155    -0.000000345919
       2        0.001763535926     0.001270219824     0.000274318447
       3       -0.002866456093    -0.002609994321    -0.000721944199
       4       -0.000011647030     0.000014205868    -0.000014351854
       5        0.000027171646     0.000003171937    -0.000001632528
       6        0.001578913920     0.002947299055     0.001265105572
       7       -0.000467654508    -0.001627179093    -0.000804066621
       8       -0.000022336556    -0.000020233920    -0.000017117882
       9       -0.000011582091     0.000019285087     0.000011620285
      10        0.000007970445     0.000017715216     0.000003594047
      11        0.000015416285     0.000001415615    -0.000023352725
      12       -0.000005407932    -0.000020497197     0.000004436126
      13        0.000029090646     0.000017337559    -0.000016506687
      14        0.000000459806    -0.000020627946     0.000050669074
      15       -0.000036549275     0.000027137163     0.000000189170
      16       -0.000010312194     0.000005914623    -0.000016816979
      17        0.000017304577    -0.000008924130     0.000013772345
      18        0.000003204192    -0.000002458188    -0.000007569671

  **** Optimization is complete! (in 12 steps) ****
    Final optimized geometry and variables:
    Molecular point group: c1

    Geometry (in Angstrom), charge = 0, multiplicity = 1:

    H           -0.080110110900    -0.805285624731    -2.207865293014
    C            0.135390251429     0.239450344421    -2.001550581703
    O           -0.357999208186     0.655272209908    -0.770169254445
    H           -0.357936538138     0.838299587883    -2.754108541610
    H            1.205263118423     0.394749675945    -2.090644562154
    C           -0.019065384103    -0.055375218415     0.406552209526
    C            1.442255395673    -0.506091459657     0.418666578463
    C           -0.273841309822     0.932313196014     1.538742733983
    C           -0.945472310885    -1.265619297619     0.543620641744
    H            2.108183954093     0.334063294381     0.260099548507
    H            1.645604558296    -1.252681176425    -0.338401001537
    H            1.678409401570    -0.943680000818     1.380810094796
    H            0.387762275014     1.785076380166     1.450308383709
    H           -0.112598179947     0.466846959280     2.504144292970
    H           -1.294066969211     1.291611806310     1.494699774576
    H           -0.807404667688    -1.963238192682    -0.273932441334
    H           -0.751473984642    -1.798114986322     1.467711508246
    H           -1.979515417194    -0.944481244388     0.542360373899

  Mulliken Charges: (a.u.)
   Center  Symbol    Alpha    Beta     Spin     Total
       1     H     0.47030  0.47030  0.00000  0.05940
       2     C     3.04396  3.04396  0.00000 -0.08793
       3     O     4.19289  4.19289  0.00000 -0.38578
       4     H     0.44190  0.44190  0.00000  0.11619
       5     H     0.46686  0.46686  0.00000  0.06628
       6     C     2.87434  2.87434  0.00000  0.25133
       7     C     3.17204  3.17204  0.00000 -0.34407
       8     C     3.14120  3.14120  0.00000 -0.28240
       9     C     3.15283  3.15283  0.00000 -0.30566
      10     H     0.44506  0.44506  0.00000  0.10989
      11     H     0.44605  0.44605  0.00000  0.10790
      12     H     0.44494  0.44494  0.00000  0.11013
      13     H     0.45071  0.45071  0.00000  0.09858
      14     H     0.45919  0.45919  0.00000  0.08162
      15     H     0.44752  0.44752  0.00000  0.10496
      16     H     0.44997  0.44997  0.00000  0.10005
      17     H     0.45247  0.45247  0.00000  0.09505
      18     H     0.44778  0.44778  0.00000  0.10445

   Total alpha = 25.00000, Total beta = 25.00000, Total charge = -0.00000

*** Psi4 exiting successfully. Buy a developer a beer!
