  ==> Input File <==

--------------------------------------------------------------------------
set {
	reference rhf
	basis 6-31G*
}

set_num_threads( 4 )
memory 2 gb

molecule MOL {
0 1

H	 2.729985	 -1.065784	 1.809007
C	 2.087315	 -1.019773	 0.934310
C	 0.916658	 -0.074186	 1.184401
H	 1.721127	 -2.018105	 0.722170
H	 2.698756	 -0.704279	 0.095776
N	 -0.000257	 -0.000071	 0.054619
H	 0.369530	 -0.438084	 2.044986
H	 1.287112	 0.918169	 1.457683
C	 -1.363055	 0.315058	 0.462241
C	 0.484328	 0.880818	 -0.999833
C	 -2.412078	 -0.285320	 -0.468531
H	 -1.482241	 1.391144	 0.451970
H	 -1.549931	 -0.001174	 1.492681
C	 -0.018550	 0.479388	 -2.383022
H	 1.566050	 0.837100	 -1.010790
H	 0.224755	 1.923354	 -0.793612
H	 -2.262839	 0.075384	 -1.480151
H	 -2.369300	 -1.368867	 -0.491760
H	 -3.410332	 -0.003975	 -0.144961
H	 0.290094	 -0.534489	 -2.611991
H	 -1.099919	 0.522622	 -2.455980
H	 0.387421	 1.143780	 -3.140714

	symmetry c1
}
set optking {
	frozen_dihedral = ("
		3 6 9 11
	")
}

ee = optimize('scf')
oeprop('DIPOLE', 'QUADRUPOLE', 'MULLIKEN_CHARGES')
f=open( 'psi4out.xyz', 'w' )
f.write( "22  " )
f.write( str(ee) + "\n" )
f.write( MOL.save_string_xyz() )
f.close()
--------------------------------------------------------------------------

    Molecular point group: c1
  Charge       = 0
  Multiplicity = 1
  Basis Set: 6-31G*
  Basis Set:
  @DF-RHF Final Energy:  -290.35954639536527
    Total Energy =                       -290.3595463953652711
    Molecular point group: c1
  Basis Set: 6-31G*
  Basis Set:
  Basis Set: 6-31G*
  Basis Set:
  @DF-RHF Final Energy:  -290.36600100975608
    Total Energy =                       -290.3660010097557915
  Basis Set: 6-31G*
  Basis Set:
  Basis Set: 6-31G*
  Basis Set:
  @DF-RHF Final Energy:  -290.36713450702683
    Total Energy =                       -290.3671345070270604
  Basis Set: 6-31G*
  Basis Set:
  Basis Set: 6-31G*
  Basis Set:
  @DF-RHF Final Energy:  -290.36742331385739
    Total Energy =                       -290.3674233138573300
  Basis Set: 6-31G*
  Basis Set:
  @DF-RHF Final Energy:  -290.36808981924906
    Total Energy =                       -290.3680898192493487
  @DF-RHF Final Energy:  -290.36842966783979
    Total Energy =                       -290.3684296678392229
  @DF-RHF Final Energy:  -290.36902908483023
    Total Energy =                       -290.3690290848302311
  @DF-RHF Final Energy:  -290.36949893478226
    Total Energy =                       -290.3694989347828823
  @DF-RHF Final Energy:  -290.36985671660472
    Total Energy =                       -290.3698567166049997
  @DF-RHF Final Energy:  -290.36993094349299
    Total Energy =                       -290.3699309434929319
  Basis Set: 6-31G*
  Basis Set:
  @DF-RHF Final Energy:  -290.36995911788608
    Total Energy =                       -290.3699591178860828
  Basis Set: 6-31G*
  Basis Set:
  Basis Set: 6-31G*
  Basis Set:
  @DF-RHF Final Energy:  -290.36997942970686
    Total Energy =                       -290.3699794297074277
  Basis Set: 6-31G*
  Basis Set:
  Basis Set: 6-31G*
  Basis Set:
  @DF-RHF Final Energy:  -290.36998789394488
    Total Energy =                       -290.3699878939447103
  Basis Set: 6-31G*
  Basis Set:
  Charge       = 0
  Multiplicity = 1
  Basis Set: 6-31G*
  Basis Set:

    Orbital Energies (a.u.)
    -----------------------

    Doubly Occupied:

       1A    -15.534997     2A    -11.241329     3A    -11.240525
       4A    -11.240187     5A    -11.206320     6A    -11.204586
       7A    -11.201758     8A     -1.221202     9A     -1.027054
      10A     -1.018263    11A     -0.957007    12A     -0.853471
      13A     -0.834121    14A     -0.773953    15A     -0.659435
      16A     -0.641772    17A     -0.606596    18A     -0.597445
      19A     -0.568714    20A     -0.559764    21A     -0.538180
      22A     -0.529826    23A     -0.513860    24A     -0.496927
      25A     -0.493757    26A     -0.472536    27A     -0.467589
      28A     -0.463281    29A     -0.335155

  @DF-RHF Final Energy:  -290.36998843416450

   => Energetics <=

    Nuclear Repulsion Energy =            338.7807136613218972
    One-Electron Energy =               -1063.3021808842486280
    Two-Electron Energy =                 434.1514787887615512
    DFT Exchange-Correlation Energy =       0.0000000000000000
    Empirical Dispersion Energy =           0.0000000000000000
    PCM Polarization Energy =               0.0000000000000000
    EFP Energy =                            0.0000000000000000
    Total Energy =                       -290.3699884341651796
    Molecular point group: c1
  Basis Set: 6-31G*
  Basis Set:

  -Total Gradient:
     Atom            X                  Y                   Z
    ------   -----------------  -----------------  -----------------
       1        0.000018096553    -0.000013369563     0.000012681802
       2       -0.000029474975     0.000002428386     0.000001975064
       3       -0.000499828674    -0.001940217631     0.000053467485
       4        0.000001770914     0.000003398029    -0.000021729354
       5       -0.000006863156    -0.000006406983     0.000011104032
       6        0.000702828301     0.002060394582     0.000329480626
       7        0.000006545084     0.000006355471    -0.000006824239
       8       -0.000001916528    -0.000008712573     0.000002127560
       9       -0.000076810597     0.001475628230    -0.001254815833
      10       -0.000068573294     0.000070286578    -0.000022790041
      11       -0.000060498855    -0.001606390116     0.000837767101
      12        0.000012548756    -0.000035885301    -0.000034251371
      13        0.000024627032     0.000005404430     0.000040094603
      14       -0.000029487631    -0.000036881482     0.000018532139
      15       -0.000034996264     0.000002718009     0.000005708301
      16       -0.000015576466     0.000020915664     0.000002915342
      17       -0.000002621642    -0.000007873325    -0.000007120909
      18        0.000006259394     0.000005717579     0.000030696396
      19        0.000009034731     0.000011285688    -0.000003785657
      20        0.000000335241    -0.000021099878    -0.000004692926
      21        0.000023005824     0.000023525227     0.000022738733
      22        0.000021596254    -0.000011221023    -0.000013278852

  **** Optimization is complete! (in 14 steps) ****
    Final optimized geometry and variables:
    Molecular point group: c1

    Geometry (in Angstrom), charge = 0, multiplicity = 1:

    H            2.796260904185    -1.239526176790     1.608777133176
    C            2.126136789192    -1.017472350294     0.783383198112
    C            0.916137562579    -0.240722654948     1.292362414329
    H            1.813135622768    -1.953190332937     0.333263556329
    H            2.693359884540    -0.459602111341     0.046448305821
    N           -0.083974529708     0.005624369133     0.267667871165
    H            0.447780143713    -0.826487379951     2.074539265535
    H            1.256786124709     0.689647504607     1.760050090850
    C           -1.387231138613     0.371065340522     0.799097311055
    C            0.364429997074     0.863003508201    -0.826426184988
    C           -2.531273754805    -0.071292257571    -0.107877796117
    H           -1.460103272802     1.444523543886     0.994092354060
    H           -1.510220341188    -0.121315141439     1.756786690760
    C            0.578469420050     0.109071683984    -2.137069147230
    H            1.282698408974     1.376760249005    -0.547702839139
    H           -0.369431478156     1.646398008756    -0.992322287037
    H           -2.486034451870     0.408112819050    -1.080666501208
    H           -2.492242113692    -1.143950810591    -0.260888844360
    H           -3.489192717819     0.181844639509     0.337878666481
    H            1.330961462984    -0.663461224389    -2.030423619436
    H           -0.340779603285    -0.369371390107    -2.456511103390
    H            0.899978077473     0.788903702339    -2.922340545810

  Mulliken Charges: (a.u.)
   Center  Symbol    Alpha    Beta     Spin     Total
       1     H     0.42126  0.42126  0.00000  0.15748
       2     C     3.24239  3.24239  0.00000 -0.48479
       3     C     3.04941  3.04941  0.00000 -0.09883
       4     H     0.41478  0.41478  0.00000  0.17043
       5     H     0.42024  0.42024  0.00000  0.15953
       6     N     3.78943  3.78943  0.00000 -0.57886
       7     H     0.41981  0.41981  0.00000  0.16038
       8     H     0.43566  0.43566  0.00000  0.12868
       9     C     3.05371  3.05371  0.00000 -0.10742
      10     C     3.06357  3.06357  0.00000 -0.12715
      11     C     3.23600  3.23600  0.00000 -0.47199
      12     H     0.43288  0.43288  0.00000  0.13424
      13     H     0.42098  0.42098  0.00000  0.15804
      14     C     3.22977  3.22977  0.00000 -0.45953
      15     H     0.42394  0.42394  0.00000  0.15211
      16     H     0.42114  0.42114  0.00000  0.15772
      17     H     0.42154  0.42154  0.00000  0.15693
      18     H     0.41562  0.41562  0.00000  0.16875
      19     H     0.42371  0.42371  0.00000  0.15258
      20     H     0.41833  0.41833  0.00000  0.16333
      21     H     0.41836  0.41836  0.00000  0.16327
      22     H     0.42746  0.42746  0.00000  0.14509

   Total alpha = 29.00000, Total beta = 29.00000, Total charge = -0.00000
