  ==> Input File <==

--------------------------------------------------------------------------
set {
	reference rhf
	basis 6-31G*
}

set_num_threads( 4 )
memory 2 gb

molecule MOL {
0 1

H	 -3.301617	 0.570527	 0.000000
C	 -2.250981	 0.344174	 0.000000
C	 -1.813665	 -0.976045	 0.000000
C	 -1.315303	 1.358057	 0.000000
H	 -2.528860	 -1.779366	 0.000000
C	 -0.467298	 -1.270142	 0.000000
H	 -1.635074	 2.385107	 0.000000
C	 0.047081	 1.078114	 0.000000
H	 -0.115948	 -2.285222	 0.000000
C	 0.472063	 -0.241155	 0.000000
H	 0.749976	 1.888426	 0.000000
O	 1.765256	 -0.628444	 0.000000
C	 2.128619	 -1.834562	 -0.606893
H	 1.640710	 -2.680289	 -0.133581
H	 3.197009	 -1.926376	 -0.480708
H	 1.894604	 -1.832515	 -1.666405

	symmetry c1
}
set optking {
	frozen_dihedral = ("
		13 12 10 8
	")
}

ee = optimize('scf')
oeprop('DIPOLE', 'QUADRUPOLE', 'MULLIKEN_CHARGES')
f=open( 'psi4out.xyz', 'w' )
f.write( "16  " )
f.write( str(ee) + "\n" )
f.write( MOL.save_string_xyz() )
f.close()
--------------------------------------------------------------------------

    Molecular point group: c1
  Charge       = 0
  Multiplicity = 1
  Basis Set: 6-31G*
  Basis Set:
  @DF-RHF Final Energy:  -344.57294206551359
    Total Energy =                       -344.5729420655138142
    Molecular point group: c1
  Basis Set: 6-31G*
  Basis Set:
  Basis Set: 6-31G*
  Basis Set:
  @DF-RHF Final Energy:  -344.57709549926147
    Total Energy =                       -344.5770954992616453
  Basis Set: 6-31G*
  Basis Set:
  Basis Set: 6-31G*
  Basis Set:
  @DF-RHF Final Energy:  -344.58111017057797
    Total Energy =                       -344.5811101705780857
  Basis Set: 6-31G*
  Basis Set:
  Basis Set: 6-31G*
  Basis Set:
  @DF-RHF Final Energy:  -344.58149987901010
    Total Energy =                       -344.5814998790101527
  Basis Set: 6-31G*
  Basis Set:
  Basis Set: 6-31G*
  Basis Set:
  @DF-RHF Final Energy:  -344.58154646996104
    Total Energy =                       -344.5815464699609265
  Basis Set: 6-31G*
  Basis Set:
  Basis Set: 6-31G*
  Basis Set:
  @DF-RHF Final Energy:  -344.58155206403029
    Total Energy =                       -344.5815520640300633
  Basis Set: 6-31G*
  Basis Set:
  Charge       = 0
  Multiplicity = 1
  Basis Set: 6-31G*
  Basis Set:

    Orbital Energies (a.u.)
    -----------------------

    Doubly Occupied:

       1A    -20.580901     2A    -11.291836     3A    -11.278812
       4A    -11.233187     5A    -11.231670     6A    -11.224627
       7A    -11.220996     8A    -11.220156     9A     -1.409747
      10A     -1.146208    11A     -1.020417    12A     -1.013153
      13A     -0.939516    14A     -0.831341    15A     -0.805027
      16A     -0.719180    17A     -0.664669    18A     -0.661657
      19A     -0.651390    20A     -0.615581    21A     -0.588554
      22A     -0.578617    23A     -0.526810    24A     -0.515222
      25A     -0.506972    26A     -0.479250    27A     -0.453996
      28A     -0.334659    29A     -0.308281

  @DF-RHF Final Energy:  -344.58155284006529

   => Energetics <=

    Nuclear Repulsion Energy =            348.0504270882022979
    One-Electron Energy =               -1157.1590942515899769
    Two-Electron Energy =                 464.5271143233224507
    DFT Exchange-Correlation Energy =       0.0000000000000000
    Empirical Dispersion Energy =           0.0000000000000000
    PCM Polarization Energy =               0.0000000000000000
    EFP Energy =                            0.0000000000000000
    Total Energy =                       -344.5815528400652852
    Molecular point group: c1
  Basis Set: 6-31G*
  Basis Set:

  -Total Gradient:
     Atom            X                  Y                   Z
    ------   -----------------  -----------------  -----------------
       1       -0.000006329678    -0.000013760640    -0.000004235856
       2        0.000033918078     0.000100419855    -0.000022682765
       3        0.000080943899    -0.000074715597     0.000037391810
       4       -0.000100756597    -0.000035661596     0.000017734769
       5       -0.000009299490     0.000009188636    -0.000003916659
       6       -0.000093974399    -0.000024122118    -0.000015575311
       7        0.000009404001    -0.000001863034    -0.000000355849
       8        0.000119628105    -0.000071255434    -0.001687553698
       9        0.000019646112    -0.000007557958    -0.000007532077
      10        0.000045679038     0.000517024317     0.001709957478
      11        0.000008521551     0.000000525743    -0.000004135078
      12       -0.000260169714    -0.001234077651     0.001429031956
      13        0.000170591155     0.000794767906    -0.001460394037
      14       -0.000003015310    -0.000004168852    -0.000004562038
      15       -0.000008350217     0.000019447661     0.000011454147
      16       -0.000006436539     0.000025808761     0.000005373208

  **** Optimization is complete! (in 7 steps) ****
    Final optimized geometry and variables:
    Molecular point group: c1

    Geometry (in Angstrom), charge = 0, multiplicity = 1:

    H           -3.196262894337     0.986302016429     0.077601390687
    C           -2.158294514182     0.707190171870     0.080492593488
    C           -1.791338537210    -0.624977843994     0.065179938939
    C           -1.167903773917     1.680746777004     0.097361520230
    H           -2.546507535309    -1.390841727664     0.052116629218
    C           -0.453192365634    -0.996174471157     0.069072022095
    H           -1.437371055818     2.721991158853     0.104474019520
    C            0.166285993881     1.325648653474     0.094811698336
    H           -0.190170832494    -2.036978860977     0.064500051634
    C            0.528032847153    -0.016823563446     0.088566604307
    H            0.943012895034     2.067596746141     0.101827021027
    O            1.854468314195    -0.284370517012     0.108696831727
    C            2.323214423050    -1.452601681157    -0.506322214026
    H            2.109275221469    -2.333502685692     0.089464845718
    H            3.394462326476    -1.343657878196    -0.591919953008
    H            1.892270471225    -1.575792333037    -1.494117339573

  Mulliken Charges: (a.u.)
   Center  Symbol    Alpha    Beta     Spin     Total
       1     H     0.40091  0.40091  0.00000  0.19818
       2     C     3.11056  3.11056  0.00000 -0.22112
       3     C     3.09246  3.09246  0.00000 -0.18492
       4     C     3.09311  3.09311  0.00000 -0.18621
       5     H     0.39933  0.39933  0.00000  0.20134
       6     C     3.13811  3.13811  0.00000 -0.27623
       7     H     0.39867  0.39867  0.00000  0.20266
       8     C     3.12462  3.12462  0.00000 -0.24924
       9     H     0.39743  0.39743  0.00000  0.20513
      10     C     2.78666  2.78666  0.00000  0.42669
      11     H     0.39301  0.39301  0.00000  0.21399
      12     O     4.32834  4.32834  0.00000 -0.65668
      13     C     3.08983  3.08983  0.00000 -0.17967
      14     H     0.42156  0.42156  0.00000  0.15688
      15     H     0.40637  0.40637  0.00000  0.18727
      16     H     0.41904  0.41904  0.00000  0.16193

   Total alpha = 29.00000, Total beta = 29.00000, Total charge =  0.00000
