  ==> Input File <==

--------------------------------------------------------------------------
set {
	reference rhf
	basis 6-31G*
}

set_num_threads( 4 )
memory 2 gb

molecule MOL {
0 1

H	 4.442856	 0.272379	 1.509555
C	 3.630793	 -0.358247	 1.162258
C	 2.321707	 0.425709	 1.080582
H	 3.912969	 -0.753352	 0.190406
H	 3.547736	 -1.196645	 1.848141
C	 1.152361	 -0.425691	 0.596697
H	 2.433148	 1.272662	 0.410775
H	 2.085635	 0.835197	 2.061389
N	 -0.063599	 0.358044	 0.503639
H	 1.376781	 -0.813314	 -0.393429
H	 1.037861	 -1.296440	 1.250962
C	 -1.217365	 -0.386708	 0.039277
H	 -0.267140	 0.764061	 1.397374
C	 -2.452633	 0.504241	 -0.042481
H	 -0.988974	 -0.774347	 -0.949930
H	 -1.433665	 -1.255824	 0.669543
C	 -3.758029	 -0.289423	 -0.010781
H	 -2.394220	 1.093569	 -0.952170
H	 -2.440793	 1.210787	 0.785871
H	 -3.816659	 -0.981993	 -0.845726
H	 -4.617837	 0.370165	 -0.069296
H	 -3.847478	 -0.867502	 0.904682

	symmetry c1
}
set optking {
	frozen_dihedral = ("
		15 12 14 18
	")
}

ee = optimize('scf')
oeprop('DIPOLE', 'QUADRUPOLE', 'MULLIKEN_CHARGES')
f=open( 'psi4out.xyz', 'w' )
f.write( "22  " )
f.write( str(ee) + "\n" )
f.write( MOL.save_string_xyz() )
f.close()
--------------------------------------------------------------------------

    Molecular point group: c1
  Charge       = 0
  Multiplicity = 1
  Basis Set: 6-31G*
  Basis Set:
  @DF-RHF Final Energy:  -290.38125559175228
    Total Energy =                       -290.3812555917523923
    Molecular point group: c1
  Basis Set: 6-31G*
  Basis Set:
  Basis Set: 6-31G*
  Basis Set:
  @DF-RHF Final Energy:  -290.38145988587161
    Total Energy =                       -290.3814598858714930
  Basis Set: 6-31G*
  Basis Set:
  Basis Set: 6-31G*
  Basis Set:
  @DF-RHF Final Energy:  -290.38152141098487
    Total Energy =                       -290.3815214109852150
  Basis Set: 6-31G*
  Basis Set:
  Charge       = 0
  Multiplicity = 1
  Basis Set: 6-31G*
  Basis Set:

    Orbital Energies (a.u.)
    -----------------------

    Doubly Occupied:

       1A    -15.533368     2A    -11.238179     3A    -11.237743
       4A    -11.213670     5A    -11.213479     6A    -11.209672
       7A    -11.209291     8A     -1.205114     9A     -1.058724
      10A     -1.025524    11A     -0.927808    12A     -0.868187
      13A     -0.810732    14A     -0.793753    15A     -0.669145
      16A     -0.627814    17A     -0.615122    18A     -0.608512
      19A     -0.575252    20A     -0.562972    21A     -0.533153
      22A     -0.528092    23A     -0.511383    24A     -0.485703
      25A     -0.483034    26A     -0.474126    27A     -0.466205
      28A     -0.450105    29A     -0.358670

  @DF-RHF Final Energy:  -290.38152206564371

   => Energetics <=

    Nuclear Repulsion Energy =            313.1840036532597651
    One-Electron Energy =               -1012.1419925798929853
    Two-Electron Energy =                 408.5764668609898536
    DFT Exchange-Correlation Energy =       0.0000000000000000
    Empirical Dispersion Energy =           0.0000000000000000
    PCM Polarization Energy =               0.0000000000000000
    EFP Energy =                            0.0000000000000000
    Total Energy =                       -290.3815220656433667
    Molecular point group: c1
  Basis Set: 6-31G*
  Basis Set:

  -Total Gradient:
     Atom            X                  Y                   Z
    ------   -----------------  -----------------  -----------------
       1        0.000003722129    -0.000002861865     0.000004989870
       2        0.000002389696     0.000000598691     0.000021760488
       3        0.000005750285    -0.000021166540    -0.000004832612
       4       -0.000003883527     0.000007072742    -0.000000267280
       5        0.000001828653    -0.000004197940    -0.000003209916
       6        0.000010570630     0.000048200988    -0.000023340928
       7       -0.000010677628    -0.000011392320    -0.000009762742
       8        0.000007349532     0.000004636233     0.000002959724
       9       -0.000030737408    -0.000050467371    -0.000004738914
      10        0.000012382146    -0.000008123403     0.000001599345
      11        0.000016317471    -0.000002903750     0.000002917096
      12       -0.003423090146    -0.004575340828     0.000399890597
      13       -0.000016755455    -0.000014883664    -0.000027216507
      14        0.003008528351     0.004360484159     0.002377642815
      15        0.002450674652     0.003246517265    -0.000686462112
      16       -0.000031669828     0.000022979613    -0.000015405053
      17       -0.000009091696     0.000012224173     0.000035019281
      18       -0.001959916500    -0.002951987875    -0.002071069390
      19        0.000008022572    -0.000040353621    -0.000001137534
      20        0.000009934098    -0.000006460023     0.000009273552
      21       -0.000013935708    -0.000003416139    -0.000014936186
      22       -0.000037712316    -0.000009158525     0.000006326407

  **** Optimization is complete! (in 4 steps) ****
    Final optimized geometry and variables:
    Molecular point group: c1

    Geometry (in Angstrom), charge = 0, multiplicity = 1:

    H            4.511685450204     0.314723556381     0.986146595553
    C            3.697593264454    -0.317495546642     0.646510590633
    C            2.383904266833     0.460833074629     0.588768414322
    H            3.967480669207    -0.705037830521    -0.331824937930
    H            3.628294747198    -1.160648542990     1.328090245128
    C            1.211460844820    -0.392946922935     0.116687119649
    H            2.481615999978     1.312312612683    -0.077409359390
    H            2.160430093333     0.863261989770     1.575498082401
    N           -0.009256759790     0.385485894717     0.046562464248
    H            1.423663596867    -0.773826929601    -0.878777277167
    H            1.110910612220    -1.268287191879     0.767372373375
    C           -1.169966231308    -0.364453227719    -0.397260996479
    H           -0.197615026513     0.790611297174     0.943906823063
    C           -2.396808207743     0.542668878077    -0.507437942911
    H           -0.928823720912    -0.759534251444    -1.379655759453
    H           -1.387204748076    -1.217392474674     0.252838349857
    C           -3.707372505171    -0.245676097260    -0.539164698847
    H           -2.319668427793     1.128378663471    -1.417855462465
    H           -2.413528916552     1.240679468876     0.325651693985
    H           -3.716751245655    -0.958467358623    -1.359466238912
    H           -4.558923349016     0.414753604384    -0.668930996963
    H           -3.856933568368    -0.802306370037     0.381668632589

  Mulliken Charges: (a.u.)
   Center  Symbol    Alpha    Beta     Spin     Total
       1     H     0.41776  0.41776  0.00000  0.16449
       2     C     3.24324  3.24324  0.00000 -0.48647
       3     C     3.15565  3.15565  0.00000 -0.31130
       4     H     0.42071  0.42071  0.00000  0.15858
       5     H     0.42168  0.42168  0.00000  0.15664
       6     C     3.04632  3.04632  0.00000 -0.09264
       7     H     0.41295  0.41295  0.00000  0.17410
       8     H     0.42674  0.42674  0.00000  0.14651
       9     N     3.85897  3.85897  0.00000 -0.71793
      10     H     0.42195  0.42195  0.00000  0.15609
      11     H     0.43649  0.43649  0.00000  0.12703
      12     C     3.04854  3.04854  0.00000 -0.09709
      13     H     0.33558  0.33558  0.00000  0.32885
      14     C     3.15308  3.15308  0.00000 -0.30615
      15     H     0.42046  0.42046  0.00000  0.15909
      16     H     0.43488  0.43488  0.00000  0.13025
      17     C     3.24407  3.24407  0.00000 -0.48815
      18     H     0.41500  0.41500  0.00000  0.17001
      19     H     0.42407  0.42407  0.00000  0.15186
      20     H     0.42153  0.42153  0.00000  0.15695
      21     H     0.41840  0.41840  0.00000  0.16321
      22     H     0.42195  0.42195  0.00000  0.15610

   Total alpha = 29.00000, Total beta = 29.00000, Total charge =  0.00000
