  ==> Input File <==

--------------------------------------------------------------------------
set {
	reference rhf
	basis cc-pvtz
}

set_num_threads( 4 )
memory 2 gb

molecule MOL {
0 1

H	 -2.123894	 -0.667238	 -0.609809
O	 -2.041679	 -0.058866	 0.103463
C	 -0.959304	 0.780994	 -0.094939
C	 0.354905	 0.037902	 -0.006215
H	 -0.985899	 1.279578	 -1.057596
H	 -0.969809	 1.529522	 0.682889
F	 0.556549	 -0.697299	 -1.085386
F	 1.355637	 0.888271	 0.088682
F	 0.409226	 -0.764095	 1.030039

	symmetry c1
}
set optking {
	frozen_dihedral = ("
		7 4 3 5
	")
}

ee = optimize('scf')
oeprop('DIPOLE', 'QUADRUPOLE', 'MULLIKEN_CHARGES')
f=open( 'psi4out.xyz', 'w' )
f.write( "9  " )
f.write( str(ee) + "\n" )
f.write( MOL.save_string_xyz() )
f.close()
--------------------------------------------------------------------------

    Molecular point group: c1
  Charge       = 0
  Multiplicity = 1
  Basis Set: CC-PVTZ
  Basis Set:
  @DF-RHF Final Energy:  -450.84605492567505
    Total Energy =                       -450.8460549256749346
    Molecular point group: c1
  Basis Set: CC-PVTZ
  Basis Set:
  Basis Set: CC-PVTZ
  Basis Set:
  @DF-RHF Final Energy:  -450.84617833844112
    Total Energy =                       -450.8461783384410637
  Basis Set: CC-PVTZ
  Basis Set:
  Basis Set: CC-PVTZ
  Basis Set:
  @DF-RHF Final Energy:  -450.84621656699949
    Total Energy =                       -450.8462165669995443
  Basis Set: CC-PVTZ
  Basis Set:
  Basis Set: CC-PVTZ
  Basis Set:
  @DF-RHF Final Energy:  -450.84621942559664
    Total Energy =                       -450.8462194255969848
  Basis Set: CC-PVTZ
  Basis Set:
  Charge       = 0
  Multiplicity = 1
  Basis Set: CC-PVTZ
  Basis Set:

    Orbital Energies (a.u.)
    -----------------------

    Doubly Occupied:

       1A    -26.338325     2A    -26.337371     3A    -26.336454
       4A    -20.583370     5A    -11.493088     6A    -11.310260
       7A     -1.747059     8A     -1.643508     9A     -1.642497
      10A     -1.406384    11A     -1.049773    12A     -0.929363
      13A     -0.837643    14A     -0.834906    15A     -0.809333
      16A     -0.733884    17A     -0.717919    18A     -0.703341
      19A     -0.670257    20A     -0.665322    21A     -0.648536
      22A     -0.632805    23A     -0.617231    24A     -0.534693
      25A     -0.484441

  @DF-RHF Final Energy:  -450.84621999155786

   => Energetics <=

    Nuclear Repulsion Energy =            277.4628287999536269
    One-Electron Energy =               -1177.2025714678225086
    Two-Electron Energy =                 448.8935226763106812
    DFT Exchange-Correlation Energy =       0.0000000000000000
    Empirical Dispersion Energy =           0.0000000000000000
    PCM Polarization Energy =               0.0000000000000000
    EFP Energy =                            0.0000000000000000
    Total Energy =                       -450.8462199915582005
    Molecular point group: c1
  Basis Set: CC-PVTZ
  Basis Set:

  -Total Gradient:
     Atom            X                  Y                   Z
    ------   -----------------  -----------------  -----------------
       1       -0.000003927925    -0.000016582961     0.000003374228
       2       -0.000057230048    -0.000056726641     0.000000718039
       3        0.002537385258     0.004686862217     0.001361171369
       4       -0.002294379026    -0.003941717755     0.001655933927
       5       -0.001655217576    -0.003143744817    -0.001500161630
       6        0.000009958140    -0.000014403895    -0.000002989750
       7        0.001494126368     0.002466007351    -0.001504786890
       8       -0.000030967844    -0.000005466739    -0.000004017252
       9        0.000000252652     0.000025773245    -0.000009242044

  **** Optimization is complete! (in 5 steps) ****
    Final optimized geometry and variables:
    Molecular point group: c1

    Geometry (in Angstrom), charge = 0, multiplicity = 1:

    H           -2.151826418169    -0.637928724324    -0.649009996641
    O           -2.047642987672    -0.069029468754     0.093207101124
    C           -0.963612640793     0.776927497590    -0.085509218997
    C            0.353067766987     0.033606368264    -0.000919912188
    H           -0.992806115893     1.264492456367    -1.053104405284
    H           -0.984663038606     1.518543024419     0.697562959509
    F            0.546870187204    -0.711844894526    -1.075279502269
    F            1.351813485094     0.892152509132     0.058451731035
    F            0.429934168169    -0.747943646423     1.046236665913

  Mulliken Charges: (a.u.)
   Center  Symbol    Alpha    Beta     Spin     Total
       1     H     0.38775  0.38775  0.00000  0.22450
       2     O     4.19184  4.19184  0.00000 -0.38369
       3     C     2.99189  2.99189  0.00000  0.01621
       4     C     2.68552  2.68552  0.00000  0.62896
       5     H     0.46082  0.46082  0.00000  0.07835
       6     H     0.44637  0.44637  0.00000  0.10725
       7     F     4.61727  4.61727  0.00000 -0.23453
       8     F     4.61331  4.61331  0.00000 -0.22662
       9     F     4.60522  4.60522  0.00000 -0.21043

   Total alpha = 25.00000, Total beta = 25.00000, Total charge = -0.00000
