  ==> Input File <==

--------------------------------------------------------------------------
set {
	reference rhf
	basis cc-pvtz
}

set_num_threads( 4 )
memory 2 gb

molecule MOL {
0 1

H	 1.445762	 -1.985603	 -0.948053
C	 0.606610	 -2.463672	 -0.425628
C	 -0.692331	 -1.708235	 -0.479160
O	 0.765594	 -3.496309	 0.127562
C	 -0.554654	 -0.292621	 0.086567
H	 -1.441537	 -2.275828	 0.056904
H	 -0.993294	 -1.651930	 -1.523252
C	 -1.846385	 0.513195	 -0.016346
H	 -0.248433	 -0.352310	 1.127050
H	 0.238953	 0.232855	 -0.438538
C	 -3.089953	 -0.365049	 -0.098564
H	 -1.798267	 1.154820	 -0.891143
H	 -1.925398	 1.173265	 0.842889
H	 -3.055079	 -1.012299	 -0.968245
H	 -3.988403	 0.236438	 -0.170014
H	 -3.183055	 -0.995885	 0.779079

	symmetry c1
}
set optking {
	frozen_dihedral = ("
		9 5 8 12
	")
}

ee = optimize('scf')
oeprop('DIPOLE', 'QUADRUPOLE', 'MULLIKEN_CHARGES')
f=open( 'psi4out.xyz', 'w' )
f.write( "16  " )
f.write( str(ee) + "\n" )
f.write( MOL.save_string_xyz() )
f.close()
--------------------------------------------------------------------------

    Molecular point group: c1
  Charge       = 0
  Multiplicity = 1
  Basis Set: CC-PVTZ
  Basis Set:
  @DF-RHF Final Energy:  -270.10936958479726
    Total Energy =                       -270.1093695847974914
    Molecular point group: c1
  Basis Set: CC-PVTZ
  Basis Set:
  Basis Set: CC-PVTZ
  Basis Set:
  @DF-RHF Final Energy:  -270.11075395393857
    Total Energy =                       -270.1107539539385698
  Basis Set: CC-PVTZ
  Basis Set:
  Basis Set: CC-PVTZ
  Basis Set:
  @DF-RHF Final Energy:  -270.11262041815610
    Total Energy =                       -270.1126204181562116
  Basis Set: CC-PVTZ
  Basis Set:
  Basis Set: CC-PVTZ
  Basis Set:
  @DF-RHF Final Energy:  -270.11262325375299
    Total Energy =                       -270.1126232537532701
  Basis Set: CC-PVTZ
  Basis Set:
  Basis Set: CC-PVTZ
  Basis Set:
  @DF-RHF Final Energy:  -270.11265625708779
    Total Energy =                       -270.1126562570875649
  Basis Set: CC-PVTZ
  Basis Set:
  Basis Set: CC-PVTZ
  Basis Set:
  @DF-RHF Final Energy:  -270.11280109830204
    Total Energy =                       -270.1128010983020431
  Basis Set: CC-PVTZ
  Basis Set:
  Basis Set: CC-PVTZ
  Basis Set:
  @DF-RHF Final Energy:  -270.11282368187375
    Total Energy =                       -270.1128236818738060
  Basis Set: CC-PVTZ
  Basis Set:
  Charge       = 0
  Multiplicity = 1
  Basis Set: CC-PVTZ
  Basis Set:

    Orbital Energies (a.u.)
    -----------------------

    Doubly Occupied:

       1A    -20.552050     2A    -11.321158     3A    -11.234831
       4A    -11.233835     5A    -11.227731     6A    -11.216898
       7A     -1.406840     8A     -1.095349     9A     -1.016222
      10A     -0.916662    11A     -0.811582    12A     -0.786635
      13A     -0.681565    14A     -0.646572    15A     -0.636796
      16A     -0.596537    17A     -0.579912    18A     -0.561942
      19A     -0.538755    20A     -0.513572    21A     -0.487541
      22A     -0.479026    23A     -0.466855    24A     -0.412291

  @DF-RHF Final Energy:  -270.11282395038421

   => Energetics <=

    Nuclear Repulsion Energy =            232.6199024949560794
    One-Electron Energy =                -826.6231361789058383
    Two-Electron Energy =                 323.8904097335652637
    DFT Exchange-Correlation Energy =       0.0000000000000000
    Empirical Dispersion Energy =           0.0000000000000000
    PCM Polarization Energy =               0.0000000000000000
    EFP Energy =                            0.0000000000000000
    Total Energy =                       -270.1128239503844384
    Molecular point group: c1
  Basis Set: CC-PVTZ
  Basis Set:

  -Total Gradient:
     Atom            X                  Y                   Z
    ------   -----------------  -----------------  -----------------
       1        0.000009030055     0.000008537900     0.000021478597
       2       -0.000007726949    -0.000001522026    -0.000050898265
       3        0.000023243071     0.000039147710     0.000062193379
       4        0.000000176885    -0.000016239662     0.000000676993
       5       -0.003727022460    -0.005279771367     0.001603315430
       6        0.000020937771    -0.000000907072     0.000003605180
       7       -0.000019464565    -0.000011482415    -0.000011340226
       8       -0.002303532063    -0.004343278323    -0.004399915113
       9        0.003471312252     0.005100944176    -0.000649392119
      10        0.000006077584    -0.000016734471     0.000001904328
      11       -0.000003114144     0.000019646908    -0.000016959068
      12        0.002525265265     0.004486897824     0.003432942859
      13       -0.000008566942     0.000001359717     0.000001193794
      14        0.000004266950     0.000002169155    -0.000003195342
      15       -0.000001931737     0.000006461478     0.000002220056
      16        0.000011049028     0.000004770466     0.000002169518

  **** Optimization is complete! (in 8 steps) ****
    Final optimized geometry and variables:
    Molecular point group: c1

    Geometry (in Angstrom), charge = 0, multiplicity = 1:

    H            2.310518701147    -0.586026635308    -0.787741211316
    C            1.491198441264    -1.123913415877    -0.292853364065
    C            0.147186016610    -0.453286525264    -0.369970363107
    O            1.702191391120    -2.151646606028     0.251912996738
    C            0.193580201106     0.950449075438     0.237504121624
    H           -0.575868414298    -1.087442478416     0.122165848580
    H           -0.119942443148    -0.385819290420    -1.422653749063
    C           -1.084000488289     1.797866152801     0.079103953701
    H            0.470581438159     0.898309485363     1.285446368189
    H            1.009408612625     1.496503105648    -0.229147919819
    C           -2.407097511584     1.040149654702     0.070682036348
    H           -0.994646700760     2.422658752073    -0.803740706454
    H           -1.104213576400     2.504067986908     0.903461547442
    H           -2.493019769355     0.375731145091    -0.780499918542
    H           -3.236239891526     1.736198138167     0.025861772135
    H           -2.526574129949     0.444860003745     0.969537458185

  Mulliken Charges: (a.u.)
   Center  Symbol    Alpha    Beta     Spin     Total
       1     H     0.46464  0.46464  0.00000  0.07072
       2     C     2.91264  2.91264  0.00000  0.17471
       3     C     3.08058  3.08058  0.00000 -0.16116
       4     O     4.16318  4.16318  0.00000 -0.32635
       5     C     3.10835  3.10835  0.00000 -0.21671
       6     H     0.44021  0.44021  0.00000  0.11959
       7     H     0.44835  0.44835  0.00000  0.10331
       8     C     3.08904  3.08904  0.00000 -0.17807
       9     H     0.44285  0.44285  0.00000  0.11429
      10     H     0.44985  0.44985  0.00000  0.10029
      11     C     3.15527  3.15527  0.00000 -0.31054
      12     H     0.45036  0.45036  0.00000  0.09929
      13     H     0.44918  0.44918  0.00000  0.10163
      14     H     0.45217  0.45217  0.00000  0.09566
      15     H     0.44307  0.44307  0.00000  0.11386
      16     H     0.45026  0.45026  0.00000  0.09948

   Total alpha = 24.00000, Total beta = 24.00000, Total charge = -0.00000
