  ==> Input File <==

--------------------------------------------------------------------------
set {
	reference rhf
	basis cc-pvtz
}

set_num_threads( 4 )
memory 2 gb

molecule MOL {
0 1

H	 -3.941973	 0.934228	 -0.390224
C	 -3.240162	 0.342701	 0.161016
C	 -2.105997	 -0.000418	 -0.398703
H	 -3.485368	 0.047206	 1.162193
O	 -1.189946	 -0.765863	 0.237511
H	 -1.846458	 0.297311	 -1.398265
C	 0.026572	 -0.995256	 -0.379403
C	 1.057223	 0.049888	 -0.004615
H	 -0.054361	 -1.010670	 -1.459674
H	 0.397526	 -1.952058	 -0.044198
F	 1.338167	 -0.051379	 1.279089
F	 2.180091	 -0.106066	 -0.672712
F	 0.627473	 1.268095	 -0.227648

	symmetry c1
}
set optking {
	frozen_dihedral = ("
		11 8 7 9
	")
}

ee = optimize('scf')
oeprop('DIPOLE', 'QUADRUPOLE', 'MULLIKEN_CHARGES')
f=open( 'psi4out.xyz', 'w' )
f.write( "13  " )
f.write( str(ee) + "\n" )
f.write( MOL.save_string_xyz() )
f.close()
--------------------------------------------------------------------------

    Molecular point group: c1
  Charge       = 0
  Multiplicity = 1
  Basis Set: CC-PVTZ
  Basis Set:
  @DF-RHF Final Energy:  -527.74130423181873
    Total Energy =                       -527.7413042318187308
    Molecular point group: c1
  Basis Set: CC-PVTZ
  Basis Set:
  Basis Set: CC-PVTZ
  Basis Set:
  @DF-RHF Final Energy:  -527.74176705230229
    Total Energy =                       -527.7417670523020661
  Basis Set: CC-PVTZ
  Basis Set:
  Basis Set: CC-PVTZ
  Basis Set:
  @DF-RHF Final Energy:  -527.74186781014691
    Total Energy =                       -527.7418678101470277
  Basis Set: CC-PVTZ
  Basis Set:
  Basis Set: CC-PVTZ
  Basis Set:
  @DF-RHF Final Energy:  -527.74187790585881
    Total Energy =                       -527.7418779058589280
  Basis Set: CC-PVTZ
  Basis Set:
  Basis Set: CC-PVTZ
  Basis Set:
  @DF-RHF Final Energy:  -527.74187919875214
    Total Energy =                       -527.7418791987523718
  Basis Set: CC-PVTZ
  Basis Set:
  Charge       = 0
  Multiplicity = 1
  Basis Set: CC-PVTZ
  Basis Set:

    Orbital Energies (a.u.)
    -----------------------

    Doubly Occupied:

       1A    -26.341303     2A    -26.341242     3A    -26.338116
       4A    -20.604384     5A    -11.497968     6A    -11.320071
       7A    -11.298785     8A    -11.213893     9A     -1.750557
      10A     -1.647116    11A     -1.645365    12A     -1.444987
      13A     -1.088259    14A     -1.020706    15A     -0.932417
      16A     -0.844117    17A     -0.839726    18A     -0.827369
      19A     -0.797706    20A     -0.729774    21A     -0.719678
      22A     -0.703749    23A     -0.681803    24A     -0.667963
      25A     -0.661782    26A     -0.651003    27A     -0.640519
      28A     -0.587974    29A     -0.566239    30A     -0.529395
      31A     -0.518417    32A     -0.356729

  @DF-RHF Final Energy:  -527.74187973817720

   => Energetics <=

    Nuclear Repulsion Energy =            413.3746946174433106
    One-Electron Energy =               -1550.6149205018134580
    Two-Electron Energy =                 609.4983461461929437
    DFT Exchange-Correlation Energy =       0.0000000000000000
    Empirical Dispersion Energy =           0.0000000000000000
    PCM Polarization Energy =               0.0000000000000000
    EFP Energy =                            0.0000000000000000
    Total Energy =                       -527.7418797381772038
    Molecular point group: c1
  Basis Set: CC-PVTZ
  Basis Set:

  -Total Gradient:
     Atom            X                  Y                   Z
    ------   -----------------  -----------------  -----------------
       1       -0.000009610007    -0.000016727661    -0.000006985598
       2        0.000003262273     0.000007170530     0.000001816995
       3        0.000024326615     0.000103785143     0.000013323407
       4        0.000000221918     0.000004969578     0.000002544924
       5        0.000078267732    -0.000102423609    -0.000053016602
       6       -0.000015496155    -0.000019009438    -0.000000224062
       7       -0.001169029689     0.001147580652     0.000050792579
       8       -0.001168634167     0.000925757113     0.000575055113
       9        0.001192510334    -0.001186742956    -0.000103731471
      10       -0.000009604461     0.000021411700     0.000025704791
      11        0.001010318281    -0.000936396728    -0.000472202598
      12        0.000123679087    -0.000035764373    -0.000034948118
      13       -0.000060211762     0.000086390050     0.000001870636

  **** Optimization is complete! (in 6 steps) ****
    Final optimized geometry and variables:
    Molecular point group: c1

    Geometry (in Angstrom), charge = 0, multiplicity = 1:

    H           -3.949289358803     0.932818974345    -0.396005444910
    C           -3.250988133504     0.332564540528     0.150243845005
    C           -2.107286609288     0.010239489790    -0.402391286647
    H           -3.507222823098     0.011988173765     1.140902606060
    O           -1.193861035751    -0.763059151026     0.228205601094
    H           -1.837066050172     0.332903239255    -1.391270129030
    C            0.023355848727    -0.986566196764    -0.387526368176
    C            1.057878510602     0.051189475756    -0.000739263665
    H           -0.048093430160    -1.002105717955    -1.468497725699
    H            0.393799370888    -1.945671926900    -0.057590930658
    F            1.361504715861    -0.008330028481     1.273881342805
    F            2.165655125629    -0.160927882800    -0.684238433336
    F            0.654143117416     1.274565215182    -0.262021218881

  Mulliken Charges: (a.u.)
   Center  Symbol    Alpha    Beta     Spin     Total
       1     H     0.42517  0.42517  0.00000  0.14967
       2     C     3.19742  3.19742  0.00000 -0.39484
       3     C     2.95797  2.95797  0.00000  0.08406
       4     H     0.42483  0.42483  0.00000  0.15034
       5     O     4.14450  4.14450  0.00000 -0.28901
       6     H     0.43455  0.43455  0.00000  0.13091
       7     C     3.02061  3.02061  0.00000 -0.04123
       8     C     2.67469  2.67469  0.00000  0.65062
       9     H     0.45518  0.45518  0.00000  0.08964
      10     H     0.43551  0.43551  0.00000  0.12897
      11     F     4.60731  4.60731  0.00000 -0.21462
      12     F     4.61316  4.61316  0.00000 -0.22631
      13     F     4.60911  4.60911  0.00000 -0.21821

   Total alpha = 32.00000, Total beta = 32.00000, Total charge = -0.00000
