  ==> Input File <==

--------------------------------------------------------------------------
set {
	reference rhf
	basis 6-31G*
}

set_num_threads( 1 )
memory 2 gb

molecule MOL {
0 1

H	 -2.646374	 -0.642757	 1.268656
C	 -2.083525	 -0.384536	 0.393091
O	 -0.807605	 -0.127164	 0.768327
F	 -2.118945	 -1.383102	 -0.486752
F	 -2.621877	 0.670592	 -0.209486
C	 0.084052	 0.273579	 -0.209957
C	 -0.139460	 1.763868	 -0.431864
Cl	 -0.179880	 -0.627274	 -1.711961
H	 1.108443	 0.125208	 0.083954
F	 0.688631	 2.221533	 -1.346712
F	 0.103274	 2.401870	 0.695731
F	 -1.367954	 2.029983	 -0.803291

	symmetry c1
}
set optking {
	frozen_dihedral = ("
		10 7 6 9,
		6 3 2 4
	")
}

ee = energy('scf')
oeprop('DIPOLE', 'QUADRUPOLE', 'MULLIKEN_CHARGES')
f=open( 'psi4out.xyz', 'w' )
f.write( "12  " )
f.write( str(ee) + "\n" )
f.write( MOL.save_string_xyz() )
f.close()
--------------------------------------------------------------------------

    Molecular point group: c1

    Geometry (in Angstrom), charge = 0, multiplicity = 1:

       Center              X                  Y                   Z               Mass
    ------------   -----------------  -----------------  -----------------  -----------------
           H         -1.844961585281    -1.230954088233     1.758154871840     1.007825032070
           C         -1.282112585281    -0.972733088233     0.882589871840    12.000000000000
           O         -0.006192585281    -0.715361088233     1.257825871840    15.994914619560
           F         -1.317532585281    -1.971299088233     0.002746871840    18.998403224000
           F         -1.820464585281     0.082394911767     0.280012871840    18.998403224000
           C          0.885464414719    -0.314618088233     0.279541871840    12.000000000000
           C          0.661952414719     1.175670911767     0.057634871840    12.000000000000
          CL          0.621532414719    -1.215471088233    -1.222462128160    34.968852682000
           H          1.909855414719    -0.462989088233     0.573452871840     1.007825032070
           F          1.490043414719     1.633335911767    -0.857213128160    18.998403224000
           F          0.904686414719     1.813672911767     1.185229871840    18.998403224000
           F         -0.566541585281     1.441785911767    -0.313792128160    18.998403224000

  Charge       = 0
  Multiplicity = 1
  Basis Set: 6-31G*
  Basis Set:

    Orbital Energies (a.u.)
    -----------------------

    Doubly Occupied:

       1A   -104.833738     2A    -26.355030     3A    -26.353604
       4A    -26.341096     5A    -26.328909     6A    -26.325199
       7A    -20.647504     8A    -11.519567     9A    -11.481151
      10A    -11.398964    11A    -10.570003    12A     -8.039226
      13A     -8.035699    14A     -8.035572    15A     -1.757271
      16A     -1.708593    17A     -1.654228    18A     -1.652201
      19A     -1.622345    20A     -1.485085    21A     -1.176280
      22A     -1.047220    23A     -0.992607    24A     -0.904759
      25A     -0.857364    26A     -0.853157    27A     -0.841216
      28A     -0.831856    29A     -0.799740    30A     -0.757188
      31A     -0.730727    32A     -0.718084    33A     -0.702830
      34A     -0.699574    35A     -0.678696    36A     -0.662691
      37A     -0.655955    38A     -0.655290    39A     -0.632227
      40A     -0.626561    41A     -0.582834    42A     -0.559877
      43A     -0.525258    44A     -0.464945    45A     -0.454725

  @DF-RHF Final Energy: -1146.25411742983579

   => Energetics <=

    Nuclear Repulsion Energy =            781.9641532278772047
    One-Electron Energy =               -3147.3229824360205384
    Two-Electron Energy =                1219.1047117783095928
    DFT Exchange-Correlation Energy =       0.0000000000000000
    Empirical Dispersion Energy =           0.0000000000000000
    PCM Polarization Energy =               0.0000000000000000
    EFP Energy =                            0.0000000000000000
    Total Energy =                      -1146.2541174298335136

  Mulliken Charges: (a.u.)
   Center  Symbol    Alpha    Beta     Spin     Total
       1     H     0.40202  0.40202  0.00000  0.19596
       2     C     2.56142  2.56142  0.00000  0.87716
       3     O     4.30396  4.30396  0.00000 -0.60791
       4     F     4.68241  4.68241  0.00000 -0.36482
       5     F     4.68051  4.68051  0.00000 -0.36102
       6     C     3.05485  3.05485  0.00000 -0.10971
       7     C     2.43612  2.43612  0.00000  1.12776
       8    CL     8.50046  8.50046  0.00000 -0.00093
       9     H     0.36203  0.36203  0.00000  0.27595
      10     F     4.67547  4.67547  0.00000 -0.35094
      11     F     4.67691  4.67691  0.00000 -0.35382
      12     F     4.66384  4.66384  0.00000 -0.32768

   Total alpha = 45.00000, Total beta = 45.00000, Total charge = -0.00000
