                              Psi4 1.0.54 Driver

  ==> Input File <==

--------------------------------------------------------------------------
set {
	reference rhf
	basis cc-pvtz
}

set_num_threads( 4 )
memory 2 gb

molecule MOL {
0 1

O	 0.833172	 1.910651	 -0.442437
C	 0.010644	 1.882882	 -1.293165
C	 -1.253853	 1.063416	 -1.261764
O	 0.099476	 2.586948	 -2.409757
C	 -1.413045	 0.229353	 0.001137
H	 -2.084444	 1.750502	 -1.386314
H	 -1.252760	 0.437847	 -2.148401
C	 -2.702562	 -0.586401	 0.000228
H	 -1.392103	 0.882221	 0.866507
H	 -0.560073	 -0.432100	 0.103426
C	 -3.953810	 0.284959	 -0.000782
H	 -2.717793	 -1.238567	 -0.869075
H	 -2.719108	 -1.238472	 0.869576
H	 -3.983727	 0.924403	 -0.876454
H	 -4.852989	 -0.320147	 -0.001515
H	 -3.985140	 0.924399	 0.874841
C	 1.240762	 3.404477	 -2.572335
H	 1.296107	 4.142786	 -1.786164
H	 1.126943	 3.887583	 -3.529164
H	 2.141427	 2.808758	 -2.560275

	symmetry c1
}
set optking {
	frozen_dihedral = ("
		9 5 8 12
	")
}

ee,wfn = optimize('scf', return_wfn=True)
oeprop( wfn, 'DIPOLE', 'QUADRUPOLE', 'MULLIKEN_CHARGES')
f=open( 'psi4out.xyz', 'w' )
f.write( "20  " )
f.write( str(ee) + "\n" )
f.write( MOL.save_string_xyz() )
f.close()
--------------------------------------------------------------------------

    Molecular point group: c1
  Charge       = 0
  Multiplicity = 1
  Basis Set: CC-PVTZ
  Basis Set:
  @DF-RHF Final Energy:  -384.08087920538253
    Total Energy =                       -384.0808792053826437
    Molecular point group: c1
  Basis Set: CC-PVTZ
  Basis Set:
  Basis Set: CC-PVTZ
  Basis Set:
  @DF-RHF Final Energy:  -384.08097498465645
    Total Energy =                       -384.0809749846565637
  Basis Set: CC-PVTZ
  Basis Set:
  Basis Set: CC-PVTZ
  Basis Set:
  @DF-RHF Final Energy:  -384.08158832358862
    Total Energy =                       -384.0815883235889032
  Basis Set: CC-PVTZ
  Basis Set:
  Basis Set: CC-PVTZ
  Basis Set:
  @DF-RHF Final Energy:  -384.08157043280465
    Total Energy =                       -384.0815704328048241
  Basis Set: CC-PVTZ
  Basis Set:
  Basis Set: CC-PVTZ
  Basis Set:
  @DF-RHF Final Energy:  -384.08153948423063
    Total Energy =                       -384.0815394842309161
  Basis Set: CC-PVTZ
  Basis Set:
  Basis Set: CC-PVTZ
  Basis Set:
  @DF-RHF Final Energy:  -384.08161325330394
    Total Energy =                       -384.0816132533039990
  Basis Set: CC-PVTZ
  Basis Set:
  Charge       = 0
  Multiplicity = 1
  Basis Set: CC-PVTZ
  Basis Set:

    Orbital Energies (a.u.)
    -----------------------

    Doubly Occupied:

       1A    -20.596287     2A    -20.534146     3A    -11.364635
       4A    -11.278468     5A    -11.233479     6A    -11.218687
       7A    -11.217496     8A    -11.210750     9A     -1.472225
      10A     -1.365797    11A     -1.089864    12A     -1.023707
      13A     -0.968663    14A     -0.895555    15A     -0.800537
      16A     -0.766189    17A     -0.703667    18A     -0.685973
      19A     -0.676056    20A     -0.635245    21A     -0.612180
      22A     -0.596048    23A     -0.570791    24A     -0.550011
      25A     -0.535156    26A     -0.524431    27A     -0.509951
      28A     -0.475194    29A     -0.472680    30A     -0.468552
      31A     -0.459095    32A     -0.440875

  @DF-RHF Final Energy:  -384.08161397426989

   => Energetics <=

    Nuclear Repulsion Energy =            385.3675123226103096
    One-Electron Energy =               -1286.9934693965435599
    Two-Electron Energy =                 517.5443430996631378
    DFT Exchange-Correlation Energy =       0.0000000000000000
    Empirical Dispersion Energy =           0.0000000000000000
    PCM Polarization Energy =               0.0000000000000000
    EFP Energy =                            0.0000000000000000
    Total Energy =                       -384.0816139742701125
    Molecular point group: c1
  Basis Set: CC-PVTZ
  Basis Set:

  -Total Gradient:
     Atom            X                  Y                   Z
    ------   -----------------  -----------------  -----------------
       1        0.000011960703     0.000025276124    -0.000017638055
       2       -0.000019321548    -0.000015303536    -0.000010487392
       3        0.000001662411    -0.000015062058     0.000007241534
       4        0.000011450921    -0.000004033332     0.000019379847
       5       -0.000017229839     0.000018532245    -0.000009036725
       6       -0.000004779802     0.000003399372     0.000000190778
       7       -0.000002339667     0.000004240157     0.000003424323
       8       -0.000005977373     0.000015479845    -0.000010562659
       9        0.000006206815    -0.000015501426    -0.000000669804
      10        0.000006756398     0.000000060103     0.000005428356
      11       -0.000002744411    -0.000006094427    -0.000002915540
      12        0.000006894721     0.000001769794     0.000008890377
      13       -0.000004314106    -0.000009751104     0.000001314976
      14        0.000000252915    -0.000004675802     0.000001960020
      15        0.000001801865     0.000004637060     0.000004071269
      16        0.000008781078    -0.000000123463    -0.000005177366
      17        0.000017170038     0.000008043155    -0.000000122150
      18       -0.000007880106    -0.000005652493     0.000003460129
      19       -0.000000231878    -0.000000383129    -0.000000457781
      20       -0.000008119128    -0.000004857086     0.000001705864

  **** Optimization is complete! (in 7 steps) ****
    Final optimized geometry and variables:
    Molecular point group: c1

    Geometry (in Angstrom), charge = 0, multiplicity = 1:

    O            1.716590253540     0.520284702650     0.560514905715
    C            0.887112149679     0.524012551210    -0.283828975558
    C           -0.397840209204    -0.263649654857    -0.254609681773
    O            0.985040846459     1.241054934353    -1.391555812872
    C           -0.559831208791    -1.113795106992     0.999058941658
    H           -1.205607435271     0.449459192012    -0.368296567916
    H           -0.416598399472    -0.878521305623    -1.148909804605
    C           -1.821688711463    -1.977547563698     0.997849832818
    H           -0.557846443127    -0.469560840044     1.871498461791
    H            0.308528241000    -1.753581657712     1.098132484732
    C           -3.132218046967    -1.195691170911     1.048701551186
    H           -1.818861413929    -2.621114621998     0.121827838948
    H           -1.777892006638    -2.638712714038     1.857088786609
    H           -3.279024349855    -0.587154355048     0.164011672304
    H           -3.978333893450    -1.869072480689     1.121029329888
    H           -3.159347321515    -0.537990664724     1.911399322870
    C            2.145135408476     2.032006839314    -1.551931869872
    H            2.224534490024     2.758126000572    -0.756526448264
    H            2.036592808000     2.530553641826    -2.501438892843
    H            3.030706037327     1.413955384422    -1.554470547509

  Mulliken Charges: (a.u.)
   Center  Symbol    Alpha    Beta     Spin     Total
       1     O     4.19680  4.19680  0.00000 -0.39360
       2     C     2.80490  2.80490  0.00000  0.39021
       3     C     3.10214  3.10214  0.00000 -0.20428
       4     O     4.14712  4.14712  0.00000 -0.29424
       5     C     3.08871  3.08871  0.00000 -0.17743
       6     H     0.43923  0.43923  0.00000  0.12153
       7     H     0.44015  0.44015  0.00000  0.11969
       8     C     3.09422  3.09422  0.00000 -0.18843
       9     H     0.44653  0.44653  0.00000  0.10693
      10     H     0.44113  0.44113  0.00000  0.11773
      11     C     3.15297  3.15297  0.00000 -0.30595
      12     H     0.45495  0.45495  0.00000  0.09009
      13     H     0.44574  0.44574  0.00000  0.10851
      14     H     0.45501  0.45501  0.00000  0.08998
      15     H     0.44548  0.44548  0.00000  0.10904
      16     H     0.45317  0.45317  0.00000  0.09366
      17     C     3.03789  3.03789  0.00000 -0.07579
      18     H     0.45433  0.45433  0.00000  0.09134
      19     H     0.44525  0.44525  0.00000  0.10949
      20     H     0.45426  0.45426  0.00000  0.09149

   Total alpha = 32.00000, Total beta = 32.00000, Total charge = -0.00000

*** Psi4 exiting successfully. Buy a developer a beer!
