                              Psi4 1.0.54 Driver

  ==> Input File <==

--------------------------------------------------------------------------
set {
	reference rhf
	basis cc-pvtz
}

set_num_threads( 4 )
memory 2 gb

molecule MOL {
0 1

H	 -2.662827	 -1.094773	 1.483375
O	 -1.835398	 -0.788111	 1.161882
C	 -2.021813	 0.336996	 0.342658
C	 -0.669613	 0.837286	 -0.127252
H	 -2.633006	 0.078736	 -0.518427
H	 -2.538372	 1.123542	 0.889373
C	 0.490865	 -0.082543	 0.241244
H	 -0.708709	 0.967192	 -1.204587
H	 -0.507562	 1.822272	 0.303070
C	 1.839800	 0.429565	 -0.255472
H	 0.305636	 -1.070211	 -0.165276
H	 0.527397	 -0.195943	 1.322876
C	 3.001144	 -0.485193	 0.119072
H	 1.804373	 0.541073	 -1.335756
H	 2.020437	 1.423114	 0.146921
H	 2.866892	 -1.477297	 -0.298806
H	 3.943543	 -0.095749	 -0.249061
H	 3.085064	 -0.590459	 1.195790

	symmetry c1
}
set optking {
	frozen_dihedral = ("
		2 3 4 8
	")
}

ee,wfn = optimize('scf', return_wfn=True)
oeprop( wfn, 'DIPOLE', 'QUADRUPOLE', 'MULLIKEN_CHARGES')
f=open( 'psi4out.xyz', 'w' )
f.write( "18  " )
f.write( str(ee) + "\n" )
f.write( MOL.save_string_xyz() )
f.close()
--------------------------------------------------------------------------

    Molecular point group: c1
  Charge       = 0
  Multiplicity = 1
  Basis Set: CC-PVTZ
  Basis Set:
  @DF-RHF Final Energy:  -271.27710356719308
    Total Energy =                       -271.2771035671931941
    Molecular point group: c1
  Basis Set: CC-PVTZ
  Basis Set:
  Basis Set: CC-PVTZ
  Basis Set:
  @DF-RHF Final Energy:  -271.27752168203227
    Total Energy =                       -271.2775216820325568
  Basis Set: CC-PVTZ
  Basis Set:
  Basis Set: CC-PVTZ
  Basis Set:
  @DF-RHF Final Energy:  -271.27846809878298
    Total Energy =                       -271.2784680987829233
  Basis Set: CC-PVTZ
  Basis Set:
  Basis Set: CC-PVTZ
  Basis Set:
  @DF-RHF Final Energy:  -271.27849221427437
    Total Energy =                       -271.2784922142743085
  Basis Set: CC-PVTZ
  Basis Set:
  Basis Set: CC-PVTZ
  Basis Set:
  @DF-RHF Final Energy:  -271.27849391912150
    Total Energy =                       -271.2784939191213880
  Basis Set: CC-PVTZ
  Basis Set:
  Charge       = 0
  Multiplicity = 1
  Basis Set: CC-PVTZ
  Basis Set:

    Orbital Energies (a.u.)
    -----------------------

    Doubly Occupied:

       1A    -20.545790     2A    -11.266839     3A    -11.211184
       4A    -11.206949     5A    -11.201835     6A    -11.200844
       7A     -1.363825     8A     -1.072628     9A     -1.005298
      10A     -0.914015    11A     -0.818026    12A     -0.782265
      13A     -0.698121    14A     -0.658549    15A     -0.617607
      16A     -0.583178    17A     -0.572891    18A     -0.553341
      19A     -0.516914    20A     -0.500539    21A     -0.496073
      22A     -0.462994    23A     -0.459990    24A     -0.443856
      25A     -0.425675

  @DF-RHF Final Energy:  -271.27849417685093

   => Energetics <=

    Nuclear Repulsion Energy =            250.0551934112031347
    One-Electron Energy =                -863.5089222626447736
    Two-Electron Energy =                 342.1752346745906834
    DFT Exchange-Correlation Energy =       0.0000000000000000
    Empirical Dispersion Energy =           0.0000000000000000
    PCM Polarization Energy =               0.0000000000000000
    EFP Energy =                            0.0000000000000000
    Total Energy =                       -271.2784941768509270
    Molecular point group: c1
  Basis Set: CC-PVTZ
  Basis Set:

  -Total Gradient:
     Atom            X                  Y                   Z
    ------   -----------------  -----------------  -----------------
       1        0.000015543762     0.000010043365    -0.000008735511
       2       -0.000094249662    -0.001325545561    -0.001690095034
       3        0.000307511789     0.001156953248     0.002196474250
       4       -0.001064020851     0.002728663448    -0.000190014094
       5        0.000015497272     0.000017418219    -0.000006145365
       6        0.000009728402     0.000008724006    -0.000008534867
       7       -0.000011567258    -0.000015830204    -0.000021999849
       8        0.000836043197    -0.002591887325    -0.000285400481
       9       -0.000021980631     0.000011259704     0.000004462438
      10        0.000008621418    -0.000002024102     0.000002225425
      11        0.000002927499    -0.000013123949     0.000008169328
      12        0.000005131218     0.000011995531    -0.000011939813
      13       -0.000002514293     0.000000576203     0.000004014871
      14       -0.000007491323    -0.000001474148     0.000006305150
      15        0.000004858599     0.000001750366     0.000000950176
      16       -0.000000735914     0.000002834993    -0.000000462486
      17       -0.000004816477     0.000000671482     0.000001333284
      18        0.000001513251    -0.000001005278    -0.000000607424

  **** Optimization is complete! (in 6 steps) ****
    Final optimized geometry and variables:
    Molecular point group: c1

    Geometry (in Angstrom), charge = 0, multiplicity = 1:

    H           -2.849985538528    -1.093408220750     1.209439885995
    O           -1.998462107268    -0.814432758948     0.928386455432
    C           -2.123514658563     0.303044696556     0.086046492986
    C           -0.741495639383     0.803544394955    -0.375792004102
    H           -2.719611153092     0.034926723778    -0.781654628145
    H           -2.648874308400     1.101240713377     0.601750354712
    C            0.434481445295    -0.109231061095    -0.026589822987
    H           -0.762914758444     0.918973614602    -1.454445075571
    H           -0.555548660771     1.787635842776     0.040506769380
    C            1.760217954803     0.435520834693    -0.551141205934
    H            0.262682063249    -1.098927846378    -0.436088738229
    H            0.493861284869    -0.235430596079     1.047702487870
    C            2.947318741382    -0.459076975086    -0.209670337751
    H            1.701610927097     0.557316882881    -1.629727976005
    H            1.930477000983     1.428435980463    -0.142764870223
    H            2.824406833549    -1.450135315529    -0.633653552750
    H            3.873962702372    -0.047554957468    -0.593708059668
    H            3.055035193295    -0.572326194244     0.863879982486

  Mulliken Charges: (a.u.)
   Center  Symbol    Alpha    Beta     Spin     Total
       1     H     0.40053  0.40053  0.00000  0.19894
       2     O     4.18790  4.18790  0.00000 -0.37579
       3     C     2.96619  2.96619  0.00000  0.06762
       4     C     3.10686  3.10686  0.00000 -0.21372
       5     H     0.47275  0.47275  0.00000  0.05450
       6     H     0.47095  0.47095  0.00000  0.05810
       7     C     3.07901  3.07901  0.00000 -0.15802
       8     H     0.45451  0.45451  0.00000  0.09099
       9     H     0.45322  0.45322  0.00000  0.09356
      10     C     3.08548  3.08548  0.00000 -0.17095
      11     H     0.45097  0.45097  0.00000  0.09806
      12     H     0.44768  0.44768  0.00000  0.10464
      13     C     3.14982  3.14982  0.00000 -0.29963
      14     H     0.45712  0.45712  0.00000  0.08576
      15     H     0.45682  0.45682  0.00000  0.08636
      16     H     0.45525  0.45525  0.00000  0.08951
      17     H     0.45000  0.45000  0.00000  0.10000
      18     H     0.45496  0.45496  0.00000  0.09009

   Total alpha = 25.00000, Total beta = 25.00000, Total charge = -0.00000

*** Psi4 exiting successfully. Buy a developer a beer!
