  ==> Input File <==

--------------------------------------------------------------------------
set {
	reference rhf
	basis 6-31G*
}

set_num_threads( 4 )
memory 2 gb

molecule MOL {
0 1

H	 -3.040650	 -0.314228	 0.862668
C	 -2.772347	 -0.266684	 -0.190847
O	 -1.392607	 -0.295399	 -0.366433
H	 -3.183401	 -1.129800	 -0.696027
H	 -3.212088	 0.633381	 -0.618559
C	 -0.719715	 0.768384	 0.229244
C	 0.719720	 0.768376	 -0.229267
H	 -1.185038	 1.714362	 -0.050570
H	 -0.750528	 0.687237	 1.313896
O	 1.392611	 -0.295398	 0.366430
H	 0.750534	 0.687200	 -1.313918
H	 1.185043	 1.714359	 0.050526
C	 2.706965	 -0.449871	 -0.062409
H	 2.756559	 -0.644779	 -1.131878
H	 3.305899	 0.433456	 0.155466
H	 3.125548	 -1.294566	 0.467107

	symmetry c1
}
set optking {
	frozen_dihedral = ("
		2 3 6 7
	")
}

ee = optimize('scf')
oeprop('DIPOLE', 'QUADRUPOLE', 'MULLIKEN_CHARGES')
f=open( 'psi4out.xyz', 'w' )
f.write( "16  " )
f.write( str(ee) + "\n" )
f.write( MOL.save_string_xyz() )
f.close()
--------------------------------------------------------------------------

    Molecular point group: c1
  Charge       = 0
  Multiplicity = 1
  Basis Set: 6-31G*
  Basis Set:
  @DF-RHF Final Energy:  -306.97722674650458
    Total Energy =                       -306.9772267465045843
    Molecular point group: c1
  Basis Set: 6-31G*
  Basis Set:
  Basis Set: 6-31G*
  Basis Set:
  @DF-RHF Final Energy:  -306.97724959797210
    Total Energy =                       -306.9772495979719338
  Basis Set: 6-31G*
  Basis Set:
  Charge       = 0
  Multiplicity = 1
  Basis Set: 6-31G*
  Basis Set:

    Orbital Energies (a.u.)
    -----------------------

    Doubly Occupied:

       1A    -20.553633     2A    -20.553331     3A    -11.269240
       4A    -11.268571     5A    -11.264174     6A    -11.263337
       7A     -1.388063     8A     -1.370637     9A     -1.030913
      10A     -0.935991    11A     -0.892918    12A     -0.823587
      13A     -0.685100    14A     -0.679448    15A     -0.656988
      16A     -0.637007    17A     -0.628705    18A     -0.596928
      19A     -0.553835    20A     -0.533489    21A     -0.508255
      22A     -0.476670    23A     -0.464402    24A     -0.419740
      25A     -0.410063

  @DF-RHF Final Energy:  -306.97725205085840

   => Energetics <=

    Nuclear Repulsion Energy =            258.5089174883684109
    One-Electron Energy =                -931.2422893690081764
    Two-Electron Energy =                 365.7561198297814826
    DFT Exchange-Correlation Energy =       0.0000000000000000
    Empirical Dispersion Energy =           0.0000000000000000
    PCM Polarization Energy =               0.0000000000000000
    EFP Energy =                            0.0000000000000000
    Total Energy =                       -306.9772520508582829
    Molecular point group: c1
  Basis Set: 6-31G*
  Basis Set:

  -Total Gradient:
     Atom            X                  Y                   Z
    ------   -----------------  -----------------  -----------------
       1       -0.000007674782    -0.000012551274    -0.000005990077
       2       -0.000132299884     0.000889261522    -0.001305319980
       3        0.000094639494    -0.000944772246     0.001437251405
       4        0.000041706308    -0.000010717140     0.000008731046
       5       -0.000003216802     0.000005485018     0.000004918337
       6        0.000328672001    -0.000673844155     0.000991111259
       7       -0.000421301651     0.000901828497    -0.001181606568
       8        0.000023743680    -0.000010219174    -0.000006539098
       9       -0.000009142783    -0.000014853284    -0.000018844761
      10        0.000091146137    -0.000099978483     0.000046262305
      11       -0.000011336533     0.000015800610     0.000013971756
      12       -0.000021613552    -0.000014016181    -0.000000868243
      13        0.000021822592    -0.000032683329     0.000017801852
      14       -0.000003818875    -0.000000466046     0.000003348816
      15        0.000001441815     0.000000913823    -0.000000309762
      16        0.000007232836     0.000000811842    -0.000003918287

  **** Optimization is complete! (in 3 steps) ****
    Final optimized geometry and variables:
    Molecular point group: c1

    Geometry (in Angstrom), charge = 0, multiplicity = 1:

    H           -3.035318508682    -0.338404750597     0.908424711010
    C           -2.762075665172    -0.299053346336    -0.144521144247
    O           -1.382048965086    -0.328525006703    -0.317866760279
    H           -3.171700108890    -1.166506068773    -0.643330750468
    H           -3.199260936871     0.597977929636    -0.580433555394
    C           -0.708599974116     0.737867838296     0.273663594654
    C            0.732085686886     0.737605921811    -0.181338959463
    H           -1.165572099246     1.683163323221    -0.021620245372
    H           -0.752039003216     0.668627186695     1.358523846424
    O            1.404615000700    -0.331122660585     0.406137974049
    H            0.762916246057     0.664679182665    -1.266454319683
    H            1.198020685651     1.681013142469     0.106304298678
    C            2.719897674534    -0.481408014757    -0.021422681844
    H            2.771755071265    -0.666839489679    -1.092471221455
    H            3.317645409185     0.400451453898     0.205275144367
    H            3.137979634065    -1.330468303253     0.501424966390

  Mulliken Charges: (a.u.)
   Center  Symbol    Alpha    Beta     Spin     Total
       1     H     0.42915  0.42915  0.00000  0.14170
       2     C     3.07964  3.07964  0.00000 -0.15929
       3     O     4.30045  4.30045  0.00000 -0.60091
       4     H     0.41108  0.41108  0.00000  0.17784
       5     H     0.43145  0.43145  0.00000  0.13710
       6     C     2.99316  2.99316  0.00000  0.01367
       7     C     2.99253  2.99253  0.00000  0.01494
       8     H     0.43341  0.43341  0.00000  0.13319
       9     H     0.42156  0.42156  0.00000  0.15687
      10     O     4.30068  4.30068  0.00000 -0.60137
      11     H     0.42349  0.42349  0.00000  0.15303
      12     H     0.43255  0.43255  0.00000  0.13489
      13     C     3.07948  3.07948  0.00000 -0.15895
      14     H     0.42825  0.42825  0.00000  0.14350
      15     H     0.43199  0.43199  0.00000  0.13602
      16     H     0.41112  0.41112  0.00000  0.17776

   Total alpha = 25.00000, Total beta = 25.00000, Total charge =  0.00000
