  ==> Input File <==

--------------------------------------------------------------------------
set {
	reference rhf
	basis 6-31G*
}

set_num_threads( 1 )
memory 2 gb

molecule MOL {
0 1

O	 1.267857	 1.218599	 0.434354
C	 1.122059	 0.121804	 -0.000188
C	 -0.170150	 -0.657997	 -0.000612
O	 2.104684	 -0.576042	 -0.555557
C	 -1.412532	 0.227344	 -0.000452
H	 -0.153702	 -1.313099	 -0.867402
H	 -0.153924	 -1.313811	 0.865644
C	 -2.706999	 -0.587347	 -0.000541
H	 -1.388000	 0.879466	 -0.868000
H	 -1.387972	 0.879138	 0.867341
C	 -3.956778	 0.291888	 0.000910
H	 -2.726114	 -1.239230	 -0.871609
H	 -2.725217	 -1.240844	 0.869333
H	 -3.985213	 0.933254	 -0.875158
H	 -4.860123	 -0.309979	 0.000519
H	 -3.984618	 0.931166	 0.878514
C	 3.376511	 0.043283	 -0.619051
H	 3.327858	 0.952407	 -1.200957
H	 4.029264	 -0.671321	 -1.095710
H	 3.736108	 0.275414	 0.373074

	symmetry c1
}
set optking {
	frozen_dihedral = ("
		9 5 8 12,
		9 5 3 6,
		1 2 4 17
	")
}

ee = energy('scf')
oeprop('DIPOLE', 'QUADRUPOLE', 'MULLIKEN_CHARGES')
f=open( 'psi4out.xyz', 'w' )
f.write( "20  " )
f.write( str(ee) + "\n" )
f.write( MOL.save_string_xyz() )
f.close()
--------------------------------------------------------------------------

    Molecular point group: c1

    Geometry (in Angstrom), charge = 0, multiplicity = 1:

       Center              X                  Y                   Z               Mass
    ------------   -----------------  -----------------  -----------------  -----------------
           O          1.279772465437     1.198801028650     0.531846639589    15.994914619560
           C          1.133974465437     0.102006028650     0.097304639589    12.000000000000
           C         -0.158234534563    -0.677794971350     0.096880639589    12.000000000000
           O          2.116599465437    -0.595839971350    -0.458064360411    15.994914619560
           C         -1.400616534563     0.207546028650     0.097040639589    12.000000000000
           H         -0.141786534563    -1.332896971350    -0.769909360411     1.007825032070
           H         -0.142008534563    -1.333608971350     0.963136639589     1.007825032070
           C         -2.695083534563    -0.607144971350     0.096951639589    12.000000000000
           H         -1.376084534563     0.859668028650    -0.770507360411     1.007825032070
           H         -1.376056534563     0.859340028650     0.964833639589     1.007825032070
           C         -3.944862534563     0.272090028650     0.098402639589    12.000000000000
           H         -2.714198534563    -1.259027971350    -0.774116360411     1.007825032070
           H         -2.713301534563    -1.260641971350     0.966825639589     1.007825032070
           H         -3.973297534563     0.913456028650    -0.777665360411     1.007825032070
           H         -4.848207534563    -0.329776971350     0.098011639589     1.007825032070
           H         -3.972702534563     0.911368028650     0.976006639589     1.007825032070
           C          3.388426465437     0.023485028650    -0.521558360411    12.000000000000
           H          3.339773465437     0.932609028650    -1.103464360411     1.007825032070
           H          4.041179465437    -0.691118971350    -0.998217360411     1.007825032070
           H          3.748023465437     0.255616028650     0.470566639589     1.007825032070

  Charge       = 0
  Multiplicity = 1
  Basis Set: 6-31G*
  Basis Set:

    Orbital Energies (a.u.)
    -----------------------

    Doubly Occupied:

       1A    -20.604512     2A    -20.544802     3A    -11.372291
       4A    -11.280829     5A    -11.235042     6A    -11.221456
       7A    -11.220793     8A    -11.211271     9A     -1.469534
      10A     -1.362682    11A     -1.089443    12A     -1.024632
      13A     -0.969250    14A     -0.886453    15A     -0.804715
      16A     -0.768847    17A     -0.696103    18A     -0.683084
      19A     -0.672039    20A     -0.646250    21A     -0.598021
      22A     -0.592187    23A     -0.577576    24A     -0.544006
      25A     -0.535610    26A     -0.523305    27A     -0.500590
      28A     -0.478907    29A     -0.475577    30A     -0.470195
      31A     -0.455998    32A     -0.435499

  @DF-RHF Final Energy:  -383.94091167053568

   => Energetics <=

    Nuclear Repulsion Energy =            381.1120099113885544
    One-Electron Energy =               -1278.2030785858455602
    Two-Electron Energy =                 513.1501570039207536
    DFT Exchange-Correlation Energy =       0.0000000000000000
    Empirical Dispersion Energy =           0.0000000000000000
    PCM Polarization Energy =               0.0000000000000000
    EFP Energy =                            0.0000000000000000
    Total Energy =                       -383.9409116705362521

  Mulliken Charges: (a.u.)
   Center  Symbol    Alpha    Beta     Spin     Total
       1     O     4.28603  4.28603  0.00000 -0.57206
       2     C     2.60430  2.60430  0.00000  0.79140
       3     C     3.20965  3.20965  0.00000 -0.41931
       4     O     4.30647  4.30647  0.00000 -0.61293
       5     C     3.15386  3.15386  0.00000 -0.30772
       6     H     0.40101  0.40101  0.00000  0.19798
       7     H     0.39971  0.39971  0.00000  0.20058
       8     C     3.15402  3.15402  0.00000 -0.30804
       9     H     0.41609  0.41609  0.00000  0.16782
      10     H     0.40693  0.40693  0.00000  0.18614
      11     C     3.23953  3.23953  0.00000 -0.47905
      12     H     0.42257  0.42257  0.00000  0.15485
      13     H     0.42226  0.42226  0.00000  0.15548
      14     H     0.42036  0.42036  0.00000  0.15927
      15     H     0.41852  0.41852  0.00000  0.16297
      16     H     0.41948  0.41948  0.00000  0.16103
      17     C     3.09297  3.09297  0.00000 -0.18593
      18     H     0.40883  0.40883  0.00000  0.18235
      19     H     0.40839  0.40839  0.00000  0.18322
      20     H     0.40903  0.40903  0.00000  0.18195

   Total alpha = 32.00000, Total beta = 32.00000, Total charge =  0.00000
