  ==> Input File <==

--------------------------------------------------------------------------
set {
	reference rhf
	basis 6-31G*
}

set_num_threads( 1 )
memory 2 gb

molecule MOL {
0 1

O	 -2.821601	 1.309235	 -0.001213
C	 -2.668563	 0.129746	 -0.000350
C	 -3.801572	 -0.864014	 -0.000442
O	 -1.481751	 -0.454642	 0.000584
H	 -4.417280	 -0.689587	 -0.874708
H	 -3.443784	 -1.883046	 -0.000565
H	 -4.417179	 -0.689832	 0.873954
C	 -0.334255	 0.388708	 0.000906
C	 0.891947	 -0.504646	 0.000751
H	 -0.365390	 1.025305	 -0.873475
H	 -0.365484	 1.024911	 0.875569
C	 2.191998	 0.301789	 0.000897
H	 0.855148	 -1.151283	 -0.871571
H	 0.855132	 -1.151660	 0.872805
C	 3.441114	 -0.581407	 0.000108
H	 2.215074	 0.954890	 -0.869742
H	 2.215465	 0.953923	 0.872248
C	 3.254246	 -1.875906	 -0.789968
H	 3.712983	 -0.820043	 1.025884
H	 4.276392	 -0.021921	 -0.415050
H	 2.446743	 -2.474094	 -0.377508
H	 4.155769	 -2.480198	 -0.771962
H	 3.014730	 -1.669992	 -1.829314

	symmetry c1
}
set optking {
	frozen_dihedral = ("
		13 9 8 10,
		2 4 8 10,
		16 12 9 13,
		1 2 4 8
	")
}

ee = energy('scf')
oeprop('DIPOLE', 'QUADRUPOLE', 'MULLIKEN_CHARGES')
f=open( 'psi4out.xyz', 'w' )
f.write( "23  " )
f.write( str(ee) + "\n" )
f.write( MOL.save_string_xyz() )
f.close()
--------------------------------------------------------------------------

    Molecular point group: c1

    Geometry (in Angstrom), charge = 0, multiplicity = 1:

       Center              X                  Y                   Z               Mass
    ------------   -----------------  -----------------  -----------------  -----------------
           O         -2.650113471152     1.551689949465     0.089864803633    15.994914619560
           C         -2.497075471152     0.372200949465     0.090727803633    12.000000000000
           C         -3.630084471152    -0.621559050535     0.090635803633    12.000000000000
           O         -1.310263471152    -0.212187050535     0.091661803633    15.994914619560
           H         -4.245792471152    -0.447132050535    -0.783630196367     1.007825032070
           H         -3.272296471152    -1.640591050535     0.090512803633     1.007825032070
           H         -4.245691471152    -0.447377050535     0.965031803633     1.007825032070
           C         -0.162767471152     0.631162949465     0.091983803633    12.000000000000
           C          1.063434528848    -0.262191050535     0.091828803633    12.000000000000
           H         -0.193902471152     1.267759949465    -0.782397196367     1.007825032070
           H         -0.193996471152     1.267365949465     0.966646803633     1.007825032070
           C          2.363485528848     0.544243949465     0.091974803633    12.000000000000
           H          1.026635528848    -0.908828050535    -0.780493196367     1.007825032070
           H          1.026619528848    -0.909205050535     0.963882803633     1.007825032070
           C          3.612601528848    -0.338952050535     0.091185803633    12.000000000000
           H          2.386561528848     1.197344949465    -0.778664196367     1.007825032070
           H          2.386952528848     1.196377949465     0.963325803633     1.007825032070
           C          3.425733528848    -1.633451050535    -0.698890196367    12.000000000000
           H          3.884470528848    -0.577588050535     1.116961803633     1.007825032070
           H          4.447879528848     0.220533949465    -0.323972196367     1.007825032070
           H          2.618230528848    -2.231639050535    -0.286430196367     1.007825032070
           H          4.327256528848    -2.237743050535    -0.680884196367     1.007825032070
           H          3.186217528848    -1.427537050535    -1.738236196367     1.007825032070

  Charge       = 0
  Multiplicity = 1
  Basis Set: 6-31G*
  Basis Set:

    Orbital Energies (a.u.)
    -----------------------

    Doubly Occupied:

       1A    -20.602692     2A    -20.540301     3A    -11.373879
       4A    -11.280791     5A    -11.232290     6A    -11.223582
       7A    -11.222852     8A    -11.221123     9A    -11.212204
      10A     -1.467684    11A     -1.360482    12A     -1.096840
      13A     -1.040652    14A     -0.999975    15A     -0.930277
      16A     -0.860110    17A     -0.788347    18A     -0.769063
      19A     -0.691466    20A     -0.684729    21A     -0.670735
      22A     -0.642317    23A     -0.614392    24A     -0.601557
      25A     -0.573875    26A     -0.567784    27A     -0.551281
      28A     -0.537273    29A     -0.527193    30A     -0.504734
      31A     -0.497498    32A     -0.471034    33A     -0.468929
      34A     -0.461330    35A     -0.450926    36A     -0.435144

  @DF-RHF Final Energy:  -422.97239834373795

   => Energetics <=

    Nuclear Repulsion Energy =            457.4820550077578218
    One-Electron Energy =               -1482.5582220179162505
    Two-Electron Energy =                 602.1037686664210469
    DFT Exchange-Correlation Energy =       0.0000000000000000
    Empirical Dispersion Energy =           0.0000000000000000
    PCM Polarization Energy =               0.0000000000000000
    EFP Energy =                            0.0000000000000000
    Total Energy =                       -422.9723983437372681

  Mulliken Charges: (a.u.)
   Center  Symbol    Alpha    Beta     Spin     Total
       1     O     4.28396  4.28396  0.00000 -0.56792
       2     C     2.61523  2.61523  0.00000  0.76954
       3     C     3.28770  3.28770  0.00000 -0.57541
       4     O     4.31287  4.31287  0.00000 -0.62573
       5     H     0.39753  0.39753  0.00000  0.20495
       6     H     0.39996  0.39996  0.00000  0.20008
       7     H     0.39753  0.39753  0.00000  0.20494
       8     C     2.99399  2.99399  0.00000  0.01202
       9     C     3.17247  3.17247  0.00000 -0.34495
      10     H     0.41086  0.41086  0.00000  0.17828
      11     H     0.41104  0.41104  0.00000  0.17793
      12     C     3.16161  3.16161  0.00000 -0.32321
      13     H     0.40951  0.40951  0.00000  0.18098
      14     H     0.41438  0.41438  0.00000  0.17125
      15     C     3.15165  3.15165  0.00000 -0.30329
      16     H     0.42018  0.42018  0.00000  0.15963
      17     H     0.41823  0.41823  0.00000  0.16354
      18     C     3.24786  3.24786  0.00000 -0.49571
      19     H     0.42051  0.42051  0.00000  0.15897
      20     H     0.41832  0.41832  0.00000  0.16336
      21     H     0.41644  0.41644  0.00000  0.16712
      22     H     0.41712  0.41712  0.00000  0.16577
      23     H     0.42106  0.42106  0.00000  0.15788

   Total alpha = 36.00000, Total beta = 36.00000, Total charge =  0.00000
