  ==> Input File <==

--------------------------------------------------------------------------
set {
	reference rhf
	basis 6-31G*
}

set_num_threads( 4 )
memory 2 gb

molecule MOL {
0 1

H	 2.460008	 2.112165	 0.842945
O	 3.257691	 1.810287	 0.433503
C	 3.493229	 0.470714	 0.785812
C	 2.547801	 -0.507192	 0.096906
H	 4.513349	 0.263367	 0.489099
H	 3.439377	 0.345843	 1.866685
C	 1.077958	 -0.330434	 0.485733
H	 2.657124	 -0.392985	 -0.978441
H	 2.867832	 -1.518388	 0.342733
C	 0.162022	 -1.361042	 -0.180395
H	 0.754869	 0.670869	 0.214859
H	 0.977657	 -0.410340	 1.568274
C	 -1.309753	 -1.282496	 0.241564
H	 0.232437	 -1.256688	 -1.261597
H	 0.534209	 -2.356511	 0.052456
C	 -2.037799	 -0.007733	 -0.193645
H	 -1.831696	 -2.140116	 -0.177816
H	 -1.379526	 -1.386345	 1.323315
C	 -3.489788	 0.042957	 0.286558
H	 -2.017067	 0.064384	 -1.280144
H	 -1.513726	 0.868678	 0.179924
C	 -4.216917	 1.317354	 -0.141063
H	 -4.025645	 -0.823308	 -0.095450
H	 -3.513059	 -0.038752	 1.371301
H	 -4.239342	 1.411634	 -1.223113
H	 -5.243387	 1.322503	 0.212445
H	 -3.726170	 2.201406	 0.256408

	symmetry c1
}
set optking {
	frozen_dihedral = ("
		10 13 16 20
	")
}

ee = optimize('scf')
oeprop('DIPOLE', 'QUADRUPOLE', 'MULLIKEN_CHARGES')
f=open( 'psi4out.xyz', 'w' )
f.write( "27  " )
f.write( str(ee) + "\n" )
f.write( MOL.save_string_xyz() )
f.close()
--------------------------------------------------------------------------

    Molecular point group: c1
  Charge       = 0
  Multiplicity = 1
  Basis Set: 6-31G*
  Basis Set:
  @DF-RHF Final Energy:  -388.28161909836660
    Total Energy =                       -388.2816190983668321
    Molecular point group: c1
  Basis Set: 6-31G*
  Basis Set:
  Basis Set: 6-31G*
  Basis Set:
  @DF-RHF Final Energy:  -388.28144696835915
    Total Energy =                       -388.2814469683594325
  Basis Set: 6-31G*
  Basis Set:
  Basis Set: 6-31G*
  Basis Set:
  @DF-RHF Final Energy:  -388.28164215189599
    Total Energy =                       -388.2816421518959942
  Basis Set: 6-31G*
  Basis Set:
  Basis Set: 6-31G*
  Basis Set:
  @DF-RHF Final Energy:  -388.28164948552586
    Total Energy =                       -388.2816494855255769
  Basis Set: 6-31G*
  Basis Set:
  Basis Set: 6-31G*
  Basis Set:
  @DF-RHF Final Energy:  -388.28165053830827
    Total Energy =                       -388.2816505383082131
  Basis Set: 6-31G*
  Basis Set:
  Basis Set: 6-31G*
  Basis Set:
  @DF-RHF Final Energy:  -388.28165252593192
    Total Energy =                       -388.2816525259313494
  Basis Set: 6-31G*
  Basis Set:
  Charge       = 0
  Multiplicity = 1
  Basis Set: 6-31G*
  Basis Set:

    Orbital Energies (a.u.)
    -----------------------

    Doubly Occupied:

       1A    -20.552369     2A    -11.267109     3A    -11.219884
       4A    -11.217343     5A    -11.216081     6A    -11.215747
       7A    -11.215272     8A    -11.214271     9A    -11.209388
      10A     -1.359122    11A     -1.095182    12A     -1.061635
      13A     -1.011516    14A     -0.948645    15A     -0.887944
      16A     -0.819976    17A     -0.801051    18A     -0.778926
      19A     -0.693820    20A     -0.650744    21A     -0.640189
      22A     -0.614337    23A     -0.599851    24A     -0.582595
      25A     -0.580568    26A     -0.552504    27A     -0.542128
      28A     -0.530879    29A     -0.505241    30A     -0.493525
      31A     -0.485638    32A     -0.474806    33A     -0.468777
      34A     -0.461402    35A     -0.452033    36A     -0.441654
      37A     -0.423082

  @DF-RHF Final Energy:  -388.28165250085698

   => Energetics <=

    Nuclear Repulsion Energy =            459.7222339157961528
    One-Electron Energy =               -1437.4372991011605336
    Two-Electron Energy =                 589.4334126845071751
    DFT Exchange-Correlation Energy =       0.0000000000000000
    Empirical Dispersion Energy =           0.0000000000000000
    PCM Polarization Energy =               0.0000000000000000
    EFP Energy =                            0.0000000000000000
    Total Energy =                       -388.2816525008572626
    Molecular point group: c1
  Basis Set: 6-31G*
  Basis Set:

  -Total Gradient:
     Atom            X                  Y                   Z
    ------   -----------------  -----------------  -----------------
       1       -0.000007582399     0.000001619170    -0.000001036280
       2       -0.000010180997    -0.000000240607     0.000007254426
       3        0.000012581162    -0.000000709090    -0.000027042762
       4        0.000005498348     0.000003071348     0.000013964323
       5        0.000002201102    -0.000000714351    -0.000000880073
       6       -0.000002288051    -0.000002791090    -0.000002504796
       7        0.000009003606    -0.000004031879    -0.000000220175
       8        0.000008276487    -0.000002081016     0.000001031025
       9       -0.000000060545     0.000002060921     0.000006305901
      10        0.000202095771     0.000342038226     0.000631905680
      11        0.000000001699     0.000009234114     0.000008413550
      12        0.000002787892    -0.000006109381    -0.000000624325
      13       -0.000499097424    -0.000602999070    -0.000923843700
      14        0.000000959681     0.000000614449     0.000004793687
      15       -0.000006605952    -0.000003094824    -0.000000083853
      16        0.001139480460     0.000784235145     0.000344062971
      17       -0.000008819371    -0.000012342973     0.000006378209
      18        0.000006140355     0.000014542734    -0.000011795278
      19       -0.000009925533    -0.000017290155    -0.000032549516
      20       -0.000853866100    -0.000522662258    -0.000023289841
      21        0.000004869002     0.000014715221    -0.000003587648
      22        0.000004678615     0.000007889980     0.000012492692
      23       -0.000006162999    -0.000003511062    -0.000003174908
      24        0.000005524275    -0.000002690510    -0.000007926486
      25       -0.000003839653    -0.000005460127     0.000001621208
      26        0.000001893210     0.000003210395     0.000005495318
      27        0.000002437361     0.000003496686    -0.000005159349

  **** Optimization is complete! (in 7 steps) ****
    Final optimized geometry and variables:
    Molecular point group: c1

    Geometry (in Angstrom), charge = 0, multiplicity = 1:

    H            2.498819384230     2.033291970370     0.686943238531
    O            3.288560668523     1.740620676196     0.255978847016
    C            3.526864862134     0.391941915428     0.569483193648
    C            2.568454928586    -0.565966303672    -0.129481335762
    H            4.541624704979     0.190787976550     0.250992133357
    H            3.490185202341     0.238992400001     1.647456560396
    C            1.105075357228    -0.394804609208     0.285404437522
    H            2.662214384159    -0.425326526605    -1.203143500456
    H            2.889008794548    -1.583808686275     0.086372490025
    C            0.176466954469    -1.406380679475    -0.392412598010
    H            0.782087080172     0.614214443018     0.045135931203
    H            1.020519526546    -0.502065481725     1.366873766116
    C           -1.291569424770    -1.325201668964     0.043151505682
    H            0.240209578406    -1.284187332680    -1.472249726685
    H            0.543934940881    -2.408022083865    -0.179511462060
    C           -2.028229631208    -0.059805281370    -0.404589774676
    H           -1.818604543472    -2.190593317453    -0.352747997668
    H           -1.345751923009    -1.409372813501     1.127614311143
    C           -3.479314971631    -0.014169710738     0.079982085466
    H           -2.017457961172    -0.007130077584    -1.492232167945
    H           -1.510081516835     0.826403738665    -0.047192763265
    C           -4.224415621321     1.238125792554    -0.380738984786
    H           -4.005514857326    -0.897785589904    -0.275010049619
    H           -3.497560508587    -0.065165754823     1.166639807942
    H           -4.255492254795     1.299341481037    -1.464919928415
    H           -5.248387261470     1.242133879969    -0.020050283956
    H           -3.741351286010     2.139466844627    -0.013794903448

  Mulliken Charges: (a.u.)
   Center  Symbol    Alpha    Beta     Spin     Total
       1     H     0.27990  0.27990  0.00000  0.44020
       2     O     4.37091  4.37091  0.00000 -0.74183
       3     C     2.99742  2.99742  0.00000  0.00516
       4     C     3.16089  3.16089  0.00000 -0.32178
       5     H     0.41442  0.41442  0.00000  0.17117
       6     H     0.43203  0.43203  0.00000  0.13594
       7     C     3.16314  3.16314  0.00000 -0.32629
       8     H     0.41493  0.41493  0.00000  0.17014
       9     H     0.42431  0.42431  0.00000  0.15137
      10     C     3.15216  3.15216  0.00000 -0.30432
      11     H     0.42312  0.42312  0.00000  0.15377
      12     H     0.42539  0.42539  0.00000  0.14922
      13     C     3.15373  3.15373  0.00000 -0.30746
      14     H     0.42164  0.42164  0.00000  0.15673
      15     H     0.42143  0.42143  0.00000  0.15715
      16     C     3.15221  3.15221  0.00000 -0.30442
      17     H     0.42094  0.42094  0.00000  0.15812
      18     H     0.42460  0.42460  0.00000  0.15080
      19     C     3.15131  3.15131  0.00000 -0.30262
      20     H     0.42344  0.42344  0.00000  0.15312
      21     H     0.42365  0.42365  0.00000  0.15269
      22     C     3.23912  3.23912  0.00000 -0.47825
      23     H     0.42293  0.42293  0.00000  0.15413
      24     H     0.42341  0.42341  0.00000  0.15317
      25     H     0.42143  0.42143  0.00000  0.15713
      26     H     0.41923  0.41923  0.00000  0.16153
      27     H     0.42229  0.42229  0.00000  0.15542

   Total alpha = 37.00000, Total beta = 37.00000, Total charge = -0.00000
