                              Psi4 1.0.54 Driver

  ==> Input File <==

--------------------------------------------------------------------------
set {
	reference rhf
	basis cc-pvtz
}

set_num_threads( 4 )
memory 2 gb

molecule MOL {
0 1

H	 -3.278609	 0.101187	 0.812980
O	 -2.486021	 -0.412680	 0.851241
C	 -1.605397	 0.107680	 0.001145
C	 -0.310616	 -0.658853	 0.000791
O	 -1.853140	 1.057255	 -0.658325
C	 0.926581	 0.227233	 0.000178
H	 -0.327628	 -1.313681	 -0.864448
H	 -0.327041	 -1.313334	 0.866298
C	 2.220156	 -0.582071	 -0.000088
H	 0.899945	 0.878221	 -0.866390
H	 0.900542	 0.878581	 0.866486
C	 3.466689	 0.296012	 -0.000457
H	 2.239073	 -1.234095	 -0.869382
H	 2.239505	 -1.233985	 0.869270
H	 3.493549	 0.935857	 -0.875887
H	 4.368821	 -0.304526	 -0.001199
H	 3.494559	 0.935166	 0.875458

	symmetry c1
}
set optking {
	frozen_dihedral = ("
		2 3 4 7
	")
}

ee,wfn = optimize('scf', return_wfn=True)
oeprop( wfn, 'DIPOLE', 'QUADRUPOLE', 'MULLIKEN_CHARGES')
f=open( 'psi4out.xyz', 'w' )
f.write( "17  " )
f.write( str(ee) + "\n" )
f.write( MOL.save_string_xyz() )
f.close()
--------------------------------------------------------------------------

    Molecular point group: c1
  Charge       = 0
  Multiplicity = 1
  Basis Set: CC-PVTZ
  Basis Set:
  @DF-RHF Final Energy:  -345.04723312822034
    Total Energy =                       -345.0472331282205687
    Molecular point group: c1
  Basis Set: CC-PVTZ
  Basis Set:
  Basis Set: CC-PVTZ
  Basis Set:
  @DF-RHF Final Energy:  -345.04766218115168
    Total Energy =                       -345.0476621811521341
  Basis Set: CC-PVTZ
  Basis Set:
  Basis Set: CC-PVTZ
  Basis Set:
  @DF-RHF Final Energy:  -345.04721083735103
    Total Energy =                       -345.0472108373508604
  Basis Set: CC-PVTZ
  Basis Set:
  Basis Set: CC-PVTZ
  Basis Set:
  @DF-RHF Final Energy:  -345.04773986243850
    Total Energy =                       -345.0477398624385046
  Basis Set: CC-PVTZ
  Basis Set:
  Basis Set: CC-PVTZ
  Basis Set:
  @DF-RHF Final Energy:  -345.04774252333721
    Total Energy =                       -345.0477425233369786
  Basis Set: CC-PVTZ
  Basis Set:
  Charge       = 0
  Multiplicity = 1
  Basis Set: CC-PVTZ
  Basis Set:

    Orbital Energies (a.u.)
    -----------------------

    Doubly Occupied:

       1A    -20.605983     2A    -20.538618     3A    -11.373716
       4A    -11.238600     5A    -11.224442     6A    -11.221892
       7A    -11.211635     8A     -1.478253     9A     -1.368606
      10A     -1.093550    11A     -1.019643    12A     -0.913987
      13A     -0.825785    14A     -0.795917    15A     -0.705650
      16A     -0.687816    17A     -0.663859    18A     -0.635146
      19A     -0.593421    20A     -0.584134    21A     -0.579279
      22A     -0.538380    23A     -0.512456    24A     -0.488538
      25A     -0.481514    26A     -0.477273    27A     -0.473166
      28A     -0.443629

  @DF-RHF Final Energy:  -345.04774261923455

   => Energetics <=

    Nuclear Repulsion Energy =            304.8026836195830356
    One-Electron Energy =               -1074.1510773758700452
    Two-Electron Energy =                 424.3006511370522276
    DFT Exchange-Correlation Energy =       0.0000000000000000
    Empirical Dispersion Energy =           0.0000000000000000
    PCM Polarization Energy =               0.0000000000000000
    EFP Energy =                            0.0000000000000000
    Total Energy =                       -345.0477426192347821
    Molecular point group: c1
  Basis Set: CC-PVTZ
  Basis Set:

  -Total Gradient:
     Atom            X                  Y                   Z
    ------   -----------------  -----------------  -----------------
       1        0.000006059658    -0.000005733519     0.000004462040
       2        0.000249854651     0.000462448999     0.000632935119
       3       -0.000231764096    -0.000493856288    -0.000950907032
       4       -0.000461269037    -0.000672577353     0.000834281837
       5        0.000000712806     0.000005825018    -0.000006308450
       6       -0.000000416176     0.000014924060     0.000012274103
       7        0.000442961440     0.000689356733    -0.000511223596
       8       -0.000006715711     0.000004704408    -0.000003814310
       9        0.000000606841    -0.000004674124    -0.000013965391
      10        0.000007540059    -0.000002103578     0.000004106249
      11       -0.000004494213     0.000001112231     0.000000511532
      12       -0.000002782174     0.000000972800    -0.000000682037
      13        0.000003210695    -0.000006858143    -0.000000276354
      14       -0.000003408155     0.000006313618    -0.000001817952
      15        0.000001039300    -0.000000573584     0.000001000481
      16       -0.000000953179     0.000000712073     0.000000580959
      17       -0.000000182700     0.000000006652    -0.000001157198

  **** Optimization is complete! (in 6 steps) ****
    Final optimized geometry and variables:
    Molecular point group: c1

    Geometry (in Angstrom), charge = 0, multiplicity = 1:

    H           -3.329492126519     0.124599973124     0.660556279812
    O           -2.547139211803    -0.396708867564     0.763793413540
    C           -1.606984103407     0.097681290086    -0.034083043692
    C           -0.323948698616    -0.690213898706     0.018497008322
    O           -1.794677230217     1.048966220485    -0.711973504397
    C            0.915013473438     0.201983142408    -0.007923127784
    H           -0.329169924859    -1.332324936714    -0.857664418694
    H           -0.334000711910    -1.331087649693     0.888955757565
    C            2.210375592378    -0.603426918524    -0.032470534050
    H            0.864318438206     0.850053378077    -0.873831434449
    H            0.908257822491     0.850532538848     0.863395177233
    C            3.454113819998     0.278433122879    -0.050355981552
    H            2.214343268853    -1.249783147851    -0.905993023444
    H            2.246421336836    -1.259761530252     0.832759708588
    H            3.462975198544     0.923431520979    -0.922264823563
    H            4.357508649580    -0.319769176975    -0.071205344649
    H            3.496888150358     0.912162542816     0.828993268643

  Mulliken Charges: (a.u.)
   Center  Symbol    Alpha    Beta     Spin     Total
       1     H     0.38093  0.38093  0.00000  0.23814
       2     O     4.15764  4.15764  0.00000 -0.31528
       3     C     2.80990  2.80990  0.00000  0.38019
       4     C     3.09638  3.09638  0.00000 -0.19275
       5     O     4.19608  4.19608  0.00000 -0.39217
       6     C     3.09004  3.09004  0.00000 -0.18009
       7     H     0.44345  0.44345  0.00000  0.11311
       8     H     0.43660  0.43660  0.00000  0.12680
       9     C     3.08660  3.08660  0.00000 -0.17320
      10     H     0.43915  0.43915  0.00000  0.12171
      11     H     0.45103  0.45103  0.00000  0.09794
      12     C     3.14910  3.14910  0.00000 -0.29820
      13     H     0.45365  0.45365  0.00000  0.09270
      14     H     0.45436  0.45436  0.00000  0.09127
      15     H     0.45303  0.45303  0.00000  0.09394
      16     H     0.44784  0.44784  0.00000  0.10432
      17     H     0.45422  0.45422  0.00000  0.09156

   Total alpha = 28.00000, Total beta = 28.00000, Total charge = -0.00000

*** Psi4 exiting successfully. Buy a developer a beer!
