                              Psi4 1.0.54 Driver

  ==> Input File <==

--------------------------------------------------------------------------
set {
	reference rhf
	basis cc-pvtz
}

set_num_threads( 4 )
memory 2 gb

molecule MOL {
0 1

H	 -3.436473	 1.252944	 -1.023892
O	 -3.458596	 0.315260	 -0.960865
C	 -3.176635	 -0.080824	 0.355601
C	 -1.763371	 0.265266	 0.799691
H	 -3.321825	 -1.153438	 0.379502
H	 -3.895468	 0.357385	 1.043382
C	 -0.673390	 -0.426948	 -0.013392
H	 -1.631049	 1.344913	 0.747560
H	 -1.664587	 -0.001624	 1.849167
C	 -0.957093	 -0.436894	 -1.513187
H	 -0.554821	 -1.444799	 0.341338
H	 0.275232	 0.071890	 0.170410
C	 0.140008	 -1.126682	 -2.321648
H	 -1.910175	 -0.926745	 -1.688029
H	 -1.070589	 0.586069	 -1.866064
C	 -0.059064	 -1.091762	 -3.837893
H	 0.228437	 -2.160739	 -1.996445
H	 1.090734	 -0.654949	 -2.088822
C	 -1.260891	 -1.886884	 -4.342408
H	 0.837603	 -1.480957	 -4.310430
H	 -0.148225	 -0.058745	 -4.164002
H	 -1.202066	 -2.923516	 -4.026165
H	 -1.302296	 -1.875079	 -5.425639
H	 -2.197322	 -1.482616	 -3.977347

	symmetry c1
}
set optking {
	frozen_dihedral = ("
		11 7 4 3
	")
}

ee,wfn = optimize('scf', return_wfn=True)
oeprop( wfn, 'DIPOLE', 'QUADRUPOLE', 'MULLIKEN_CHARGES')
f=open( 'psi4out.xyz', 'w' )
f.write( "24  " )
f.write( str(ee) + "\n" )
f.write( MOL.save_string_xyz() )
f.close()
--------------------------------------------------------------------------

    Molecular point group: c1
  Charge       = 0
  Multiplicity = 1
  Basis Set: CC-PVTZ
  Basis Set:
  @DF-RHF Final Energy:  -349.36814437138975
    Total Energy =                       -349.3681443713896897
    Molecular point group: c1
  Basis Set: CC-PVTZ
  Basis Set:
  Basis Set: CC-PVTZ
  Basis Set:
  @DF-RHF Final Energy:  -349.37412793835011
    Total Energy =                       -349.3741279383502842
  Basis Set: CC-PVTZ
  Basis Set:
  Basis Set: CC-PVTZ
  Basis Set:
  @DF-RHF Final Energy:  -349.37529211837489
    Total Energy =                       -349.3752921183751141
  Basis Set: CC-PVTZ
  Basis Set:
  Basis Set: CC-PVTZ
  Basis Set:
  @DF-RHF Final Energy:  -349.37548118692263
    Total Energy =                       -349.3754811869226842
  Basis Set: CC-PVTZ
  Basis Set:
  Basis Set: CC-PVTZ
  Basis Set:
  @DF-RHF Final Energy:  -349.37553483469037
    Total Energy =                       -349.3755348346904839
  Basis Set: CC-PVTZ
  Basis Set:
  Basis Set: CC-PVTZ
  Basis Set:
  @DF-RHF Final Energy:  -349.37553879373161
    Total Energy =                       -349.3755387937310388
  Basis Set: CC-PVTZ
  Basis Set:
  Basis Set: CC-PVTZ
  Basis Set:
  @DF-RHF Final Energy:  -349.37554469577657
    Total Energy =                       -349.3755446957767390
  Basis Set: CC-PVTZ
  Basis Set:
  Charge       = 0
  Multiplicity = 1
  Basis Set: CC-PVTZ
  Basis Set:

    Orbital Energies (a.u.)
    -----------------------

    Doubly Occupied:

       1A    -20.546466     2A    -11.266464     3A    -11.217075
       4A    -11.211751     5A    -11.208097     6A    -11.205665
       7A    -11.202535     8A    -11.200260     9A     -1.365056
      10A     -1.085675    11A     -1.045960    12A     -0.983078
      13A     -0.914004    14A     -0.858016    15A     -0.794385
      16A     -0.771586    17A     -0.683788    18A     -0.649049
      19A     -0.628374    20A     -0.610577    21A     -0.601265
      22A     -0.581283    23A     -0.551805    24A     -0.541201
      25A     -0.520189    26A     -0.504430    27A     -0.500082
      28A     -0.483807    29A     -0.465784    30A     -0.455277
      31A     -0.451548    32A     -0.435922    33A     -0.421030

  @DF-RHF Final Energy:  -349.37554434034479

   => Energetics <=

    Nuclear Repulsion Energy =            396.0330067844008113
    One-Electron Energy =               -1258.8941270151362914
    Two-Electron Energy =                 513.4855758903904643
    DFT Exchange-Correlation Energy =       0.0000000000000000
    Empirical Dispersion Energy =           0.0000000000000000
    PCM Polarization Energy =               0.0000000000000000
    EFP Energy =                            0.0000000000000000
    Total Energy =                       -349.3755443403449590
    Molecular point group: c1
  Basis Set: CC-PVTZ
  Basis Set:

  -Total Gradient:
     Atom            X                  Y                   Z
    ------   -----------------  -----------------  -----------------
       1       -0.000005923617     0.000003206625    -0.000033163522
       2       -0.000075789334     0.000119346905     0.000048275433
       3       -0.000324537790     0.002373612608    -0.002356842405
       4        0.001217912233    -0.003266554306     0.004032053978
       5        0.000030179412     0.000004179970     0.000059627921
       6       -0.000007318635     0.000025988377    -0.000049573223
       7       -0.004188539689    -0.000873899576    -0.004176465301
       8       -0.000000727553    -0.000019156874     0.000000922675
       9        0.000001378553     0.000008741155    -0.000006546182
      10       -0.000083229487    -0.000008191231    -0.000036664901
      11        0.003365112214     0.001712712644     0.002498737624
      12       -0.000029480368    -0.000020276377     0.000002098780
      13       -0.000028409304    -0.000001442712     0.000034675978
      14        0.000092265732     0.000028679806     0.000019492982
      15        0.000045955816    -0.000066429459     0.000020959656
      16       -0.000041636142     0.000037958349     0.000017211527
      17       -0.000016474138    -0.000010873602     0.000011646392
      18        0.000030749317    -0.000026491029    -0.000006325780
      19       -0.000007272882    -0.000023876647    -0.000040608753
      20        0.000023621651     0.000013221958    -0.000009745226
      21       -0.000025256654     0.000011161619    -0.000000638044
      22       -0.000002107912    -0.000006518540     0.000010035505
      23        0.000014038148    -0.000014033870    -0.000001984001
      24        0.000015490425    -0.000001065797    -0.000037181113

  **** Optimization is complete! (in 8 steps) ****
    Final optimized geometry and variables:
    Molecular point group: c1

    Geometry (in Angstrom), charge = 0, multiplicity = 1:

    H           -2.234890622475     1.976075725410     0.895606375205
    O           -2.248021921516     1.037188839541     0.855077768302
    C           -1.682739408651     0.503392870560     2.022439978508
    C           -0.215205638510     0.865349704951     2.224923794206
    H           -1.803854442991    -0.570440248976     1.949370617205
    H           -2.251327127936     0.828743797556     2.889956315388
    C            0.809204758155     0.156316536434     1.328731083177
    H           -0.122054734612     1.942955667098     2.097704569002
    H            0.041466817631     0.665890024280     3.260985765742
    C            0.491270496261     0.066029808242    -0.161527735048
    H            0.998784431178    -0.836280953378     1.730856800447
    H            1.754429978166     0.681141729155     1.446252196666
    C            1.618902561552    -0.600799123449    -0.947657730084
    H           -0.434295296056    -0.473313418741    -0.308353740343
    H            0.321373184130     1.064142173855    -0.556186186760
    C            1.401792290046    -0.648186945180    -2.461284645155
    H            1.766273730036    -1.613251717127    -0.577306808644
    H            2.546518302475    -0.069720883441    -0.750423811797
    C            0.239059008652    -1.529206585600    -2.912024988411
    H            2.313357891474    -1.009727711729    -2.927800723813
    H            1.252251281805     0.362211513147    -2.832968770147
    H            0.355809732451    -2.544467062154    -2.545981949759
    H            0.187967128521    -1.573715999913    -3.994102857140
    H           -0.713431309134    -1.156541396944    -2.555960078878

  Mulliken Charges: (a.u.)
   Center  Symbol    Alpha    Beta     Spin     Total
       1     H     0.39639  0.39639  0.00000  0.20721
       2     O     4.20242  4.20242  0.00000 -0.40483
       3     C     2.98920  2.98920  0.00000  0.02160
       4     C     3.09980  3.09980  0.00000 -0.19959
       5     H     0.45467  0.45467  0.00000  0.09067
       6     H     0.45484  0.45484  0.00000  0.09033
       7     C     3.10179  3.10179  0.00000 -0.20359
       8     H     0.46005  0.46005  0.00000  0.07990
       9     H     0.44760  0.44760  0.00000  0.10479
      10     C     3.08542  3.08542  0.00000 -0.17084
      11     H     0.45252  0.45252  0.00000  0.09496
      12     H     0.45079  0.45079  0.00000  0.09842
      13     C     3.09611  3.09611  0.00000 -0.19221
      14     H     0.44198  0.44198  0.00000  0.11604
      15     H     0.45744  0.45744  0.00000  0.08512
      16     C     3.08903  3.08903  0.00000 -0.17805
      17     H     0.45573  0.45573  0.00000  0.08854
      18     H     0.45105  0.45105  0.00000  0.09791
      19     C     3.15362  3.15362  0.00000 -0.30725
      20     H     0.44988  0.44988  0.00000  0.10023
      21     H     0.45569  0.45569  0.00000  0.08863
      22     H     0.45613  0.45613  0.00000  0.08775
      23     H     0.44747  0.44747  0.00000  0.10507
      24     H     0.45040  0.45040  0.00000  0.09920

   Total alpha = 33.00000, Total beta = 33.00000, Total charge =  0.00000

*** Psi4 exiting successfully. Buy a developer a beer!
