  ==> Input File <==

--------------------------------------------------------------------------
set {
	reference rhf
	basis 6-31G*
}

set_num_threads( 4 )
memory 2 gb

molecule MOL {
0 1

H	 2.943954	 -1.086172	 -0.593989
N	 3.092854	 -0.246221	 -0.068770
C	 1.865559	 0.531981	 0.018834
H	 3.804058	 0.272610	 -0.548179
C	 0.645745	 -0.382037	 -0.029944
H	 1.841966	 1.207024	 -0.831236
H	 1.815756	 1.155410	 0.915079
C	 -0.679275	 0.379305	 0.025956
H	 0.698998	 -0.976915	 -0.937203
H	 0.693479	 -1.083846	 0.802235
C	 -1.903357	 -0.536963	 -0.023547
H	 -0.726309	 1.082987	 -0.803784
H	 -0.717680	 0.977832	 0.934877
C	 -3.225172	 0.228290	 0.028445
H	 -1.867824	 -1.134999	 -0.931459
H	 -1.860449	 -1.239604	 0.805977
H	 -3.313397	 0.915643	 -0.808262
H	 -4.073500	 -0.448134	 -0.008893
H	 -3.306061	 0.809945	 0.942516

	symmetry c1
}
set optking {
	frozen_dihedral = ("
		1 2 3 6
	")
}

ee = optimize('scf')
oeprop('DIPOLE', 'QUADRUPOLE', 'MULLIKEN_CHARGES')
f=open( 'psi4out.xyz', 'w' )
f.write( "19  " )
f.write( str(ee) + "\n" )
f.write( MOL.save_string_xyz() )
f.close()
--------------------------------------------------------------------------

    Molecular point group: c1
  Charge       = 0
  Multiplicity = 1
  Basis Set: 6-31G*
  Basis Set:
  @DF-RHF Final Energy:  -251.34734540452459
    Total Energy =                       -251.3473454045245603
    Molecular point group: c1
  Basis Set: 6-31G*
  Basis Set:
  Basis Set: 6-31G*
  Basis Set:
  @DF-RHF Final Energy:  -251.34926314522201
    Total Energy =                       -251.3492631452220394
  Basis Set: 6-31G*
  Basis Set:
  Basis Set: 6-31G*
  Basis Set:
  @DF-RHF Final Energy:  -251.34950683030928
    Total Energy =                       -251.3495068303092239
  Basis Set: 6-31G*
  Basis Set:
  Basis Set: 6-31G*
  Basis Set:
  @DF-RHF Final Energy:  -251.34951288793735
    Total Energy =                       -251.3495128879372942
  Basis Set: 6-31G*
  Basis Set:
  Charge       = 0
  Multiplicity = 1
  Basis Set: 6-31G*
  Basis Set:

    Orbital Energies (a.u.)
    -----------------------

    Doubly Occupied:

       1A    -15.529052     2A    -11.238964     3A    -11.215949
       4A    -11.215257     5A    -11.214596     6A    -11.208850
       7A     -1.174024     8A     -1.074968     9A     -0.999936
      10A     -0.901028    11A     -0.816285    12A     -0.792751
      13A     -0.655178    14A     -0.651287    15A     -0.613408
      16A     -0.595219    17A     -0.564434    18A     -0.543993
      19A     -0.539422    20A     -0.497358    21A     -0.486314
      22A     -0.467521    23A     -0.463843    24A     -0.450036
      25A     -0.375237

  @DF-RHF Final Energy:  -251.34951361096395

   => Energetics <=

    Nuclear Repulsion Energy =            245.7705115685112389
    One-Electron Energy =                -825.6702286117989615
    Two-Electron Energy =                 328.5502034323239968
    DFT Exchange-Correlation Energy =       0.0000000000000000
    Empirical Dispersion Energy =           0.0000000000000000
    PCM Polarization Energy =               0.0000000000000000
    EFP Energy =                            0.0000000000000000
    Total Energy =                       -251.3495136109637542
    Molecular point group: c1
  Basis Set: 6-31G*
  Basis Set:

  -Total Gradient:
     Atom            X                  Y                   Z
    ------   -----------------  -----------------  -----------------
       1       -0.001118933387    -0.001632231384     0.002916269850
       2        0.001831720288     0.002698254449    -0.003111001343
       3       -0.002160068211    -0.003432321745    -0.001718052098
       4       -0.000013255150    -0.000004746093     0.000002520037
       5        0.000111247577     0.000056137187    -0.000002672064
       6        0.001417680948     0.002283186478     0.001835662549
       7       -0.000038925682     0.000003511648     0.000034992038
       8       -0.000034373665    -0.000001582034     0.000025811487
       9        0.000029212328     0.000026866450     0.000015736500
      10       -0.000005116402     0.000015617057    -0.000024900507
      11       -0.000023436272     0.000011316315     0.000022167181
      12        0.000010418860    -0.000014235282     0.000008874156
      13        0.000006296353    -0.000005559970     0.000004025580
      14       -0.000010246080    -0.000008372820    -0.000013883990
      15        0.000012253698    -0.000002392514     0.000005585136
      16       -0.000010881444     0.000003364185     0.000008152846
      17       -0.000002576294     0.000004676528    -0.000003085816
      18       -0.000004164208     0.000002943081    -0.000004983918
      19        0.000003146749    -0.000004431538    -0.000001217624

  **** Optimization is complete! (in 5 steps) ****
    Final optimized geometry and variables:
    Molecular point group: c1

    Geometry (in Angstrom), charge = 0, multiplicity = 1:

    H            3.012052726205    -1.088257786961    -0.517530413855
    N            3.101353671817    -0.240242464170     0.006102933096
    C            1.866569341397     0.532869265959    -0.020170986062
    H            3.875367188473     0.274354702614    -0.362298942932
    C            0.645844850473    -0.379224983509    -0.047478974522
    H            1.827986873481     1.233696011200    -0.856205777995
    H            1.830753431944     1.142818277492     0.878926152989
    C           -0.677355169805     0.382891338729     0.033584011389
    H            0.664532153571    -0.973855300733    -0.960346131360
    H            0.720024129002    -1.079162432710     0.781353464037
    C           -1.902681678285    -0.532509709042     0.001225874590
    H           -0.738406285749     1.091809030687    -0.790522860535
    H           -0.696536744148     0.974321309914     0.947105569497
    C           -3.222430979222     0.233877673154     0.081061213633
    H           -1.884839141414    -1.125823609676    -0.910539235018
    H           -1.845165679646    -1.239211154916     0.826164754952
    H           -3.325160279889     0.925750459626    -0.750251159331
    H           -4.071904464533    -0.441637817592     0.055654136067
    H           -3.285893132128     0.810534024273     0.999533312047

  Mulliken Charges: (a.u.)
   Center  Symbol    Alpha    Beta     Spin     Total
       1     H     0.33354  0.33354  0.00000  0.33293
       2     N     3.92985  3.92985  0.00000 -0.85970
       3     C     3.04760  3.04760  0.00000 -0.09519
       4     H     0.33178  0.33178  0.00000  0.33643
       5     C     3.16398  3.16398  0.00000 -0.32796
       6     H     0.43387  0.43387  0.00000  0.13227
       7     H     0.42108  0.42108  0.00000  0.15784
       8     C     3.15378  3.15378  0.00000 -0.30756
       9     H     0.42667  0.42667  0.00000  0.14665
      10     H     0.41400  0.41400  0.00000  0.17199
      11     C     3.15133  3.15133  0.00000 -0.30266
      12     H     0.42378  0.42378  0.00000  0.15245
      13     H     0.42172  0.42172  0.00000  0.15656
      14     C     3.23947  3.23947  0.00000 -0.47893
      15     H     0.42328  0.42328  0.00000  0.15344
      16     H     0.42188  0.42188  0.00000  0.15624
      17     H     0.42194  0.42194  0.00000  0.15612
      18     H     0.41911  0.41911  0.00000  0.16178
      19     H     0.42135  0.42135  0.00000  0.15731

   Total alpha = 25.00000, Total beta = 25.00000, Total charge = -0.00000
