  ==> Input File <==

--------------------------------------------------------------------------
set {
	reference rhf
	basis 6-31G*
}

set_num_threads( 4 )
memory 2 gb

molecule MOL {
0 1

H	 -0.361376	 1.903652	 0.434785
O	 0.055946	 1.300438	 -0.164479
C	 0.004957	 -0.004114	 0.366649
C	 1.201664	 -0.828089	 -0.095740
C	 -1.317755	 -0.601827	 -0.081511
H	 0.013527	 0.048298	 1.454924
H	 1.216388	 -0.895289	 -1.178704
H	 2.135132	 -0.372895	 0.226467
H	 1.166770	 -1.832878	 0.313827
H	 -1.355732	 -0.658248	 -1.164429
H	 -2.141614	 0.017037	 0.254547
H	 -1.447303	 -1.600817	 0.322594

	symmetry c1
}
set optking {
	frozen_dihedral = ("
		1 2 3 4
	")
}

ee = optimize('scf')
oeprop('DIPOLE', 'QUADRUPOLE', 'MULLIKEN_CHARGES')
f=open( 'psi4out.xyz', 'w' )
f.write( "12  " )
f.write( str(ee) + "\n" )
f.write( MOL.save_string_xyz() )
f.close()
--------------------------------------------------------------------------

    Molecular point group: c1
  Charge       = 0
  Multiplicity = 1
  Basis Set: 6-31G*
  Basis Set:
  @DF-RHF Final Energy:  -193.11280652158314
    Total Energy =                       -193.1128065215831668
    Molecular point group: c1
  Basis Set: 6-31G*
  Basis Set:
  Basis Set: 6-31G*
  Basis Set:
  @DF-RHF Final Energy:  -193.11410400753306
    Total Energy =                       -193.1141040075330579
  Basis Set: 6-31G*
  Basis Set:
  Basis Set: 6-31G*
  Basis Set:
  @DF-RHF Final Energy:  -193.11435060344684
    Total Energy =                       -193.1143506034469510
  Basis Set: 6-31G*
  Basis Set:
  Basis Set: 6-31G*
  Basis Set:
  @DF-RHF Final Energy:  -193.11435314700074
    Total Energy =                       -193.1143531470008270
  Basis Set: 6-31G*
  Basis Set:
  Charge       = 0
  Multiplicity = 1
  Basis Set: 6-31G*
  Basis Set:

    Orbital Energies (a.u.)
    -----------------------

    Doubly Occupied:

       1A    -20.550328     2A    -11.275962     3A    -11.208557
       4A    -11.206187     5A     -1.359214     6A     -1.040903
       7A     -0.936882     8A     -0.798985     9A     -0.708027
      10A     -0.613685    11A     -0.600213    12A     -0.551139
      13A     -0.538112    14A     -0.524011    15A     -0.507172
      16A     -0.464668    17A     -0.429535

  @DF-RHF Final Energy:  -193.11435471079537

   => Energetics <=

    Nuclear Repulsion Energy =            135.3674933123604376
    One-Electron Energy =                -530.3365349535862379
    Two-Electron Energy =                 201.8546869304304039
    DFT Exchange-Correlation Energy =       0.0000000000000000
    Empirical Dispersion Energy =           0.0000000000000000
    PCM Polarization Energy =               0.0000000000000000
    EFP Energy =                            0.0000000000000000
    Total Energy =                       -193.1143547107953680
    Molecular point group: c1
  Basis Set: 6-31G*
  Basis Set:

  -Total Gradient:
     Atom            X                  Y                   Z
    ------   -----------------  -----------------  -----------------
       1        0.001727868343     0.000195697203     0.000992126227
       2       -0.001916426142    -0.000202427344    -0.000892888235
       3       -0.000449345944    -0.000359970102    -0.001132226284
       4        0.000602514525     0.000339240775     0.001031813132
       5        0.000001666206     0.000019619107    -0.000002401070
       6        0.000010229308    -0.000008155804    -0.000016347039
       7       -0.000014754757     0.000005890335    -0.000006130312
       8        0.000006293590     0.000009603896     0.000014534212
       9       -0.000001558635     0.000008041763    -0.000010560174
      10        0.000007549247     0.000014365046     0.000011674865
      11        0.000021428165    -0.000007307837    -0.000005310314
      12        0.000004536093    -0.000014597038     0.000015714992

  **** Optimization is complete! (in 5 steps) ****
    Final optimized geometry and variables:
    Molecular point group: c1

    Geometry (in Angstrom), charge = 0, multiplicity = 1:

    H           -0.273825475306     1.921365603347     0.405010780747
    O            0.135484252562     1.293447082044    -0.172072050844
    C           -0.001746098232    -0.007409662533     0.360140770356
    C            1.204373988222    -0.809527065457    -0.100292128222
    C           -1.323492681331    -0.623569374845    -0.081703473905
    H            0.016018288732     0.044401639040     1.447769886477
    H            1.235742543874    -0.849071065999    -1.184427284955
    H            2.119311467765    -0.343924954749     0.247324116002
    H            1.164079640725    -1.825455681385     0.280122695822
    H           -1.364427970170    -0.682924544656    -1.164291884646
    H           -2.160627288241    -0.017730882701     0.252765057042
    H           -1.447388249655    -1.622744552082     0.325490951093

  Mulliken Charges: (a.u.)
   Center  Symbol    Alpha    Beta     Spin     Total
       1     H     0.28124  0.28124  0.00000  0.43751
       2     O     4.37245  4.37245  0.00000 -0.74491
       3     C     2.92372  2.92372  0.00000  0.15256
       4     C     3.23777  3.23777  0.00000 -0.47554
       5     C     3.23994  3.23994  0.00000 -0.47989
       6     H     0.43123  0.43123  0.00000  0.13753
       7     H     0.41474  0.41474  0.00000  0.17051
       8     H     0.41391  0.41391  0.00000  0.17218
       9     H     0.42382  0.42382  0.00000  0.15236
      10     H     0.41427  0.41427  0.00000  0.17145
      11     H     0.42332  0.42332  0.00000  0.15335
      12     H     0.42357  0.42357  0.00000  0.15287

   Total alpha = 17.00000, Total beta = 17.00000, Total charge = -0.00000
