  ==> Input File <==

--------------------------------------------------------------------------
set {
	reference rhf
	basis cc-pvtz
}

set_num_threads( 4 )
memory 2 gb

molecule MOL {
0 1

H	 2.342730	 0.877684	 -1.045694
C	 2.360424	 0.000000	 -0.411793
C	 1.173749	 0.000000	 0.526870
H	 3.286567	 0.000000	 0.151574
H	 2.342730	 -0.877684	 -1.045694
O	 -0.000000	 0.000000	 -0.223739
H	 1.203779	 0.876757	 1.172538
H	 1.203779	 -0.876757	 1.172538
C	 -1.173749	 0.000000	 0.526870
C	 -0.990780	 -0.899102	 1.729959
H	 -2.006202	 -0.350007	 -0.082235
H	 -1.412270	 1.013621	 0.846515
H	 -0.768038	 -1.911389	 1.416697
H	 -1.893606	 -0.914408	 2.329787
H	 -0.173478	 -0.546320	 2.346428

	symmetry c1
}
set optking {
	frozen_dihedral = ("
		11 9 6 3
	")
}

ee = optimize('scf')
oeprop('DIPOLE', 'QUADRUPOLE', 'MULLIKEN_CHARGES')
f=open( 'psi4out.xyz', 'w' )
f.write( "15  " )
f.write( str(ee) + "\n" )
f.write( MOL.save_string_xyz() )
f.close()
--------------------------------------------------------------------------

    Molecular point group: c1
  Charge       = 0
  Multiplicity = 1
  Basis Set: CC-PVTZ
  Basis Set:
  @DF-RHF Final Energy:  -232.21819580040173
    Total Energy =                       -232.2181958004016451
    Molecular point group: c1
  Basis Set: CC-PVTZ
  Basis Set:
  Basis Set: CC-PVTZ
  Basis Set:
  @DF-RHF Final Energy:  -232.21820757436842
    Total Energy =                       -232.2182075743684209
  Basis Set: CC-PVTZ
  Basis Set:
  Basis Set: CC-PVTZ
  Basis Set:
  @DF-RHF Final Energy:  -232.22471579013035
    Total Energy =                       -232.2247157901301762
  Basis Set: CC-PVTZ
  Basis Set:
  Basis Set: CC-PVTZ
  Basis Set:
  @DF-RHF Final Energy:  -232.22694618849613
    Total Energy =                       -232.2269461884957877
  Basis Set: CC-PVTZ
  Basis Set:
  Basis Set: CC-PVTZ
  Basis Set:
  @DF-RHF Final Energy:  -232.22729815139226
    Total Energy =                       -232.2272981513921195
  Basis Set: CC-PVTZ
  Basis Set:
  Basis Set: CC-PVTZ
  Basis Set:
  @DF-RHF Final Energy:  -232.22743601495421
    Total Energy =                       -232.2274360149543213
  Basis Set: CC-PVTZ
  Basis Set:
  Basis Set: CC-PVTZ
  Basis Set:
  @DF-RHF Final Energy:  -232.22744913457058
    Total Energy =                       -232.2274491345705769
  Basis Set: CC-PVTZ
  Basis Set:
  Charge       = 0
  Multiplicity = 1
  Basis Set: CC-PVTZ
  Basis Set:

    Orbital Energies (a.u.)
    -----------------------

    Doubly Occupied:

       1A    -20.542049     2A    -11.266662     3A    -11.264949
       4A    -11.212736     5A    -11.205715     6A     -1.375029
       7A     -1.040768     8A     -0.990383     9A     -0.870538
      10A     -0.800190    11A     -0.676765    12A     -0.660156
      13A     -0.626939    14A     -0.593548    15A     -0.547636
      16A     -0.537343    17A     -0.524216    18A     -0.502966
      19A     -0.494507    20A     -0.452243    21A     -0.408548

  @DF-RHF Final Energy:  -232.22744995575985

   => Energetics <=

    Nuclear Repulsion Energy =            193.4899978374493514
    One-Electron Energy =                -698.2471209252533981
    Two-Electron Energy =                 272.5296731320438539
    DFT Exchange-Correlation Energy =       0.0000000000000000
    Empirical Dispersion Energy =           0.0000000000000000
    PCM Polarization Energy =               0.0000000000000000
    EFP Energy =                            0.0000000000000000
    Total Energy =                       -232.2274499557602212
    Molecular point group: c1
  Basis Set: CC-PVTZ
  Basis Set:

  -Total Gradient:
     Atom            X                  Y                   Z
    ------   -----------------  -----------------  -----------------
       1       -0.000000282987    -0.000003718210     0.000003128932
       2        0.000028929145    -0.000003245745     0.000013796411
       3        0.000003339549    -0.004199846699     0.000148722297
       4        0.000016138891     0.000003571034    -0.000009142196
       5       -0.000001732946     0.000002658384     0.000002708798
       6        0.000282659649     0.005236687280     0.000104461503
       7       -0.000015926654     0.000005138295     0.000008466289
       8       -0.000005301497     0.000009035123    -0.000005200306
       9       -0.001107689823     0.003503443700    -0.001954392125
      10       -0.000007475271     0.000013943549    -0.000001799070
      11        0.000801594655    -0.004559323568     0.001694324845
      12       -0.000009141549    -0.000018507380     0.000026032203
      13        0.000004963879    -0.000005513922    -0.000009187796
      14        0.000006044880     0.000005926430    -0.000012890048
      15        0.000003880079     0.000009751730    -0.000009029737

  **** Optimization is complete! (in 8 steps) ****
    Final optimized geometry and variables:
    Molecular point group: c1

    Geometry (in Angstrom), charge = 0, multiplicity = 1:

    H            1.998339542974     1.181915258531    -1.521337659536
    C            2.100375034639     0.268352010341    -0.949169397016
    C            0.982100849800     0.146615610082     0.063871999675
    H            3.062677378973     0.278365883073    -0.449517623029
    H            2.078465016985    -0.567352400513    -1.637616447242
    O           -0.230799781697     0.122407793458    -0.624012524117
    H            1.012911252447     0.989345408488     0.754163597561
    H            1.112539928775    -0.757918927523     0.649686862072
    C           -1.418354891410     0.163684348174     0.114804397762
    C           -1.442285374784    -0.689780440856     1.375948716528
    H           -2.182140336644    -0.219355090516    -0.548800678106
    H           -1.660265016845     1.194584861454     0.365254526733
    H           -1.196202548503    -1.721489552058     1.152521490610
    H           -2.442970320863    -0.666122739493     1.792412854673
    H           -0.761753576868    -0.331485531688     2.137707171466

  Mulliken Charges: (a.u.)
   Center  Symbol    Alpha    Beta     Spin     Total
       1     H     0.45157  0.45157  0.00000  0.09686
       2     C     3.13630  3.13630  0.00000 -0.27260
       3     C     2.96666  2.96666  0.00000  0.06669
       4     H     0.45951  0.45951  0.00000  0.08098
       5     H     0.45152  0.45152  0.00000  0.09696
       6     O     4.18141  4.18141  0.00000 -0.36282
       7     H     0.47407  0.47407  0.00000  0.05186
       8     H     0.46968  0.46968  0.00000  0.06063
       9     C     2.97708  2.97708  0.00000  0.04584
      10     C     3.16136  3.16136  0.00000 -0.32272
      11     H     0.45531  0.45531  0.00000  0.08939
      12     H     0.46691  0.46691  0.00000  0.06619
      13     H     0.45000  0.45000  0.00000  0.10000
      14     H     0.44673  0.44673  0.00000  0.10654
      15     H     0.45190  0.45190  0.00000  0.09620

   Total alpha = 21.00000, Total beta = 21.00000, Total charge =  0.00000
