  ==> Input File <==

--------------------------------------------------------------------------
set {
	reference rhf
	basis 6-31G*
}

set_num_threads( 1 )
memory 2 gb

molecule MOL {
0 1

O	 -2.439739	 -0.935931	 -0.423848
C	 -1.921153	 0.064240	 -0.045697
C	 -2.624470	 1.379923	 0.150949
O	 -0.632575	 0.154573	 0.251549
H	 -2.168117	 2.136577	 -0.476876
H	 -3.669540	 1.273223	 -0.098610
H	 -2.519365	 1.700893	 1.180846
C	 0.160891	 -1.019931	 0.106212
C	 1.589627	 -0.672828	 0.480843
H	 0.089836	 -1.367806	 -0.916050
H	 -0.238459	 -1.792301	 0.749618
C	 2.450569	 -1.886115	 0.837373
H	 1.548906	 0.007816	 1.328780
H	 2.044255	 -0.123806	 -0.339612
C	 3.874076	 -1.498215	 1.235070
H	 1.982107	 -2.430060	 1.655154
H	 2.481498	 -2.565234	 -0.008321
H	 4.464162	 -2.375048	 1.482041
H	 3.876403	 -0.843184	 2.101792
H	 4.378763	 -0.977385	 0.426301

	symmetry c1
}
set optking {
	frozen_dihedral = ("
		16 12 9 8,
		2 4 8 10,
		1 2 4 8
	")
}

ee = energy('scf')
oeprop('DIPOLE', 'QUADRUPOLE', 'MULLIKEN_CHARGES')
f=open( 'psi4out.xyz', 'w' )
f.write( "20  " )
f.write( str(ee) + "\n" )
f.write( MOL.save_string_xyz() )
f.close()
--------------------------------------------------------------------------

    Molecular point group: c1

    Geometry (in Angstrom), charge = 0, multiplicity = 1:

       Center              X                  Y                   Z               Mass
    ------------   -----------------  -----------------  -----------------  -----------------
           O         -2.487803836998    -0.388853945327    -0.747421305000    15.994914619560
           C         -1.969217836998     0.611317054673    -0.369270305000    12.000000000000
           C         -2.672534836998     1.927000054673    -0.172624305000    12.000000000000
           O         -0.680639836998     0.701650054673    -0.072024305000    15.994914619560
           H         -2.216181836998     2.683654054673    -0.800449305000     1.007825032070
           H         -3.717604836998     1.820300054673    -0.422183305000     1.007825032070
           H         -2.567429836998     2.247970054673     0.857272695000     1.007825032070
           C          0.112826163002    -0.472853945327    -0.217361305000    12.000000000000
           C          1.541562163002    -0.125750945327     0.157269695000    12.000000000000
           H          0.041771163002    -0.820728945327    -1.239623305000     1.007825032070
           H         -0.286523836998    -1.245223945327     0.426044695000     1.007825032070
           C          2.402504163002    -1.339037945327     0.513799695000    12.000000000000
           H          1.500841163002     0.554893054673     1.005206695000     1.007825032070
           H          1.996190163002     0.423271054673    -0.663185305000     1.007825032070
           C          3.826011163002    -0.951137945327     0.911496695000    12.000000000000
           H          1.934042163002    -1.882982945327     1.331580695000     1.007825032070
           H          2.433433163002    -2.018156945327    -0.331894305000     1.007825032070
           H          4.416097163002    -1.827970945327     1.158467695000     1.007825032070
           H          3.828338163002    -0.296106945327     1.778218695000     1.007825032070
           H          4.330698163002    -0.430307945327     0.102727695000     1.007825032070

  Charge       = 0
  Multiplicity = 1
  Basis Set: 6-31G*
  Basis Set:

    Orbital Energies (a.u.)
    -----------------------

    Doubly Occupied:

       1A    -20.601463     2A    -20.543561     3A    -11.374044
       4A    -11.281546     5A    -11.232978     6A    -11.226558
       7A    -11.223911     8A    -11.216303     9A     -1.467414
      10A     -1.361656    11A     -1.087647    12A     -1.029813
      13A     -0.981078    14A     -0.881524    15A     -0.807826
      16A     -0.776621    17A     -0.691737    18A     -0.685513
      19A     -0.668098    20A     -0.637898    21A     -0.595603
      22A     -0.594046    23A     -0.570271    24A     -0.559094
      25A     -0.544931    26A     -0.520177    27A     -0.507906
      28A     -0.484764    29A     -0.480873    30A     -0.475911
      31A     -0.451412    32A     -0.437117

  @DF-RHF Final Energy:  -383.94400898299438

   => Energetics <=

    Nuclear Repulsion Energy =            378.6993286192236496
    One-Electron Energy =               -1273.2879933855422223
    Two-Electron Energy =                 510.6446557833236284
    DFT Exchange-Correlation Energy =       0.0000000000000000
    Empirical Dispersion Energy =           0.0000000000000000
    PCM Polarization Energy =               0.0000000000000000
    EFP Energy =                            0.0000000000000000
    Total Energy =                       -383.9440089829948874

  Mulliken Charges: (a.u.)
   Center  Symbol    Alpha    Beta     Spin     Total
       1     O     4.28327  4.28327  0.00000 -0.56655
       2     C     2.61993  2.61993  0.00000  0.76014
       3     C     3.28153  3.28153  0.00000 -0.56307
       4     O     4.31101  4.31101  0.00000 -0.62202
       5     H     0.40044  0.40044  0.00000  0.19911
       6     H     0.39700  0.39700  0.00000  0.20601
       7     H     0.40072  0.40072  0.00000  0.19857
       8     C     2.99531  2.99531  0.00000  0.00938
       9     C     3.16592  3.16592  0.00000 -0.33184
      10     H     0.41011  0.41011  0.00000  0.17977
      11     H     0.41162  0.41162  0.00000  0.17677
      12     C     3.15949  3.15949  0.00000 -0.31898
      13     H     0.41234  0.41234  0.00000  0.17532
      14     H     0.41605  0.41605  0.00000  0.16790
      15     C     3.23982  3.23982  0.00000 -0.47963
      16     H     0.41946  0.41946  0.00000  0.16109
      17     H     0.41968  0.41968  0.00000  0.16064
      18     H     0.41678  0.41678  0.00000  0.16643
      19     H     0.41957  0.41957  0.00000  0.16085
      20     H     0.41994  0.41994  0.00000  0.16012

   Total alpha = 32.00000, Total beta = 32.00000, Total charge =  0.00000
