  ==> Input File <==

--------------------------------------------------------------------------
set {
	reference rhf
	basis 6-31G*
}

set_num_threads( 4 )
memory 2 gb

molecule MOL {
0 1

H	 2.591676	 2.013956	 0.335017
O	 3.341076	 1.666752	 -0.126416
C	 3.569581	 0.339145	 0.272707
C	 2.539767	 -0.640285	 -0.279495
H	 4.553106	 0.084646	 -0.100901
H	 3.608576	 0.269204	 1.359154
C	 1.161307	 -0.529671	 0.376615
H	 2.448446	 -0.477394	 -1.350239
H	 2.924928	 -1.649547	 -0.143819
C	 0.165977	 -1.561689	 -0.161042
H	 0.768831	 0.470661	 0.216417
H	 1.261933	 -0.658309	 1.454422
C	 -1.205840	 -1.550601	 0.523308
H	 0.035595	 -1.409702	 -1.230971
H	 0.599639	 -2.552944	 -0.046798
C	 -2.033278	 -0.283957	 0.287858
H	 -1.773372	 -2.406961	 0.165018
H	 -1.074741	 -1.702084	 1.593683
C	 -3.432818	 -0.363569	 0.901361
H	 -2.121136	 -0.106444	 -0.783068
H	 -1.518527	 0.581149	 0.698863
C	 -4.258594	 0.902034	 0.673307
H	 -3.960590	 -1.218460	 0.484100
H	 -3.347190	 -0.550590	 1.969806
H	 -4.389997	 1.098652	 -0.387023
H	 -5.245147	 0.813910	 1.117809
H	 -3.775034	 1.770509	 1.111809

	symmetry c1
}
set optking {
	frozen_dihedral = ("
		8 4 3 2
	")
}

ee = optimize('scf')
oeprop('DIPOLE', 'QUADRUPOLE', 'MULLIKEN_CHARGES')
f=open( 'psi4out.xyz', 'w' )
f.write( "27  " )
f.write( str(ee) + "\n" )
f.write( MOL.save_string_xyz() )
f.close()
--------------------------------------------------------------------------

    Molecular point group: c1
  Charge       = 0
  Multiplicity = 1
  Basis Set: 6-31G*
  Basis Set:
  @DF-RHF Final Energy:  -388.28141206050714
    Total Energy =                       -388.2814120605071366
    Molecular point group: c1
  Basis Set: 6-31G*
  Basis Set:
  Basis Set: 6-31G*
  Basis Set:
  @DF-RHF Final Energy:  -388.28142292096618
    Total Energy =                       -388.2814229209661789
  Basis Set: 6-31G*
  Basis Set:
  Basis Set: 6-31G*
  Basis Set:
  @DF-RHF Final Energy:  -388.28147195550685
    Total Energy =                       -388.2814719555068450
  Basis Set: 6-31G*
  Basis Set:
  Basis Set: 6-31G*
  Basis Set:
  @DF-RHF Final Energy:  -388.28147432880212
    Total Energy =                       -388.2814743288021191
  Basis Set: 6-31G*
  Basis Set:
  Basis Set: 6-31G*
  Basis Set:
  @DF-RHF Final Energy:  -388.28147065781741
    Total Energy =                       -388.2814706578179766
  Basis Set: 6-31G*
  Basis Set:
  Basis Set: 6-31G*
  Basis Set:
  @DF-RHF Final Energy:  -388.28147554188484
    Total Energy =                       -388.2814755418847881
  Basis Set: 6-31G*
  Basis Set:
  Charge       = 0
  Multiplicity = 1
  Basis Set: 6-31G*
  Basis Set:

    Orbital Energies (a.u.)
    -----------------------

    Doubly Occupied:

       1A    -20.552288     2A    -11.266872     3A    -11.220147
       4A    -11.217406     5A    -11.216356     6A    -11.215878
       7A    -11.215108     8A    -11.214626     9A    -11.209673
      10A     -1.358861    11A     -1.095463    12A     -1.061802
      13A     -1.011653    14A     -0.948314    15A     -0.887844
      16A     -0.820345    17A     -0.802333    18A     -0.778535
      19A     -0.692778    20A     -0.653100    21A     -0.639411
      22A     -0.613294    23A     -0.600028    24A     -0.582455
      25A     -0.580614    26A     -0.552444    27A     -0.540305
      28A     -0.532726    29A     -0.505236    30A     -0.495858
      31A     -0.485631    32A     -0.474272    33A     -0.468132
      34A     -0.461397    35A     -0.453091    36A     -0.441537
      37A     -0.422950

  @DF-RHF Final Energy:  -388.28147547990983

   => Energetics <=

    Nuclear Repulsion Energy =            459.2705218108552003
    One-Electron Energy =               -1436.5264752788266378
    Two-Electron Energy =                 588.9744779880613805
    DFT Exchange-Correlation Energy =       0.0000000000000000
    Empirical Dispersion Energy =           0.0000000000000000
    PCM Polarization Energy =               0.0000000000000000
    EFP Energy =                            0.0000000000000000
    Total Energy =                       -388.2814754799101138
    Molecular point group: c1
  Basis Set: 6-31G*
  Basis Set:

  -Total Gradient:
     Atom            X                  Y                   Z
    ------   -----------------  -----------------  -----------------
       1        0.000004722000    -0.000013503470     0.000004278170
       2        0.000892784013    -0.000219301697    -0.001254074018
       3       -0.001527129525     0.000601102751     0.001760515206
       4        0.002038184943    -0.001632834452    -0.000779072488
       5       -0.000005048761     0.000006602176    -0.000000688361
       6        0.000001945097    -0.000008933227     0.000001886131
       7       -0.000008473641     0.000028656082    -0.000030505669
       8       -0.001419893651     0.001260343687     0.000303251417
       9        0.000014173466    -0.000013935901    -0.000012960233
      10        0.000012195112    -0.000003333544     0.000005781715
      11        0.000008147636    -0.000002225295    -0.000007969105
      12       -0.000006222574    -0.000008201011    -0.000001544735
      13       -0.000000910979    -0.000008260237     0.000006576076
      14       -0.000005501145     0.000003566061     0.000000514777
      15        0.000014120285     0.000006804610    -0.000004723385
      16        0.000001238945     0.000006837050     0.000004152178
      17       -0.000002957544     0.000002825088    -0.000001039031
      18       -0.000007794661    -0.000005213917     0.000001657543
      19        0.000002195415     0.000001856916     0.000005010817
      20       -0.000000858698    -0.000000523000     0.000004588715
      21       -0.000004261020    -0.000000224594    -0.000003517642
      22       -0.000000710188    -0.000001441100    -0.000003737470
      23        0.000001178366    -0.000001502382     0.000001691862
      24       -0.000000719192     0.000001612763     0.000001313306
      25        0.000000260275     0.000001560451    -0.000000495370
      26       -0.000000558639    -0.000000935455    -0.000000972012
      27       -0.000000105331    -0.000001398358     0.000000081607

  **** Optimization is complete! (in 7 steps) ****
    Final optimized geometry and variables:
    Molecular point group: c1

    Geometry (in Angstrom), charge = 0, multiplicity = 1:

    H            2.522517543942     2.183094245791     0.021761480422
    O            3.284328556657     1.844672304630    -0.426054653687
    C            3.541411833213     0.530596280943     0.000153068945
    C            2.528386622201    -0.478042299797    -0.531338770698
    H            4.526898416184     0.291947366608    -0.378816623411
    H            3.592695466413     0.481161120264     1.087032174075
    C            1.143183422456    -0.359946118064     0.111377205515
    H            2.438119291691    -0.330848457004    -1.604218715741
    H            2.917351033431    -1.481499833956    -0.370430438328
    C            0.145857161712    -1.383071165168    -0.439117380020
    H            0.758250740998     0.644192782572    -0.048444646920
    H            1.232501452223    -0.490796687836     1.189459119647
    C           -1.228097071860    -1.374253240214     0.240941771269
    H            0.019545796716    -1.221058688030    -1.508071234966
    H            0.576114107986    -2.376738259009    -0.332629671841
    C           -2.049045739220    -0.101067195213     0.018584362531
    H           -1.798279466779    -2.223565522692    -0.129658734778
    H           -1.101145233113    -1.539382951825     1.309764389954
    C           -3.451321613771    -0.182305306432     0.625606667812
    H           -2.131923707060     0.090638823797    -1.050321089517
    H           -1.532082055341     0.756276195809     0.442936220220
    C           -4.271173392667     1.089185687621     0.409301881295
    H           -3.980761719217    -1.030061303284     0.196108640268
    H           -3.370707635810    -0.382300184142     1.692082476551
    H           -4.397391774734     1.298976874758    -0.649128410209
    H           -5.259910049414     0.999624655297     0.848599025317
    H           -3.786102460105     1.950426979475     0.860243822509

  Mulliken Charges: (a.u.)
   Center  Symbol    Alpha    Beta     Spin     Total
       1     H     0.28042  0.28042  0.00000  0.43916
       2     O     4.37093  4.37093  0.00000 -0.74187
       3     C     2.99726  2.99726  0.00000  0.00548
       4     C     3.16257  3.16257  0.00000 -0.32514
       5     H     0.41440  0.41440  0.00000  0.17119
       6     H     0.43180  0.43180  0.00000  0.13641
       7     C     3.16129  3.16129  0.00000 -0.32257
       8     H     0.41381  0.41381  0.00000  0.17238
       9     H     0.42357  0.42357  0.00000  0.15286
      10     C     3.15218  3.15218  0.00000 -0.30435
      11     H     0.42610  0.42610  0.00000  0.14781
      12     H     0.42439  0.42439  0.00000  0.15122
      13     C     3.15351  3.15351  0.00000 -0.30703
      14     H     0.42167  0.42167  0.00000  0.15666
      15     H     0.42138  0.42138  0.00000  0.15724
      16     C     3.15238  3.15238  0.00000 -0.30475
      17     H     0.42119  0.42119  0.00000  0.15762
      18     H     0.42413  0.42413  0.00000  0.15174
      19     C     3.15124  3.15124  0.00000 -0.30247
      20     H     0.42369  0.42369  0.00000  0.15261
      21     H     0.42397  0.42397  0.00000  0.15205
      22     C     3.23918  3.23918  0.00000 -0.47836
      23     H     0.42278  0.42278  0.00000  0.15445
      24     H     0.42321  0.42321  0.00000  0.15358
      25     H     0.42147  0.42147  0.00000  0.15706
      26     H     0.41914  0.41914  0.00000  0.16172
      27     H     0.42235  0.42235  0.00000  0.15529

   Total alpha = 37.00000, Total beta = 37.00000, Total charge =  0.00000
