  ==> Input File <==

--------------------------------------------------------------------------
set {
	reference rhf
	basis 6-31G*
}

set_num_threads( 1 )
memory 2 gb

molecule MOL {
0 1

H	 0.540033	 1.990959	 3.699780
O	 1.482564	 1.930423	 3.754939
C	 1.866863	 0.581061	 3.829719
C	 1.708732	 -0.163115	 2.508386
H	 2.908767	 0.587614	 4.123092
H	 1.312889	 0.070111	 4.616372
C	 0.260571	 -0.271827	 2.024773
H	 2.308287	 0.340939	 1.754841
H	 2.125434	 -1.161624	 2.629654
C	 0.129634	 -1.070488	 0.724844
H	 -0.143299	 0.726265	 1.879634
H	 -0.344660	 -0.745827	 2.797663
C	 -1.309753	 -1.282496	 0.241564
H	 0.702986	 -0.576971	 -0.057815
H	 0.591252	 -2.045017	 0.869423
C	 -2.037799	 -0.007733	 -0.193645
H	 -1.289906	 -1.974169	 -0.598085
H	 -1.882995	 -1.775684	 1.025144
C	 -3.489788	 0.042957	 0.286558
H	 -2.017067	 0.064384	 -1.280144
H	 -1.513726	 0.868678	 0.179924
C	 -4.216917	 1.317354	 -0.141063
H	 -4.025645	 -0.823308	 -0.095450
H	 -3.513059	 -0.038752	 1.371301
H	 -4.239342	 1.411634	 -1.223113
H	 -5.243387	 1.322503	 0.212445
H	 -3.726170	 2.201406	 0.256408

	symmetry c1
}
set optking {
	frozen_dihedral = ("
		14 10 7 4,
		14 10 13 16,
		10 7 4 8,
		8 4 3 2,
		20 16 19 22,
		4 3 2 1
	")
}

ee = energy('scf')
oeprop('DIPOLE', 'QUADRUPOLE', 'MULLIKEN_CHARGES')
f=open( 'psi4out.xyz', 'w' )
f.write( "27  " )
f.write( str(ee) + "\n" )
f.write( MOL.save_string_xyz() )
f.close()
--------------------------------------------------------------------------

    Molecular point group: c1

    Geometry (in Angstrom), charge = 0, multiplicity = 1:

       Center              X                  Y                   Z               Mass
    ------------   -----------------  -----------------  -----------------  -----------------
           H          1.146585326524     1.829034907685     2.210811571311     1.007825032070
           O          2.089116326524     1.768498907685     2.265970571311    15.994914619560
           C          2.473415326524     0.419136907685     2.340750571311    12.000000000000
           C          2.315284326524    -0.325039092315     1.019417571311    12.000000000000
           H          3.515319326524     0.425689907685     2.634123571311     1.007825032070
           H          1.919441326524    -0.091813092315     3.127403571311     1.007825032070
           C          0.867123326524    -0.433751092315     0.535804571311    12.000000000000
           H          2.914839326524     0.179014907685     0.265872571311     1.007825032070
           H          2.731986326524    -1.323548092315     1.140685571311     1.007825032070
           C          0.736186326524    -1.232412092315    -0.764124428689    12.000000000000
           H          0.463253326524     0.564340907685     0.390665571311     1.007825032070
           H          0.261892326524    -0.907751092315     1.308694571311     1.007825032070
           C         -0.703200673476    -1.444420092315    -1.247404428689    12.000000000000
           H          1.309538326524    -0.738895092315    -1.546783428689     1.007825032070
           H          1.197804326524    -2.206941092315    -0.619545428689     1.007825032070
           C         -1.431246673476    -0.169657092315    -1.682613428689    12.000000000000
           H         -0.683353673476    -2.136093092315    -2.087053428689     1.007825032070
           H         -1.276442673476    -1.937608092315    -0.463824428689     1.007825032070
           C         -2.883235673476    -0.118967092315    -1.202410428689    12.000000000000
           H         -1.410514673476    -0.097540092315    -2.769112428689     1.007825032070
           H         -0.907173673476     0.706753907685    -1.309044428689     1.007825032070
           C         -3.610364673476     1.155429907685    -1.630031428689    12.000000000000
           H         -3.419092673476    -0.985232092315    -1.584418428689     1.007825032070
           H         -2.906506673476    -0.200676092315    -0.117667428689     1.007825032070
           H         -3.632789673476     1.249709907685    -2.712081428689     1.007825032070
           H         -4.636834673476     1.160578907685    -1.276523428689     1.007825032070
           H         -3.119617673476     2.039481907685    -1.232560428689     1.007825032070

  Charge       = 0
  Multiplicity = 1
  Basis Set: 6-31G*
  Basis Set:

    Orbital Energies (a.u.)
    -----------------------

    Doubly Occupied:

       1A    -20.552588     2A    -11.267312     3A    -11.220173
       4A    -11.217459     5A    -11.216713     6A    -11.215600
       7A    -11.214435     8A    -11.212988     9A    -11.209330
      10A     -1.359322    11A     -1.095702    12A     -1.061429
      13A     -1.011502    14A     -0.948725    15A     -0.888343
      16A     -0.821539    17A     -0.800240    18A     -0.778979
      19A     -0.693955    20A     -0.647758    21A     -0.643155
      22A     -0.612875    23A     -0.598526    24A     -0.586725
      25A     -0.579649    26A     -0.555041    27A     -0.546007
      28A     -0.524601    29A     -0.505033    30A     -0.493370
      31A     -0.487771    32A     -0.478055    33A     -0.468212
      34A     -0.459146    35A     -0.449243    36A     -0.440795
      37A     -0.423599

  @DF-RHF Final Energy:  -388.27713134610843

   => Energetics <=

    Nuclear Repulsion Energy =            463.9959716497696149
    One-Electron Energy =               -1445.9746918542045933
    Two-Electron Energy =                 593.7015888583300693
    DFT Exchange-Correlation Energy =       0.0000000000000000
    Empirical Dispersion Energy =           0.0000000000000000
    PCM Polarization Energy =               0.0000000000000000
    EFP Energy =                            0.0000000000000000
    Total Energy =                       -388.2771313461048521

  Mulliken Charges: (a.u.)
   Center  Symbol    Alpha    Beta     Spin     Total
       1     H     0.27984  0.27984  0.00000  0.44032
       2     O     4.37093  4.37093  0.00000 -0.74186
       3     C     2.99744  2.99744  0.00000  0.00512
       4     C     3.16079  3.16079  0.00000 -0.32158
       5     H     0.41436  0.41436  0.00000  0.17128
       6     H     0.43196  0.43196  0.00000  0.13608
       7     C     3.16275  3.16275  0.00000 -0.32551
       8     H     0.41494  0.41494  0.00000  0.17012
       9     H     0.42410  0.42410  0.00000  0.15181
      10     C     3.15332  3.15332  0.00000 -0.30664
      11     H     0.42384  0.42384  0.00000  0.15233
      12     H     0.42536  0.42536  0.00000  0.14927
      13     C     3.15622  3.15622  0.00000 -0.31245
      14     H     0.42152  0.42152  0.00000  0.15696
      15     H     0.42195  0.42195  0.00000  0.15611
      16     C     3.15412  3.15412  0.00000 -0.30824
      17     H     0.41925  0.41925  0.00000  0.16149
      18     H     0.42220  0.42220  0.00000  0.15560
      19     C     3.15337  3.15337  0.00000 -0.30674
      20     H     0.42088  0.42088  0.00000  0.15824
      21     H     0.42175  0.42175  0.00000  0.15649
      22     C     3.23961  3.23961  0.00000 -0.47922
      23     H     0.42225  0.42225  0.00000  0.15550
      24     H     0.42410  0.42410  0.00000  0.15181
      25     H     0.42131  0.42131  0.00000  0.15737
      26     H     0.41947  0.41947  0.00000  0.16107
      27     H     0.42237  0.42237  0.00000  0.15526

   Total alpha = 37.00000, Total beta = 37.00000, Total charge = -0.00000
