                              Psi4 1.0.54 Driver

  ==> Input File <==

--------------------------------------------------------------------------
set {
	reference rhf
	basis cc-pvtz
}

set_num_threads( 4 )
memory 2 gb

molecule MOL {
0 1

H	 1.019083	 2.538282	 -0.004990
O	 1.279736	 1.791896	 0.504343
C	 0.706474	 0.636793	 -0.025501
C	 -0.793473	 0.591216	 0.050087
H	 1.117205	 -0.194482	 0.535378
H	 1.010719	 0.492507	 -1.060545
C	 -1.534243	 -0.493009	 -0.013340
H	 -1.266611	 1.552628	 0.164437
H	 -1.101195	 -1.466332	 -0.144046
H	 -2.604242	 -0.437780	 0.050785

	symmetry c1
}
set optking {
	frozen_dihedral = ("
		5 3 4 7
	")
}

ee,wfn = optimize('scf', return_wfn=True)
oeprop( wfn, 'DIPOLE', 'QUADRUPOLE', 'MULLIKEN_CHARGES')
f=open( 'psi4out.xyz', 'w' )
f.write( "10  " )
f.write( str(ee) + "\n" )
f.write( MOL.save_string_xyz() )
f.close()
--------------------------------------------------------------------------

    Molecular point group: c1
  Charge       = 0
  Multiplicity = 1
  Basis Set: CC-PVTZ
  Basis Set:
  @DF-RHF Final Energy:  -191.99452569846139
    Total Energy =                       -191.9945256984613877
    Molecular point group: c1
  Basis Set: CC-PVTZ
  Basis Set:
  Basis Set: CC-PVTZ
  Basis Set:
  @DF-RHF Final Energy:  -191.99504166456504
    Total Energy =                       -191.9950416645649796
  Basis Set: CC-PVTZ
  Basis Set:
  Basis Set: CC-PVTZ
  Basis Set:
  @DF-RHF Final Energy:  -191.99509934727695
    Total Energy =                       -191.9950993472769198
  Basis Set: CC-PVTZ
  Basis Set:
  Basis Set: CC-PVTZ
  Basis Set:
  @DF-RHF Final Energy:  -191.99510756155723
    Total Energy =                       -191.9951075615572904
  Basis Set: CC-PVTZ
  Basis Set:
  Basis Set: CC-PVTZ
  Basis Set:
  @DF-RHF Final Energy:  -191.99510895374999
    Total Energy =                       -191.9951089537499911
  Basis Set: CC-PVTZ
  Basis Set:
  Charge       = 0
  Multiplicity = 1
  Basis Set: CC-PVTZ
  Basis Set:

    Orbital Energies (a.u.)
    -----------------------

    Doubly Occupied:

       1A    -20.553143     2A    -11.277207     3A    -11.230723
       4A    -11.218801     5A     -1.372095     6A     -1.065500
       7A     -0.923165     8A     -0.779814     9A     -0.700106
      10A     -0.648499    11A     -0.625540    12A     -0.577431
      13A     -0.532581    14A     -0.506619    15A     -0.448688
      16A     -0.369258

  @DF-RHF Final Energy:  -191.99510916964951

   => Energetics <=

    Nuclear Repulsion Energy =            117.1341345295510621
    One-Electron Energy =                -492.6001468034494906
    Two-Electron Energy =                 183.4709031042490608
    DFT Exchange-Correlation Energy =       0.0000000000000000
    Empirical Dispersion Energy =           0.0000000000000000
    PCM Polarization Energy =               0.0000000000000000
    EFP Energy =                            0.0000000000000000
    Total Energy =                       -191.9951091696493393
    Molecular point group: c1
  Basis Set: CC-PVTZ
  Basis Set:

  -Total Gradient:
     Atom            X                  Y                   Z
    ------   -----------------  -----------------  -----------------
       1       -0.000000220837    -0.000019578035     0.000013145829
       2        0.000035624507     0.000067404471     0.000018945429
       3       -0.000192919667    -0.001205388102    -0.002686251333
       4        0.000179378713    -0.000003063640     0.002854730332
       5        0.000071522797     0.001001593854     0.001462447442
       6        0.000015015529    -0.000006239595    -0.000000638442
       7       -0.000105720832     0.000172701188    -0.001660458936
       8       -0.000001684864     0.000000214191    -0.000003128197
       9        0.000002795176    -0.000003759881     0.000000075839
      10       -0.000003790520    -0.000003884449     0.000001132036

  **** Optimization is complete! (in 6 steps) ****
    Final optimized geometry and variables:
    Molecular point group: c1

    Geometry (in Angstrom), charge = 0, multiplicity = 1:

    H            1.092933245630     1.844979485719    -0.145626158032
    O            1.276838027909     1.097182769549     0.392917551150
    C            0.726491448165    -0.057807343767    -0.178830344896
    C           -0.778728678677    -0.090184322718    -0.084681582291
    H            1.149812137516    -0.889330805137     0.366341369109
    H            1.033837641881    -0.150372319421    -1.216973471410
    C           -1.512201053262    -1.178728866854    -0.148067046542
    H           -1.258694126946     0.870133738462     0.004470536229
    H           -1.070809028943    -2.156400820330    -0.231226658213
    H           -2.583927319473    -1.135061936345    -0.112271957676

  Mulliken Charges: (a.u.)
   Center  Symbol    Alpha    Beta     Spin     Total
       1     H     0.39282  0.39282  0.00000  0.21436
       2     O     4.20306  4.20306  0.00000 -0.40612
       3     C     2.95192  2.95192  0.00000  0.09617
       4     C     3.07382  3.07382  0.00000 -0.14765
       5     H     0.45162  0.45162  0.00000  0.09675
       6     H     0.46592  0.46592  0.00000  0.06817
       7     C     3.17273  3.17273  0.00000 -0.34546
       8     H     0.42709  0.42709  0.00000  0.14582
       9     H     0.43255  0.43255  0.00000  0.13489
      10     H     0.42846  0.42846  0.00000  0.14308

   Total alpha = 16.00000, Total beta = 16.00000, Total charge =  0.00000

*** Psi4 exiting successfully. Buy a developer a beer!
