  ==> Input File <==

--------------------------------------------------------------------------
set {
	reference rhf
	basis 6-31G*
}

set_num_threads( 4 )
memory 2 gb

molecule MOL {
0 1

H	 0.655584	 1.827454	 0.345256
O	 0.055946	 1.300438	 -0.164479
C	 0.004957	 -0.004114	 0.366649
C	 1.201664	 -0.828089	 -0.095740
C	 -1.317755	 -0.601827	 -0.081511
H	 0.013527	 0.048298	 1.454924
H	 1.216388	 -0.895289	 -1.178704
H	 2.135132	 -0.372895	 0.226467
H	 1.166770	 -1.832878	 0.313827
H	 -1.355732	 -0.658248	 -1.164429
H	 -2.141614	 0.017037	 0.254547
H	 -1.447303	 -1.600817	 0.322594

	symmetry c1
}
set optking {
	frozen_dihedral = ("
		1 2 3 4
	")
}

ee = optimize('scf')
oeprop('DIPOLE', 'QUADRUPOLE', 'MULLIKEN_CHARGES')
f=open( 'psi4out.xyz', 'w' )
f.write( "12  " )
f.write( str(ee) + "\n" )
f.write( MOL.save_string_xyz() )
f.close()
--------------------------------------------------------------------------

    Molecular point group: c1
  Charge       = 0
  Multiplicity = 1
  Basis Set: 6-31G*
  Basis Set:
  @DF-RHF Final Energy:  -193.11472692410047
    Total Energy =                       -193.1147269241004096
    Molecular point group: c1
  Basis Set: 6-31G*
  Basis Set:
  Basis Set: 6-31G*
  Basis Set:
  @DF-RHF Final Energy:  -193.11475805439619
    Total Energy =                       -193.1147580543962476
  Basis Set: 6-31G*
  Basis Set:
  Basis Set: 6-31G*
  Basis Set:
  @DF-RHF Final Energy:  -193.11476479083265
    Total Energy =                       -193.1147647908325666
  Basis Set: 6-31G*
  Basis Set:
  Charge       = 0
  Multiplicity = 1
  Basis Set: 6-31G*
  Basis Set:

    Orbital Energies (a.u.)
    -----------------------

    Doubly Occupied:

       1A    -20.550798     2A    -11.275915     3A    -11.209373
       4A    -11.206161     5A     -1.359733     6A     -1.041108
       7A     -0.936967     8A     -0.799791     9A     -0.706398
      10A     -0.616592    11A     -0.601051    12A     -0.548950
      13A     -0.537505    14A     -0.524996    15A     -0.507594
      16A     -0.465668    17A     -0.429751

  @DF-RHF Final Energy:  -193.11476490915771

   => Energetics <=

    Nuclear Repulsion Energy =            135.4550621021506345
    One-Electron Energy =                -530.5029523989360314
    Two-Electron Energy =                 201.9331253876277401
    DFT Exchange-Correlation Energy =       0.0000000000000000
    Empirical Dispersion Energy =           0.0000000000000000
    PCM Polarization Energy =               0.0000000000000000
    EFP Energy =                            0.0000000000000000
    Total Energy =                       -193.1147649091576568
    Molecular point group: c1
  Basis Set: 6-31G*
  Basis Set:

  -Total Gradient:
     Atom            X                  Y                   Z
    ------   -----------------  -----------------  -----------------
       1       -0.001325650771     0.000480376467     0.001039173061
       2        0.001383011281    -0.000737626827    -0.001613249017
       3        0.000527882524     0.000636601203     0.001443888169
       4       -0.000576825556    -0.000362217116    -0.000867672827
       5       -0.000000649212    -0.000003133902     0.000013480444
       6       -0.000006661314    -0.000002515159    -0.000004915175
       7        0.000017322199     0.000004528546    -0.000001262698
       8       -0.000025751609     0.000005568844     0.000003956702
       9       -0.000003821830    -0.000021698164    -0.000011680248
      10        0.000004235220     0.000004149131    -0.000002206413
      11       -0.000000357575    -0.000001368855     0.000002269025
      12        0.000007266642    -0.000002664171    -0.000001781023

  **** Optimization is complete! (in 4 steps) ****
    Final optimized geometry and variables:
    Molecular point group: c1

    Geometry (in Angstrom), charge = 0, multiplicity = 1:

    H            0.668241281970     1.826243841326     0.330568103666
    O            0.066415580447     1.298271910860    -0.174233403299
    C            0.005328922830    -0.003785895747     0.366546933832
    C            1.200794823131    -0.829686489627    -0.095069662074
    C           -1.315825714309    -0.604973372129    -0.084586945877
    H            0.009326572961     0.053583184922     1.453971695862
    H            1.211801620779    -0.895805865605    -1.177881983679
    H            2.133559779118    -0.371630335806     0.222519095181
    H            1.165996357920    -1.835050248087     0.314036016311
    H           -1.356904930854    -0.643740239831    -1.168263729884
    H           -2.143882354914     0.001576032893     0.263568194409
    H           -1.435999241893    -1.612366522506     0.301422063650

  Mulliken Charges: (a.u.)
   Center  Symbol    Alpha    Beta     Spin     Total
       1     H     0.28177  0.28177  0.00000  0.43647
       2     O     4.37182  4.37182  0.00000 -0.74364
       3     C     2.92302  2.92302  0.00000  0.15395
       4     C     3.24174  3.24174  0.00000 -0.48347
       5     C     3.23837  3.23837  0.00000 -0.47674
       6     H     0.43072  0.43072  0.00000  0.13857
       7     H     0.41398  0.41398  0.00000  0.17203
       8     H     0.42421  0.42421  0.00000  0.15159
       9     H     0.42293  0.42293  0.00000  0.15413
      10     H     0.41466  0.41466  0.00000  0.17068
      11     H     0.41318  0.41318  0.00000  0.17365
      12     H     0.42361  0.42361  0.00000  0.15278

   Total alpha = 17.00000, Total beta = 17.00000, Total charge = -0.00000
