  ==> Input File <==

--------------------------------------------------------------------------
set {
	reference rhf
	basis 6-31G*
}

set_num_threads( 1 )
memory 2 gb

molecule MOL {
0 1

H	 3.320838	 -1.371905	 -1.073498
O	 2.578711	 -1.426912	 -0.479379
C	 1.827727	 -0.339786	 -0.654291
C	 0.624473	 -0.343591	 0.253101
O	 2.111325	 0.503569	 -1.441273
C	 -0.265902	 0.883932	 0.072916
H	 0.088375	 -1.267956	 0.064633
H	 0.991550	 -0.416022	 1.273768
C	 -1.728698	 0.646073	 0.462102
H	 -0.209144	 1.219470	 -0.958188
H	 0.135059	 1.692851	 0.673903
C	 -2.482460	 -0.343073	 -0.431425
H	 -2.245265	 1.602650	 0.432430
H	 -1.779332	 0.308348	 1.496285
C	 -3.960546	 -0.461025	 -0.060175
H	 -2.395034	 -0.026811	 -1.468912
H	 -2.024850	 -1.327147	 -0.371646
H	 -4.472726	 -1.168004	 -0.705284
H	 -4.465146	 0.496508	 -0.151489
H	 -4.081218	 -0.800940	 0.964585

	symmetry c1
}
set optking {
	frozen_dihedral = ("
		16 12 9 6,
		12 9 6 10,
		5 3 4 7,
		1 2 3 5
	")
}

ee = energy('scf')
oeprop('DIPOLE', 'QUADRUPOLE', 'MULLIKEN_CHARGES')
f=open( 'psi4out.xyz', 'w' )
f.write( "20  " )
f.write( str(ee) + "\n" )
f.write( MOL.save_string_xyz() )
f.close()
--------------------------------------------------------------------------

    Molecular point group: c1

    Geometry (in Angstrom), charge = 0, multiplicity = 1:

       Center              X                  Y                   Z               Mass
    ------------   -----------------  -----------------  -----------------  -----------------
           H          3.442122321242    -1.239882391151    -0.773404609929     1.007825032070
           O          2.699995321242    -1.294889391151    -0.179285609929    15.994914619560
           C          1.949011321242    -0.207763391151    -0.354197609929    12.000000000000
           C          0.745757321242    -0.211568391151     0.553194390071    12.000000000000
           O          2.232609321242     0.635591608849    -1.141179609929    15.994914619560
           C         -0.144617678758     1.015954608849     0.373009390071    12.000000000000
           H          0.209659321242    -1.135933391151     0.364726390071     1.007825032070
           H          1.112834321242    -0.283999391151     1.573861390071     1.007825032070
           C         -1.607413678758     0.778095608849     0.762195390071    12.000000000000
           H         -0.087859678758     1.351492608849    -0.658094609929     1.007825032070
           H          0.256343321242     1.824873608849     0.973996390071     1.007825032070
           C         -2.361175678758    -0.211050391151    -0.131331609929    12.000000000000
           H         -2.123980678758     1.734672608849     0.732523390071     1.007825032070
           H         -1.658047678758     0.440370608849     1.796378390071     1.007825032070
           C         -3.839261678758    -0.329002391151     0.239918390071    12.000000000000
           H         -2.273749678758     0.105211608849    -1.168818609929     1.007825032070
           H         -1.903565678758    -1.195124391151    -0.071552609929     1.007825032070
           H         -4.351441678758    -1.035981391151    -0.405190609929     1.007825032070
           H         -4.343861678758     0.628530608849     0.148604390071     1.007825032070
           H         -3.959933678758    -0.668917391151     1.264678390071     1.007825032070

  Charge       = 0
  Multiplicity = 1
  Basis Set: 6-31G*
  Basis Set:

    Orbital Energies (a.u.)
    -----------------------

    Doubly Occupied:

       1A    -20.612631     2A    -20.551754     3A    -11.381252
       4A    -11.239309     5A    -11.221206     6A    -11.220121
       7A    -11.219537     8A    -11.212045     9A     -1.474707
      10A     -1.365886    11A     -1.095817    12A     -1.040304
      13A     -0.960808    14A     -0.869079    15A     -0.815674
      16A     -0.775996    17A     -0.699787    18A     -0.691654
      19A     -0.662679    20A     -0.635018    21A     -0.604398
      22A     -0.593918    23A     -0.575937    24A     -0.557318
      25A     -0.532892    26A     -0.514528    27A     -0.494709
      28A     -0.479381    29A     -0.470367    30A     -0.465847
      31A     -0.456493    32A     -0.444269

  @DF-RHF Final Energy:  -383.94629651342399

   => Energetics <=

    Nuclear Repulsion Energy =            378.0276472529425860
    One-Electron Energy =               -1272.0772401554713724
    Two-Electron Energy =                 510.1032963891040026
    DFT Exchange-Correlation Energy =       0.0000000000000000
    Empirical Dispersion Energy =           0.0000000000000000
    PCM Polarization Energy =               0.0000000000000000
    EFP Energy =                            0.0000000000000000
    Total Energy =                       -383.9462965134247270

  Mulliken Charges: (a.u.)
   Center  Symbol    Alpha    Beta     Spin     Total
       1     H     0.26784  0.26784  0.00000  0.46432
       2     O     4.35097  4.35097  0.00000 -0.70194
       3     C     2.62490  2.62490  0.00000  0.75020
       4     C     3.21365  3.21365  0.00000 -0.42730
       5     O     4.27871  4.27871  0.00000 -0.55743
       6     C     3.15831  3.15831  0.00000 -0.31663
       7     H     0.39656  0.39656  0.00000  0.20688
       8     H     0.39698  0.39698  0.00000  0.20604
       9     C     3.15600  3.15600  0.00000 -0.31200
      10     H     0.40148  0.40148  0.00000  0.19705
      11     H     0.41407  0.41407  0.00000  0.17186
      12     C     3.15461  3.15461  0.00000 -0.30922
      13     H     0.41832  0.41832  0.00000  0.16336
      14     H     0.42445  0.42445  0.00000  0.15109
      15     C     3.23906  3.23906  0.00000 -0.47812
      16     H     0.42007  0.42007  0.00000  0.15985
      17     H     0.42369  0.42369  0.00000  0.15261
      18     H     0.41824  0.41824  0.00000  0.16351
      19     H     0.42058  0.42058  0.00000  0.15885
      20     H     0.42149  0.42149  0.00000  0.15702

   Total alpha = 32.00000, Total beta = 32.00000, Total charge = -0.00000
