  ==> Input File <==

--------------------------------------------------------------------------
set {
	reference rhf
	basis 6-31G*
}

set_num_threads( 1 )
memory 2 gb

molecule MOL {
0 1

H	 -2.403371	 -0.864947	 -0.670946
O	 -2.347518	 -0.290803	 0.079804
C	 -1.184022	 0.487508	 -0.006784
C	 0.062599	 -0.378592	 0.031606
H	 -1.176523	 1.099369	 -0.904519
H	 -1.187323	 1.153111	 0.844927
O	 1.171513	 0.459272	 -0.058250
H	 0.050699	 -1.089204	 -0.797170
H	 0.078739	 -0.954914	 0.954740
C	 2.397842	 -0.198080	 -0.002151
H	 2.508049	 -0.905315	 -0.822092
H	 3.173794	 0.550865	 -0.078850
H	 2.517602	 -0.735921	 0.936026

	symmetry c1
}
set optking {
	frozen_dihedral = ("
		8 4 3 5,
		10 7 4 8,
		4 7 10 13
	")
}

ee = energy('scf')
oeprop('DIPOLE', 'QUADRUPOLE', 'MULLIKEN_CHARGES')
f=open( 'psi4out.xyz', 'w' )
f.write( "13  " )
f.write( str(ee) + "\n" )
f.write( MOL.save_string_xyz() )
f.close()
--------------------------------------------------------------------------

    Molecular point group: c1

    Geometry (in Angstrom), charge = 0, multiplicity = 1:

       Center              X                  Y                   Z               Mass
    ------------   -----------------  -----------------  -----------------  -----------------
           H         -2.404639395818    -0.863159460580    -0.671928393734     1.007825032070
           O         -2.348786395818    -0.289015460580     0.078821606266    15.994914619560
           C         -1.185290395818     0.489295539420    -0.007766393734    12.000000000000
           C          0.061330604182    -0.376804460580     0.030623606266    12.000000000000
           H         -1.177791395818     1.101156539420    -0.905501393734     1.007825032070
           H         -1.188591395818     1.154898539420     0.843944606266     1.007825032070
           O          1.170244604182     0.461059539420    -0.059232393734    15.994914619560
           H          0.049430604182    -1.087416460580    -0.798152393734     1.007825032070
           H          0.077470604182    -0.953126460580     0.953757606266     1.007825032070
           C          2.396573604182    -0.196292460580    -0.003133393734    12.000000000000
           H          2.506780604182    -0.903527460580    -0.823074393734     1.007825032070
           H          3.172525604182     0.552652539420    -0.079832393734     1.007825032070
           H          2.516333604182    -0.734133460580     0.935043606266     1.007825032070

  Charge       = 0
  Multiplicity = 1
  Basis Set: 6-31G*
  Basis Set:

    Orbital Energies (a.u.)
    -----------------------

    Doubly Occupied:

       1A    -20.563836     2A    -20.560130     3A    -11.272989
       4A    -11.271264     5A    -11.269016     6A     -1.390222
       7A     -1.365382     8A     -1.019386     9A     -0.914014
      10A     -0.844561    11A     -0.707611    12A     -0.675014
      13A     -0.663957    14A     -0.635753    15A     -0.595967
      16A     -0.573865    17A     -0.545311    18A     -0.491949
      19A     -0.479768    20A     -0.439178    21A     -0.423655

  @DF-RHF Final Energy:  -267.95042023866790

   => Energetics <=

    Nuclear Repulsion Energy =            190.3287745535117210
    One-Electron Energy =                -743.1526976090339076
    Two-Electron Energy =                 284.8735028168546251
    DFT Exchange-Correlation Energy =       0.0000000000000000
    Empirical Dispersion Energy =           0.0000000000000000
    PCM Polarization Energy =               0.0000000000000000
    EFP Energy =                            0.0000000000000000
    Total Energy =                       -267.9504202386675615

  Mulliken Charges: (a.u.)
   Center  Symbol    Alpha    Beta     Spin     Total
       1     H     0.28214  0.28214  0.00000  0.43571
       2     O     4.37091  4.37091  0.00000 -0.74183
       3     C     3.00140  3.00140  0.00000 -0.00280
       4     C     2.99958  2.99958  0.00000  0.00085
       5     H     0.42205  0.42205  0.00000  0.15590
       6     H     0.40816  0.40816  0.00000  0.18369
       7     O     4.30693  4.30693  0.00000 -0.61386
       8     H     0.43832  0.43832  0.00000  0.12336
       9     H     0.42307  0.42307  0.00000  0.15386
      10     C     3.08033  3.08033  0.00000 -0.16067
      11     H     0.42916  0.42916  0.00000  0.14168
      12     H     0.41034  0.41034  0.00000  0.17932
      13     H     0.42760  0.42760  0.00000  0.14479

   Total alpha = 21.00000, Total beta = 21.00000, Total charge = -0.00000
