                              Psi4 1.0.54 Driver

  ==> Input File <==

--------------------------------------------------------------------------
set {
	reference rhf
	basis cc-pvtz
}

set_num_threads( 4 )
memory 2 gb

molecule MOL {
0 1

O	 0.796860	 1.214173	 0.428708
C	 0.576499	 0.134701	 -0.003900
C	 -0.765656	 -0.550508	 -0.002152
O	 1.506308	 -0.631411	 -0.550251
C	 -1.945526	 0.411052	 0.000603
H	 -0.794329	 -1.203792	 -0.868145
H	 -0.791555	 -1.205429	 0.862701
C	 -3.282915	 -0.321280	 0.002596
H	 -1.880300	 1.059126	 -0.864925
H	 -1.877207	 1.057892	 0.866807
H	 -3.388495	 -0.952755	 -0.873419
H	 -4.107811	 0.380864	 0.004116
H	 -3.385717	 -0.953283	 0.878571
C	 2.819725	 -0.112811	 -0.613491
H	 2.843393	 0.794399	 -1.198695
H	 3.417846	 -0.875643	 -1.084692
H	 3.194930	 0.096604	 0.377169

	symmetry c1
}
set optking {
	frozen_dihedral = ("
		1 2 3 6
	")
}

ee,wfn = optimize('scf', return_wfn=True)
oeprop( wfn, 'DIPOLE', 'QUADRUPOLE', 'MULLIKEN_CHARGES')
f=open( 'psi4out.xyz', 'w' )
f.write( "17  " )
f.write( str(ee) + "\n" )
f.write( MOL.save_string_xyz() )
f.close()
--------------------------------------------------------------------------

    Molecular point group: c1
  Charge       = 0
  Multiplicity = 1
  Basis Set: CC-PVTZ
  Basis Set:
  @DF-RHF Final Energy:  -345.03472578289495
    Total Energy =                       -345.0347257828951797
    Molecular point group: c1
  Basis Set: CC-PVTZ
  Basis Set:
  Basis Set: CC-PVTZ
  Basis Set:
  @DF-RHF Final Energy:  -344.12976175736435
    Total Energy =                       -344.1297617573644061
  Basis Set: CC-PVTZ
  Basis Set:
  Basis Set: CC-PVTZ
  Basis Set:
  @DF-RHF Final Energy:  -344.35949200182660
    Total Energy =                       -344.3594920018268795
  Basis Set: CC-PVTZ
  Basis Set:
  Basis Set: CC-PVTZ
  Basis Set:
  @DF-RHF Final Energy:  -344.76662136174366
    Total Energy =                       -344.7666213617432618
  Basis Set: CC-PVTZ
  Basis Set:
  @DF-RHF Final Energy:  -344.95863380040453
    Total Energy =                       -344.9586338004045274
  @DF-RHF Final Energy:  -345.02826531168716
    Total Energy =                       -345.0282653116869369
  @DF-RHF Final Energy:  -345.03239882245191
    Total Energy =                       -345.0323988224521372
  @DF-RHF Final Energy:  -345.03463971992437
    Total Energy =                       -345.0346397199243711
  @DF-RHF Final Energy:  -345.03480459890983
    Total Energy =                       -345.0348045989098864
  Basis Set: CC-PVTZ
  Basis Set:
  @DF-RHF Final Energy:  -345.03466235790580
    Total Energy =                       -345.0346623579061429
  Basis Set: CC-PVTZ
  Basis Set:
  Basis Set: CC-PVTZ
  Basis Set:
  @DF-RHF Final Energy:  -345.03495260251793
    Total Energy =                       -345.0349526025177624
  Basis Set: CC-PVTZ
  Basis Set:
  Basis Set: CC-PVTZ
  Basis Set:
  @DF-RHF Final Energy:  -345.03495627176932
    Total Energy =                       -345.0349562717693743
  Basis Set: CC-PVTZ
  Basis Set:
  Charge       = 0
  Multiplicity = 1
  Basis Set: CC-PVTZ
  Basis Set:

    Orbital Energies (a.u.)
    -----------------------

    Doubly Occupied:

       1A    -20.597638     2A    -20.533521     3A    -11.364971
       4A    -11.278780     5A    -11.234063     6A    -11.221405
       7A    -11.213169     8A     -1.472825     9A     -1.365861
      10A     -1.081901    11A     -1.002427    12A     -0.940848
      13A     -0.828256    14A     -0.770481    15A     -0.702277
      16A     -0.686042    17A     -0.676125    18A     -0.637800
      19A     -0.596572    20A     -0.578603    21A     -0.566933
      22A     -0.530552    23A     -0.523873    24A     -0.501189
      25A     -0.487377    26A     -0.479270    27A     -0.460702
      28A     -0.440341

  @DF-RHF Final Energy:  -345.03495680732834

   => Energetics <=

    Nuclear Repulsion Energy =            313.0033003191276180
    One-Electron Energy =               -1090.5289122153358221
    Two-Electron Energy =                 432.4906550888797483
    DFT Exchange-Correlation Energy =       0.0000000000000000
    Empirical Dispersion Energy =           0.0000000000000000
    PCM Polarization Energy =               0.0000000000000000
    EFP Energy =                            0.0000000000000000
    Total Energy =                       -345.0349568073283990
    Molecular point group: c1
  Basis Set: CC-PVTZ
  Basis Set:

  -Total Gradient:
     Atom            X                  Y                   Z
    ------   -----------------  -----------------  -----------------
       1        0.000150072457    -0.000938734865     0.000366942265
       2       -0.000196236522     0.001207423083    -0.000461119585
       3       -0.000363766491     0.000634720358     0.000162784149
       4        0.000054954140    -0.000072417430    -0.000093233760
       5        0.000012594346     0.000047038738     0.000018779711
       6        0.000342871472    -0.000888934060     0.000018380253
       7       -0.000006434590     0.000024137587    -0.000017661516
       8        0.000008954513    -0.000058668029    -0.000037690905
       9        0.000001432696    -0.000027449017     0.000016438953
      10        0.000001386173     0.000006520322    -0.000016673159
      11        0.000007311741    -0.000004571699     0.000024649488
      12       -0.000007748694     0.000017462619     0.000014213553
      13        0.000007745098     0.000027234176    -0.000009975078
      14        0.000006013914     0.000061785725     0.000044347210
      15        0.000006715982    -0.000048931877    -0.000002026616
      16       -0.000010176950    -0.000001497103     0.000005931502
      17       -0.000015689284     0.000014881475    -0.000034086461

  **** Optimization is complete! (in 13 steps) ****
    Final optimized geometry and variables:
    Molecular point group: c1

    Geometry (in Angstrom), charge = 0, multiplicity = 1:

    O            0.659430472382     0.595376147131     1.234552798323
    C            0.564883194021     0.037942417710     0.194329335191
    C           -0.722393319904    -0.474152387518    -0.400305068532
    O            1.604733355478    -0.245208419293    -0.572045433536
    C           -1.959658069989     0.259584069219     0.101441976911
    H           -0.642984375928    -0.440635640421    -1.479328543290
    H           -0.776085235101    -1.527437295156    -0.136247842244
    C           -3.245478459207    -0.318165414261    -0.479240273214
    H           -1.881478277053     1.310291891262    -0.156697982163
    H           -1.985507007704     0.213734371324     1.182201859671
    H           -3.252576665620    -0.258300465566    -1.562523315832
    H           -4.110929040868     0.220981408638    -0.113224849728
    H           -3.366092060541    -1.361187668705    -0.205753410225
    C            2.881868908376     0.128285341837    -0.094981150638
    H            2.938659101548     1.197431094031     0.044649753910
    H            3.584789652504    -0.186825970178    -0.848917462406
    H            3.096476529725    -0.361543844269     0.843190793183

  Mulliken Charges: (a.u.)
   Center  Symbol    Alpha    Beta     Spin     Total
       1     O     4.19875  4.19875  0.00000 -0.39751
       2     C     2.81103  2.81103  0.00000  0.37794
       3     C     3.09045  3.09045  0.00000 -0.18090
       4     O     4.14535  4.14535  0.00000 -0.29070
       5     C     3.08087  3.08087  0.00000 -0.16174
       6     H     0.43865  0.43865  0.00000  0.12270
       7     H     0.44477  0.44477  0.00000  0.11045
       8     C     3.15115  3.15115  0.00000 -0.30231
       9     H     0.45084  0.45084  0.00000  0.09832
      10     H     0.44163  0.44163  0.00000  0.11673
      11     H     0.45586  0.45586  0.00000  0.08827
      12     H     0.44572  0.44572  0.00000  0.10855
      13     H     0.45511  0.45511  0.00000  0.08978
      14     C     3.03605  3.03605  0.00000 -0.07209
      15     H     0.45422  0.45422  0.00000  0.09155
      16     H     0.44511  0.44511  0.00000  0.10978
      17     H     0.45442  0.45442  0.00000  0.09116

   Total alpha = 28.00000, Total beta = 28.00000, Total charge = -0.00000

*** Psi4 exiting successfully. Buy a developer a beer!
