                              Psi4 1.0.54 Driver

  ==> Input File <==

--------------------------------------------------------------------------
set {
	reference rhf
	basis cc-pvtz
}

set_num_threads( 4 )
memory 2 gb

molecule MOL {
0 1

H	 -1.621138	 2.268525	 0.562876
C	 -1.693605	 1.455064	 1.272277
C	 -0.398100	 0.660300	 1.325482
H	 -2.520930	 0.828818	 0.966393
H	 -1.920231	 1.869947	 2.247170
C	 0.000000	 0.039916	 0.000014
H	 -0.466046	 -0.140689	 2.056714
H	 0.425949	 1.286482	 1.656739
C	 1.286532	 -0.763243	 0.000268
O	 -0.656865	 0.175010	 -0.980117
C	 2.547023	 0.087626	 -0.000114
H	 1.264245	 -1.421103	 -0.864380
H	 1.264290	 -1.420353	 0.865489
H	 2.584452	 0.725630	 -0.872909
H	 3.427035	 -0.544422	 0.000125
H	 2.584484	 0.726356	 0.872143

	symmetry c1
}
set optking {
	frozen_dihedral = ("
		3 6 9 12
	")
}

ee,wfn = optimize('scf', return_wfn=True)
oeprop( wfn, 'DIPOLE', 'QUADRUPOLE', 'MULLIKEN_CHARGES')
f=open( 'psi4out.xyz', 'w' )
f.write( "16  " )
f.write( str(ee) + "\n" )
f.write( MOL.save_string_xyz() )
f.close()
--------------------------------------------------------------------------

    Molecular point group: c1
  Charge       = 0
  Multiplicity = 1
  Basis Set: CC-PVTZ
  Basis Set:
  @DF-RHF Final Energy:  -270.12887280537848
    Total Energy =                       -270.1288728053783643
    Molecular point group: c1
  Basis Set: CC-PVTZ
  Basis Set:
  Basis Set: CC-PVTZ
  Basis Set:
  @DF-RHF Final Energy:  -270.12948712626280
    Total Energy =                       -270.1294871262628590
  Basis Set: CC-PVTZ
  Basis Set:
  Basis Set: CC-PVTZ
  Basis Set:
  @DF-RHF Final Energy:  -270.12899419944398
    Total Energy =                       -270.1289941994440369
  Basis Set: CC-PVTZ
  Basis Set:
  Basis Set: CC-PVTZ
  Basis Set:
  @DF-RHF Final Energy:  -270.12951725269352
    Total Energy =                       -270.1295172526933470
  Basis Set: CC-PVTZ
  Basis Set:
  Basis Set: CC-PVTZ
  Basis Set:
  @DF-RHF Final Energy:  -270.12959803877993
    Total Energy =                       -270.1295980387801592
  Basis Set: CC-PVTZ
  Basis Set:
  Basis Set: CC-PVTZ
  Basis Set:
  @DF-RHF Final Energy:  -270.12960243718237
    Total Energy =                       -270.1296024371823705
  Basis Set: CC-PVTZ
  Basis Set:
  Basis Set: CC-PVTZ
  Basis Set:
  @DF-RHF Final Energy:  -270.12960365661269
    Total Energy =                       -270.1296036566128578
  Basis Set: CC-PVTZ
  Basis Set:
  Charge       = 0
  Multiplicity = 1
  Basis Set: CC-PVTZ
  Basis Set:

    Orbital Energies (a.u.)
    -----------------------

    Doubly Occupied:

       1A    -20.537929     2A    -11.317056     3A    -11.232189
       4A    -11.230679     5A    -11.226892     6A    -11.211602
       7A     -1.397777     8A     -1.073078     9A     -1.037020
      10A     -0.911743    11A     -0.858863    12A     -0.727427
      13A     -0.665443    14A     -0.643536    15A     -0.627508
      16A     -0.606438    17A     -0.564044    18A     -0.541359
      19A     -0.534417    20A     -0.511048    21A     -0.504282
      22A     -0.499108    23A     -0.482119    24A     -0.398594

  @DF-RHF Final Energy:  -270.12960373538715

   => Energetics <=

    Nuclear Repulsion Energy =            241.0252236505432677
    One-Electron Energy =                -843.6293542699820591
    Two-Electron Energy =                 332.4745268840517838
    DFT Exchange-Correlation Energy =       0.0000000000000000
    Empirical Dispersion Energy =           0.0000000000000000
    PCM Polarization Energy =               0.0000000000000000
    EFP Energy =                            0.0000000000000000
    Total Energy =                       -270.1296037353870361
    Molecular point group: c1
  Basis Set: CC-PVTZ
  Basis Set:

  -Total Gradient:
     Atom            X                  Y                   Z
    ------   -----------------  -----------------  -----------------
       1       -0.000000894975     0.000001190513    -0.000000762342
       2        0.000005380248    -0.000002100770    -0.000001487520
       3        0.000458999262     0.000761084198    -0.000198868250
       4       -0.000007096317     0.000000201795    -0.000001450049
       5        0.000000021610    -0.000001876529    -0.000001842091
       6       -0.000578716298    -0.000918262569     0.000125888183
       7        0.000001878613     0.000000174202     0.000000492468
       8        0.000005949492    -0.000000052644    -0.000002458546
       9       -0.000428324371    -0.000722517684     0.000723715061
      10        0.000013581986     0.000001535212     0.000024514870
      11        0.000017616440     0.000020301960    -0.000006080677
      12        0.000518244533     0.000862782218    -0.000655164016
      13        0.000001227523     0.000002254557    -0.000005512119
      14       -0.000001904931    -0.000000719838     0.000000896759
      15       -0.000002822585    -0.000000427038     0.000000394596
      16       -0.000003140228    -0.000003567582    -0.000002276330

  **** Optimization is complete! (in 8 steps) ****
    Final optimized geometry and variables:
    Molecular point group: c1

    Geometry (in Angstrom), charge = 0, multiplicity = 1:

    H           -1.652418441278     2.059165661105     0.302227592361
    C           -1.839763858270     1.227518247875     0.968901579851
    C           -0.616596665574     0.330742820616     1.079257885175
    H           -2.686811502987     0.680991647380     0.577647644387
    H           -2.105417457648     1.623092965855     1.941983521033
    C           -0.181531325698    -0.284427321192    -0.236193215735
    H           -0.803458751496    -0.491748293310     1.765916052880
    H            0.225236944792     0.872040988498     1.499305656814
    C            1.120414982757    -1.062887141397    -0.239699151444
    O           -0.819954474092    -0.157477931377    -1.230267519050
    C            2.339835135186    -0.137691806263    -0.319051213300
    H            1.104566156235    -1.709662853103    -1.105855122158
    H            1.184323422225    -1.677599917475     0.651872622701
    H            2.292865820810     0.481712339243    -1.206300543013
    H            3.249069385416    -0.723361880005    -0.367587332747
    H            2.413637935596     0.512426042123     0.544201377219

  Mulliken Charges: (a.u.)
   Center  Symbol    Alpha    Beta     Spin     Total
       1     H     0.44935  0.44935  0.00000  0.10130
       2     C     3.14121  3.14121  0.00000 -0.28241
       3     C     3.10624  3.10624  0.00000 -0.21248
       4     H     0.44592  0.44592  0.00000  0.10815
       5     H     0.45081  0.45081  0.00000  0.09837
       6     C     2.86245  2.86245  0.00000  0.27510
       7     H     0.44550  0.44550  0.00000  0.10900
       8     H     0.44532  0.44532  0.00000  0.10937
       9     C     3.09491  3.09491  0.00000 -0.18981
      10     O     4.17544  4.17544  0.00000 -0.35088
      11     C     3.15192  3.15192  0.00000 -0.30383
      12     H     0.43749  0.43749  0.00000  0.12501
      13     H     0.45022  0.45022  0.00000  0.09956
      14     H     0.44489  0.44489  0.00000  0.11021
      15     H     0.44476  0.44476  0.00000  0.11048
      16     H     0.45357  0.45357  0.00000  0.09287

   Total alpha = 24.00000, Total beta = 24.00000, Total charge =  0.00000

*** Psi4 exiting successfully. Buy a developer a beer!
