  ==> Input File <==

--------------------------------------------------------------------------
set {
	reference rhf
	basis 6-31G*
}

set_num_threads( 4 )
memory 2 gb

molecule MOL {
0 1

O	 0.117195	 1.196987	 -0.382630
C	 0.028650	 0.075053	 -0.000277
C	 -1.233602	 -0.752807	 0.000328
O	 1.054134	 -0.610361	 0.488078
C	 -2.501530	 0.091881	 0.000126
H	 -1.193807	 -1.406641	 -0.865785
H	 -1.193516	 -1.405779	 0.867015
H	 -2.545121	 0.729328	 -0.874513
H	 -3.377167	 -0.548497	 0.000561
H	 -2.544818	 0.730135	 0.874258
C	 2.303231	 0.054628	 0.544085
H	 2.620704	 0.350323	 -0.445455
H	 2.997728	 -0.656911	 0.962713
H	 2.239392	 0.930624	 1.173392

	symmetry c1
}
set optking {
	frozen_dihedral = ("
		4 2 3 6
	")
}

ee = optimize('scf')
oeprop('DIPOLE', 'QUADRUPOLE', 'MULLIKEN_CHARGES')
f=open( 'psi4out.xyz', 'w' )
f.write( "14  " )
f.write( str(ee) + "\n" )
f.write( MOL.save_string_xyz() )
f.close()
--------------------------------------------------------------------------

    Molecular point group: c1
  Charge       = 0
  Multiplicity = 1
  Basis Set: 6-31G*
  Basis Set:
  @DF-RHF Final Energy:  -305.87159730884537
    Total Energy =                       -305.8715973088457076
    Molecular point group: c1
  Basis Set: 6-31G*
  Basis Set:
  Basis Set: 6-31G*
  Basis Set:
  @DF-RHF Final Energy:  -305.87159332517967
    Total Energy =                       -305.8715933251795605
  Basis Set: 6-31G*
  Basis Set:
  Basis Set: 6-31G*
  Basis Set:
  @DF-RHF Final Energy:  -305.87140346858064
    Total Energy =                       -305.8714034685806951
  Basis Set: 6-31G*
  Basis Set:
  Basis Set: 6-31G*
  Basis Set:
  @DF-RHF Final Energy:  -305.87177626301025
    Total Energy =                       -305.8717762630099060
  Basis Set: 6-31G*
  Basis Set:
  Basis Set: 6-31G*
  Basis Set:
  @DF-RHF Final Energy:  -305.87177843830762
    Total Energy =                       -305.8717784383076150
  Basis Set: 6-31G*
  Basis Set:
  Charge       = 0
  Multiplicity = 1
  Basis Set: 6-31G*
  Basis Set:

    Orbital Energies (a.u.)
    -----------------------

    Doubly Occupied:

       1A    -20.605388     2A    -20.545510     3A    -11.372971
       4A    -11.281527     5A    -11.238516     6A    -11.217596
       7A     -1.470496     8A     -1.363493     9A     -1.064289
      10A     -0.980416    11A     -0.878595    12A     -0.769655
      13A     -0.700351    14A     -0.682572    15A     -0.671905
      16A     -0.620920    17A     -0.602342    18A     -0.548190
      19A     -0.537596    20A     -0.519508    21A     -0.514192
      22A     -0.496577    23A     -0.457237    24A     -0.438712

  @DF-RHF Final Energy:  -305.87177854438886

   => Energetics <=

    Nuclear Repulsion Energy =            247.1365698455343249
    One-Electron Energy =                -906.8595862407699997
    Two-Electron Energy =                 353.8512378508469283
    DFT Exchange-Correlation Energy =       0.0000000000000000
    Empirical Dispersion Energy =           0.0000000000000000
    PCM Polarization Energy =               0.0000000000000000
    EFP Energy =                            0.0000000000000000
    Total Energy =                       -305.8717785443886896
    Molecular point group: c1
  Basis Set: 6-31G*
  Basis Set:

  -Total Gradient:
     Atom            X                  Y                   Z
    ------   -----------------  -----------------  -----------------
       1       -0.000000995582    -0.000028594861     0.000009139728
       2        0.000114953681    -0.000162689159    -0.001137894557
       3        0.000476664577    -0.000735576497     0.000891775248
       4       -0.000145210196     0.000235284621     0.000733154046
       5        0.000001206073     0.000003974929    -0.000004941624
       6       -0.000437441649     0.000680118546    -0.000516363932
       7        0.000001000050     0.000000712781    -0.000005225022
       8       -0.000001215610     0.000002027923    -0.000000646923
       9       -0.000000746250    -0.000000799928     0.000001286697
      10       -0.000000612028    -0.000000857804    -0.000000395028
      11       -0.000022051339     0.000011700597     0.000054186057
      12       -0.000008326786    -0.000003963169    -0.000010686786
      13        0.000005935058    -0.000001284514    -0.000007324781
      14        0.000016840000    -0.000000053466    -0.000006063124

  **** Optimization is complete! (in 6 steps) ****
    Final optimized geometry and variables:
    Molecular point group: c1

    Geometry (in Angstrom), charge = 0, multiplicity = 1:

    O            0.119204647092     1.178159336283    -0.474279806807
    C            0.038633625999     0.055687687906    -0.090739303096
    C           -1.221189477550    -0.776971119628    -0.098793305535
    O            1.072059307359    -0.625943870292     0.384274967482
    C           -2.488428498108     0.070849558939    -0.139393155184
    H           -1.166209837757    -1.412801440128    -0.979413742422
    H           -1.205272482339    -1.437199896458     0.759876878957
    H           -2.490896707181     0.721288729327    -1.004371875951
    H           -3.364239106412    -0.567448457460    -0.184685957238
    H           -2.570412506224     0.694122568918     0.744123525860
    C            2.324460549706     0.035225241984     0.401163650836
    H            2.618211962378     0.318273761586    -0.599411670210
    H            3.026818996269    -0.673797971157     0.810837467680
    H            2.278604449722     0.918686298868     1.021363343076

  Mulliken Charges: (a.u.)
   Center  Symbol    Alpha    Beta     Spin     Total
       1     O     4.28555  4.28555  0.00000 -0.57109
       2     C     2.60694  2.60694  0.00000  0.78612
       3     C     3.20615  3.20615  0.00000 -0.41229
       4     O     4.30568  4.30568  0.00000 -0.61136
       5     C     3.24112  3.24112  0.00000 -0.48223
       6     H     0.39976  0.39976  0.00000  0.20047
       7     H     0.40024  0.40024  0.00000  0.19952
       8     H     0.40485  0.40485  0.00000  0.19030
       9     H     0.41721  0.41721  0.00000  0.16557
      10     H     0.41389  0.41389  0.00000  0.17222
      11     C     3.09280  3.09280  0.00000 -0.18559
      12     H     0.40907  0.40907  0.00000  0.18186
      13     H     0.40833  0.40833  0.00000  0.18335
      14     H     0.40842  0.40842  0.00000  0.18316

   Total alpha = 24.00000, Total beta = 24.00000, Total charge = -0.00000
