  ==> Input File <==

--------------------------------------------------------------------------
set {
	reference rhf
	basis 6-31G*
}

set_num_threads( 4 )
memory 2 gb

molecule MOL {
0 1

H	 2.451280	 0.470273	 0.581023
O	 1.555426	 0.604105	 0.854982
C	 0.702312	 0.627605	 -0.264544
C	 -0.714990	 0.596302	 0.266387
H	 0.872331	 -0.240444	 -0.895764
H	 0.862334	 1.525244	 -0.857974
O	 -1.405996	 -0.526611	 -0.195820
H	 -1.257453	 1.468809	 -0.075599
H	 -0.688972	 0.618407	 1.353696
H	 -0.890587	 -1.292708	 0.022039

	symmetry c1
}
set optking {
	frozen_dihedral = ("
		5 3 4 7
	")
}

ee = optimize('scf')
oeprop('DIPOLE', 'QUADRUPOLE', 'MULLIKEN_CHARGES')
f=open( 'psi4out.xyz', 'w' )
f.write( "10  " )
f.write( str(ee) + "\n" )
f.write( MOL.save_string_xyz() )
f.close()
--------------------------------------------------------------------------

    Molecular point group: c1
  Charge       = 0
  Multiplicity = 1
  Basis Set: 6-31G*
  Basis Set:
  @DF-RHF Final Energy:  -228.91431947043606
    Total Energy =                       -228.9143194704360553
    Molecular point group: c1
  Basis Set: 6-31G*
  Basis Set:
  Basis Set: 6-31G*
  Basis Set:
  @DF-RHF Final Energy:  -228.91578578317797
    Total Energy =                       -228.9157857831779666
  Basis Set: 6-31G*
  Basis Set:
  Basis Set: 6-31G*
  Basis Set:
  @DF-RHF Final Energy:  -228.91632352333937
    Total Energy =                       -228.9163235233393152
  Basis Set: 6-31G*
  Basis Set:
  Basis Set: 6-31G*
  Basis Set:
  @DF-RHF Final Energy:  -228.91634252523122
    Total Energy =                       -228.9163425252311868
  Basis Set: 6-31G*
  Basis Set:
  Charge       = 0
  Multiplicity = 1
  Basis Set: 6-31G*
  Basis Set:

    Orbital Energies (a.u.)
    -----------------------

    Doubly Occupied:

       1A    -20.561525     2A    -20.555895     3A    -11.273109
       4A    -11.268812     5A     -1.372860     6A     -1.357441
       7A     -0.995188     8A     -0.846158     9A     -0.726085
      10A     -0.665902    11A     -0.654384    12A     -0.606465
      13A     -0.572950    14A     -0.524582    15A     -0.491350
      16A     -0.447415    17A     -0.433313

  @DF-RHF Final Energy:  -228.91634368086952

   => Energetics <=

    Nuclear Repulsion Energy =            131.3517175113320548
    One-Electron Energy =                -573.8292567675746341
    Two-Electron Energy =                 213.5611955753730058
    DFT Exchange-Correlation Energy =       0.0000000000000000
    Empirical Dispersion Energy =           0.0000000000000000
    PCM Polarization Energy =               0.0000000000000000
    EFP Energy =                            0.0000000000000000
    Total Energy =                       -228.9163436808696019
    Molecular point group: c1
  Basis Set: 6-31G*
  Basis Set:

  -Total Gradient:
     Atom            X                  Y                   Z
    ------   -----------------  -----------------  -----------------
       1        0.000003478969     0.000004072511     0.000011064778
       2       -0.000004545119    -0.000004952784    -0.000014828014
       3       -0.000514407087     0.001032582095    -0.001381097359
       4        0.000416766550    -0.000897256757     0.001188285976
       5        0.000321449723    -0.000645528419     0.000936042679
       6        0.000023848633     0.000004011373    -0.000016264251
       7       -0.000297927939     0.000481209156    -0.000734322439
       8        0.000039361018     0.000016823680     0.000013801969
       9        0.000016022704     0.000021472377     0.000006445552
      10       -0.000004047456    -0.000012433233    -0.000009128892

  **** Optimization is complete! (in 5 steps) ****
    Final optimized geometry and variables:
    Molecular point group: c1

    Geometry (in Angstrom), charge = 0, multiplicity = 1:

    H            2.427921804631     0.342757406697     0.411197451409
    O            1.528562783616     0.276598764218     0.699432049698
    C            0.667922177722     0.341333276121    -0.411963752152
    C           -0.778908205636     0.285883965734     0.093191670215
    H            0.836395594789    -0.501242084430    -1.077423302254
    H            0.846987535396     1.253682601119    -0.975253630335
    O           -1.498931479395    -0.805795686238    -0.415703909163
    H           -1.326273197038     1.163801900009    -0.221219832710
    H           -0.758810992265     0.276210296660     1.177969067453
    H           -1.174999425761    -1.604639185096    -0.022676671501

  Mulliken Charges: (a.u.)
   Center  Symbol    Alpha    Beta     Spin     Total
       1     H     0.27985  0.27985  0.00000  0.44030
       2     O     4.37363  4.37363  0.00000 -0.74727
       3     C     3.01526  3.01526  0.00000 -0.03052
       4     C     3.00804  3.00804  0.00000 -0.01608
       5     H     0.42144  0.42144  0.00000  0.15712
       6     H     0.42588  0.42588  0.00000  0.14825
       7     O     4.37072  4.37072  0.00000 -0.74144
       8     H     0.41320  0.41320  0.00000  0.17361
       9     H     0.41113  0.41113  0.00000  0.17774
      10     H     0.28085  0.28085  0.00000  0.43829

   Total alpha = 17.00000, Total beta = 17.00000, Total charge =  0.00000
