  ==> Input File <==

--------------------------------------------------------------------------
set {
	reference rhf
	basis 6-31G*
}

set_num_threads( 4 )
memory 2 gb

molecule MOL {
0 1

H	 -3.650283	 0.221984	 0.000000
C	 -2.577024	 0.154109	 0.000000
C	 -1.960329	 -1.089307	 0.000000
C	 -1.811733	 1.307557	 0.000000
H	 -2.554473	 -1.985285	 0.000000
C	 -0.581547	 -1.175855	 0.000000
H	 -2.287118	 2.271701	 0.000000
C	 -0.428719	 1.219221	 0.000000
H	 -0.090826	 -2.129898	 0.000000
C	 0.198341	 -0.021559	 0.000000
H	 0.149947	 2.124040	 0.000000
C	 1.691355	 -0.173192	 0.000000
C	 2.490924	 0.410658	 -1.146015
O	 2.243801	 -0.746784	 0.891723
H	 2.189024	 -0.027398	 -2.091924
H	 3.537607	 0.204663	 -0.974226
H	 2.342472	 1.483489	 -1.215126

	symmetry c1
}
set optking {
	frozen_dihedral = ("
		13 12 10 8
	")
}

ee = optimize('scf')
oeprop('DIPOLE', 'QUADRUPOLE', 'MULLIKEN_CHARGES')
f=open( 'psi4out.xyz', 'w' )
f.write( "17  " )
f.write( str(ee) + "\n" )
f.write( MOL.save_string_xyz() )
f.close()
--------------------------------------------------------------------------

    Molecular point group: c1
  Charge       = 0
  Multiplicity = 1
  Basis Set: 6-31G*
  Basis Set:
  @DF-RHF Final Energy:  -382.46831455712322
    Total Energy =                       -382.4683145571237901
    Molecular point group: c1
  Basis Set: 6-31G*
  Basis Set:
  Basis Set: 6-31G*
  Basis Set:
  @DF-RHF Final Energy:  -382.46787542392047
    Total Energy =                       -382.4678754239206455
  Basis Set: 6-31G*
  Basis Set:
  Basis Set: 6-31G*
  Basis Set:
  @DF-RHF Final Energy:  -382.46919741774934
    Total Energy =                       -382.4691974177488873
  Basis Set: 6-31G*
  Basis Set:
  Basis Set: 6-31G*
  Basis Set:
  @DF-RHF Final Energy:  -382.46939377079042
    Total Energy =                       -382.4693937707901341
  Basis Set: 6-31G*
  Basis Set:
  Basis Set: 6-31G*
  Basis Set:
  @DF-RHF Final Energy:  -382.46941023726305
    Total Energy =                       -382.4694102372632187
  Basis Set: 6-31G*
  Basis Set:
  Basis Set: 6-31G*
  Basis Set:
  @DF-RHF Final Energy:  -382.46942237934701
    Total Energy =                       -382.4694223793470655
  Basis Set: 6-31G*
  Basis Set:
  Charge       = 0
  Multiplicity = 1
  Basis Set: 6-31G*
  Basis Set:

    Orbital Energies (a.u.)
    -----------------------

    Doubly Occupied:

       1A    -20.554806     2A    -11.333115     3A    -11.246710
       4A    -11.245393     5A    -11.242261     6A    -11.241878
       7A    -11.240614     8A    -11.239187     9A    -11.230983
      10A     -1.400237    11A     -1.165618    12A     -1.049892
      13A     -1.025911    14A     -0.998015    15A     -0.859578
      16A     -0.836782    17A     -0.760953    18A     -0.704107
      19A     -0.660557    20A     -0.644621    21A     -0.623607
      22A     -0.619153    23A     -0.599530    24A     -0.589347
      25A     -0.559799    26A     -0.524813    27A     -0.513020
      28A     -0.502886    29A     -0.490983    30A     -0.410182
      31A     -0.343834    32A     -0.341531

  @DF-RHF Final Energy:  -382.46942270922585

   => Energetics <=

    Nuclear Repulsion Energy =            402.9350865135805293
    One-Electron Energy =               -1317.2092167447456177
    Two-Electron Energy =                 531.8047075219386670
    DFT Exchange-Correlation Energy =       0.0000000000000000
    Empirical Dispersion Energy =           0.0000000000000000
    PCM Polarization Energy =               0.0000000000000000
    EFP Energy =                            0.0000000000000000
    Total Energy =                       -382.4694227092264782
    Molecular point group: c1
  Basis Set: 6-31G*
  Basis Set:

  -Total Gradient:
     Atom            X                  Y                   Z
    ------   -----------------  -----------------  -----------------
       1        0.000000911093     0.000004045871    -0.000001054187
       2       -0.000009009877    -0.000042624415    -0.000032799027
       3       -0.000041604985     0.000017246578    -0.000011262248
       4        0.000050963973     0.000026628964     0.000068281320
       5        0.000001839200    -0.000002188423     0.000005768136
       6        0.000031579201     0.000023577814     0.000019070075
       7       -0.000004564853     0.000001799956    -0.000004393611
       8       -0.000207359868    -0.000081352909     0.004312148293
       9        0.000003973237    -0.000004504088    -0.000007893032
      10        0.000080327389    -0.001403725350    -0.007416171911
      11       -0.000005426908     0.000003500821     0.000007465437
      12        0.000321804120     0.004732473487     0.005108168214
      13       -0.000256638682    -0.003284720418    -0.002019747028
      14        0.000003259560     0.000012214693    -0.000017601829
      15        0.000004982140     0.000001828132     0.000008278937
      16        0.000022713696     0.000005455839    -0.000020833847
      17        0.000002251561    -0.000009656552     0.000002576307

  **** Optimization is complete! (in 7 steps) ****
    Final optimized geometry and variables:
    Molecular point group: c1

    Geometry (in Angstrom), charge = 0, multiplicity = 1:

    H           -3.642314538187     0.271219323704     0.064652541837
    C           -2.569980418437     0.193393251044     0.048926564558
    C           -1.964498320807    -1.054134175816     0.049384821446
    C           -1.792271958193     1.339159355638     0.037655742894
    H           -2.566029018801    -1.945060234858     0.068226041929
    C           -0.584573506569    -1.154661520192     0.042741440093
    H           -2.257888620408     2.308090011274     0.054806326136
    C           -0.410649939630     1.238341060388     0.005626196470
    H           -0.110527038657    -2.118488661888     0.075085025897
    C            0.200416488646    -0.008601502886    -0.004429982804
    H            0.185145900982     2.134103811292    -0.002805455801
    C            1.697629411210    -0.151146544105     0.042905525483
    C            2.495424122672     0.478761603313    -1.077068466761
    O            2.218556430149    -0.819976545704     0.882411692739
    H            2.242263748687    -0.021347978165    -2.007571964125
    H            3.552649293444     0.364854822530    -0.880994225128
    H            2.255796629275     1.529007720956    -1.204406658544

  Mulliken Charges: (a.u.)
   Center  Symbol    Alpha    Beta     Spin     Total
       1     H     0.39627  0.39627  0.00000  0.20746
       2     C     3.09651  3.09651  0.00000 -0.19303
       3     C     3.10093  3.10093  0.00000 -0.20186
       4     C     3.10023  3.10023  0.00000 -0.20046
       5     H     0.39567  0.39567  0.00000  0.20866
       6     C     3.09629  3.09629  0.00000 -0.19257
       7     H     0.39641  0.39641  0.00000  0.20719
       8     C     3.10353  3.10353  0.00000 -0.20707
       9     H     0.38663  0.38663  0.00000  0.22675
      10     C     3.03496  3.03496  0.00000 -0.06992
      11     H     0.39574  0.39574  0.00000  0.20851
      12     C     2.74763  2.74763  0.00000  0.50473
      13     C     3.28682  3.28682  0.00000 -0.57364
      14     O     4.25397  4.25397  0.00000 -0.50794
      15     H     0.40218  0.40218  0.00000  0.19564
      16     H     0.39711  0.39711  0.00000  0.20577
      17     H     0.40911  0.40911  0.00000  0.18177

   Total alpha = 32.00000, Total beta = 32.00000, Total charge =  0.00000
