  ==> Input File <==

--------------------------------------------------------------------------
set {
	reference rhf
	basis 6-31G*
}

set_num_threads( 1 )
memory 2 gb

molecule MOL {
0 1

H	 -2.698709	 -0.000305	 0.034435
C	 -1.693833	 0.000034	 0.434417
O	 -0.828952	 -0.000968	 -0.659236
H	 -1.574200	 0.882896	 1.055746
H	 -1.574147	 -0.881698	 1.057355
C	 -1.250974	 -0.620488	 -1.851962
C	 -1.466723	 -2.123448	 -1.686185
C	 -2.459432	 0.074054	 -2.476621
H	 -0.406547	 -0.477783	 -2.515746
H	 -0.611259	 -2.574343	 -1.194837
H	 -1.586217	 -2.590647	 -2.658646
H	 -2.354877	 -2.349484	 -1.104587
H	 -2.291393	 1.144188	 -2.531701
H	 -2.621377	 -0.297436	 -3.483713
H	 -3.370702	 -0.101594	 -1.913971

	symmetry c1
}
set optking {
	frozen_dihedral = ("
		9 6 3 2
	")
}

ee = energy('scf')
oeprop('DIPOLE', 'QUADRUPOLE', 'MULLIKEN_CHARGES')
f=open( 'psi4out.xyz', 'w' )
f.write( "15  " )
f.write( str(ee) + "\n" )
f.write( MOL.save_string_xyz() )
f.close()
--------------------------------------------------------------------------

    Molecular point group: c1

    Geometry (in Angstrom), charge = 0, multiplicity = 1:

       Center              X                  Y                   Z               Mass
    ------------   -----------------  -----------------  -----------------  -----------------
           H         -1.146873541873     0.531015173823     1.261168414336     1.007825032070
           C         -0.141997541873     0.531354173823     1.661150414336    12.000000000000
           O          0.722883458127     0.530352173823     0.567497414336    15.994914619560
           H         -0.022364541873     1.414216173823     2.282479414336     1.007825032070
           H         -0.022311541873    -0.350377826177     2.284088414336     1.007825032070
           C          0.300861458127    -0.089167826177    -0.625228585664    12.000000000000
           C          0.085112458127    -1.592127826177    -0.459451585664    12.000000000000
           C         -0.907596541873     0.605374173823    -1.249887585664    12.000000000000
           H          1.145288458127     0.053537173823    -1.289012585664     1.007825032070
           H          0.940576458127    -2.043022826177     0.031896414336     1.007825032070
           H         -0.034381541873    -2.059326826177    -1.431912585664     1.007825032070
           H         -0.803041541873    -1.818163826177     0.122146414336     1.007825032070
           H         -0.739557541873     1.675508173823    -1.304967585664     1.007825032070
           H         -1.069541541873     0.233884173823    -2.256979585664     1.007825032070
           H         -1.818866541873     0.429726173823    -0.687237585664     1.007825032070

  Charge       = 0
  Multiplicity = 1
  Basis Set: 6-31G*
  Basis Set:

    Orbital Energies (a.u.)
    -----------------------

    Doubly Occupied:

       1A    -20.545811     2A    -11.275532     3A    -11.261098
       4A    -11.211259     5A    -11.210707     6A     -1.369633
       7A     -1.050475     8A     -0.940237     9A     -0.931286
      10A     -0.781603    11A     -0.676498    12A     -0.639461
      13A     -0.632690    14A     -0.575210    15A     -0.565036
      16A     -0.550450    17A     -0.535732    18A     -0.501270
      19A     -0.497272    20A     -0.439434    21A     -0.404662

  @DF-RHF Final Energy:  -232.13391342422523

   => Energetics <=

    Nuclear Repulsion Energy =            198.9585434586361430
    One-Electron Energy =                -708.9941089464655306
    Two-Electron Energy =                 277.9016520636040468
    DFT Exchange-Correlation Energy =       0.0000000000000000
    Empirical Dispersion Energy =           0.0000000000000000
    PCM Polarization Energy =               0.0000000000000000
    EFP Energy =                            0.0000000000000000
    Total Energy =                       -232.1339134242253408

  Mulliken Charges: (a.u.)
   Center  Symbol    Alpha    Beta     Spin     Total
       1     H     0.43277  0.43277  0.00000  0.13446
       2     C     3.07723  3.07723  0.00000 -0.15447
       3     O     4.31408  4.31408  0.00000 -0.62815
       4     H     0.41519  0.41519  0.00000  0.16963
       5     H     0.42674  0.42674  0.00000  0.14652
       6     C     2.91082  2.91082  0.00000  0.17836
       7     C     3.25203  3.25203  0.00000 -0.50406
       8     C     3.25368  3.25368  0.00000 -0.50735
       9     H     0.41456  0.41456  0.00000  0.17088
      10     H     0.41120  0.41120  0.00000  0.17760
      11     H     0.41966  0.41966  0.00000  0.16068
      12     H     0.42179  0.42179  0.00000  0.15642
      13     H     0.41089  0.41089  0.00000  0.17823
      14     H     0.41879  0.41879  0.00000  0.16243
      15     H     0.42059  0.42059  0.00000  0.15882

   Total alpha = 21.00000, Total beta = 21.00000, Total charge =  0.00000
