  ==> Input File <==

--------------------------------------------------------------------------
set {
	reference rhf
	basis 6-31G*
}

set_num_threads( 4 )
memory 2 gb

molecule MOL {
0 1

O	 -0.416758	 -0.097012	 -2.171576
C	 -0.066844	 -0.598502	 -1.151864
C	 1.131316	 -1.503382	 -0.991016
O	 -0.698257	 -0.426125	 0.001050
C	 1.887940	 -1.730168	 -2.293726
H	 0.777038	 -2.440233	 -0.571439
H	 1.772175	 -1.062586	 -0.233214
H	 1.249445	 -2.185116	 -3.041197
H	 2.736283	 -2.384727	 -2.124369
H	 2.253890	 -0.795016	 -2.699797
C	 -1.853104	 0.406779	 0.000512
C	 -3.066105	 -0.499277	 -0.000959
H	 -1.828410	 1.043074	 -0.873618
H	 -1.829857	 1.042383	 0.875188
H	 -3.071820	 -1.133106	 -0.880383
H	 -3.972708	 0.097145	 -0.001528
H	 -3.073405	 -1.133813	 0.877999

	symmetry c1
}
set optking {
	frozen_dihedral = ("
		2 4 11 13
	")
}

ee = optimize('scf')
oeprop('DIPOLE', 'QUADRUPOLE', 'MULLIKEN_CHARGES')
f=open( 'psi4out.xyz', 'w' )
f.write( "17  " )
f.write( str(ee) + "\n" )
f.write( MOL.save_string_xyz() )
f.close()
--------------------------------------------------------------------------

    Molecular point group: c1
  Charge       = 0
  Multiplicity = 1
  Basis Set: 6-31G*
  Basis Set:
  @DF-RHF Final Energy:  -344.90936683522858
    Total Energy =                       -344.9093668352288091
    Molecular point group: c1
  Basis Set: 6-31G*
  Basis Set:
  Basis Set: 6-31G*
  Basis Set:
  @DF-RHF Final Energy:  -344.91019747747583
    Total Energy =                       -344.9101974774760606
  Basis Set: 6-31G*
  Basis Set:
  Basis Set: 6-31G*
  Basis Set:
  @DF-RHF Final Energy:  -344.91047682764116
    Total Energy =                       -344.9104768276411050
  Basis Set: 6-31G*
  Basis Set:
  Basis Set: 6-31G*
  Basis Set:
  @DF-RHF Final Energy:  -344.91056401894855
    Total Energy =                       -344.9105640189483779
  Basis Set: 6-31G*
  Basis Set:
  Basis Set: 6-31G*
  Basis Set:
  @DF-RHF Final Energy:  -344.91056562196741
    Total Energy =                       -344.9105656219676916
  Basis Set: 6-31G*
  Basis Set:
  Charge       = 0
  Multiplicity = 1
  Basis Set: 6-31G*
  Basis Set:

    Orbital Energies (a.u.)
    -----------------------

    Doubly Occupied:

       1A    -20.600176     2A    -20.544254     3A    -11.372912
       4A    -11.283573     5A    -11.237256     6A    -11.220188
       7A    -11.215569     8A     -1.465715     9A     -1.362423
      10A     -1.069176    11A     -1.029355    12A     -0.914359
      13A     -0.852002    14A     -0.764006    15A     -0.702546
      16A     -0.680161    17A     -0.659460    18A     -0.623569
      19A     -0.604492    20A     -0.568492    21A     -0.551360
      22A     -0.531690    23A     -0.520597    24A     -0.514562
      25A     -0.496062    26A     -0.493060    27A     -0.447774
      28A     -0.437048

  @DF-RHF Final Energy:  -344.91056610557121

   => Energetics <=

    Nuclear Repulsion Energy =            316.8373521733535654
    One-Electron Energy =               -1097.9721628062889067
    Two-Electron Energy =                 436.2242445273639078
    DFT Exchange-Correlation Energy =       0.0000000000000000
    Empirical Dispersion Energy =           0.0000000000000000
    PCM Polarization Energy =               0.0000000000000000
    EFP Energy =                            0.0000000000000000
    Total Energy =                       -344.9105661055714336
    Molecular point group: c1
  Basis Set: 6-31G*
  Basis Set:

  -Total Gradient:
     Atom            X                  Y                   Z
    ------   -----------------  -----------------  -----------------
       1       -0.000026642967     0.000004294489     0.000027511261
       2        0.000716917213     0.001011985602     0.000261687674
       3       -0.000000541669     0.000007958023    -0.000001558516
       4       -0.001213308145    -0.001716930483    -0.000539823378
       5        0.000006131018    -0.000005197105     0.000001254841
       6       -0.000001906612    -0.000002210600    -0.000004395449
       7       -0.000002688327    -0.000005774113    -0.000000448259
       8       -0.000001359189     0.000003085000     0.000006731391
       9        0.000002761226    -0.000001069264    -0.000003244186
      10        0.000002653721     0.000000628799    -0.000002971329
      11        0.001238538721     0.001699244068     0.001048427600
      12        0.000011190073    -0.000022903201    -0.000018628926
      13       -0.000734879342    -0.000982518422    -0.000758187012
      14        0.000017944488    -0.000011777281    -0.000018272000
      15       -0.000000462081    -0.000000942629     0.000006539000
      16       -0.000017345256     0.000010232717     0.000004087886
      17        0.000002997129     0.000011894397    -0.000008710598

  **** Optimization is complete! (in 6 steps) ****
    Final optimized geometry and variables:
    Molecular point group: c1

    Geometry (in Angstrom), charge = 0, multiplicity = 1:

    O            0.048289499758     0.500656018010    -1.257433025587
    C            0.392641147960     0.025224898893    -0.223500898856
    C            1.607575386543    -0.851603279534    -0.034185768271
    O           -0.250657855510     0.196535741079     0.924375666445
    C            2.379597150645    -1.091818679370    -1.325393374912
    H            1.268596531989    -1.785703594750     0.403593042481
    H            2.232832540755    -0.381143045891     0.718729570089
    H            1.757131189296    -1.577086832028    -2.067302581692
    H            3.239939274431    -1.724400530620    -1.134334995771
    H            2.729386357401    -0.158672614993    -1.749848857659
    C           -1.410196635724     1.025233728256     0.956187972982
    C           -2.663179721485     0.169908943085     0.979837200360
    H           -1.406218437535     1.678968045235     0.099301772265
    H           -1.320598211147     1.612611929423     1.859228391895
    H           -2.748226708714    -0.407720003949     0.066157483086
    H           -3.542480160254     0.800831215982     1.066299969038
    H           -2.647326481418    -0.513338989855     1.821580976451

  Mulliken Charges: (a.u.)
   Center  Symbol    Alpha    Beta     Spin     Total
       1     O     4.28685  4.28685  0.00000 -0.57369
       2     C     2.60557  2.60557  0.00000  0.78885
       3     C     3.20540  3.20540  0.00000 -0.41080
       4     O     4.31427  4.31427  0.00000 -0.62855
       5     C     3.23877  3.23877  0.00000 -0.47754
       6     H     0.40069  0.40069  0.00000  0.19862
       7     H     0.40062  0.40062  0.00000  0.19876
       8     H     0.41023  0.41023  0.00000  0.17954
       9     H     0.41829  0.41829  0.00000  0.16341
      10     H     0.40995  0.40995  0.00000  0.18011
      11     C     3.01110  3.01110  0.00000 -0.02220
      12     C     3.24947  3.24947  0.00000 -0.49893
      13     H     0.39676  0.39676  0.00000  0.20649
      14     H     0.41158  0.41158  0.00000  0.17683
      15     H     0.40955  0.40955  0.00000  0.18091
      16     H     0.41778  0.41778  0.00000  0.16443
      17     H     0.41312  0.41312  0.00000  0.17376

   Total alpha = 28.00000, Total beta = 28.00000, Total charge = -0.00000
