  ==> Input File <==

--------------------------------------------------------------------------
set {
	reference rhf
	basis 6-31G*
}

set_num_threads( 1 )
memory 2 gb

molecule MOL {
0 1

H	 -3.420663	 1.227371	 -1.044276
O	 -3.452007	 0.283848	 -0.965577
C	 -3.181085	 -0.079926	 0.364119
C	 -1.765924	 0.277073	 0.805136
H	 -3.327791	 -1.152017	 0.410903
H	 -3.905698	 0.375695	 1.036898
C	 -0.799536	 -0.907672	 0.773685
H	 -1.387215	 1.077205	 0.168480
H	 -1.814746	 0.688623	 1.811846
C	 0.622686	 -0.533717	 1.196320
H	 -0.785651	 -1.329980	 -0.226401
H	 -1.176893	 -1.690153	 1.429978
C	 1.582830	 -1.725946	 1.168016
H	 0.989852	 0.254573	 0.543475
H	 0.603232	 -0.113582	 2.201164
C	 2.999440	 -1.420891	 1.668329
H	 1.637817	 -2.119368	 0.154167
H	 1.165442	 -2.523246	 1.779503
C	 3.786841	 -0.444792	 0.792180
H	 3.551281	 -2.355720	 1.730420
H	 2.946446	 -1.032790	 2.683598
H	 3.845533	 -0.801048	 -0.232894
H	 4.802060	 -0.329835	 1.159540
H	 3.334534	 0.541243	 0.774372

	symmetry c1
}
set optking {
	frozen_dihedral = ("
		20 16 13 17,
		17 13 10 7,
		13 10 7 11,
		11 7 4 3,
		1 2 3 5
	")
}

ee = energy('scf')
oeprop('DIPOLE', 'QUADRUPOLE', 'MULLIKEN_CHARGES')
f=open( 'psi4out.xyz', 'w' )
f.write( "24  " )
f.write( str(ee) + "\n" )
f.write( MOL.save_string_xyz() )
f.close()
--------------------------------------------------------------------------

    Molecular point group: c1

    Geometry (in Angstrom), charge = 0, multiplicity = 1:

       Center              X                  Y                   Z               Mass
    ------------   -----------------  -----------------  -----------------  -----------------
           H         -3.341789776839     1.768586416493    -1.735477530799     1.007825032070
           O         -3.373133776839     0.825063416493    -1.656778530799    15.994914619560
           C         -3.102211776839     0.461289416493    -0.327082530799    12.000000000000
           C         -1.687050776839     0.818288416493     0.113934469201    12.000000000000
           H         -3.248917776839    -0.610801583507    -0.280298530799     1.007825032070
           H         -3.826824776839     0.916910416493     0.345696469201     1.007825032070
           C         -0.720662776839    -0.366456583507     0.082483469201    12.000000000000
           H         -1.308341776839     1.618420416493    -0.522721530799     1.007825032070
           H         -1.735872776839     1.229838416493     1.120644469201     1.007825032070
           C          0.701559223161     0.007498416493     0.505118469201    12.000000000000
           H         -0.706777776839    -0.788764583507    -0.917602530799     1.007825032070
           H         -1.098019776839    -1.148937583507     0.738776469201     1.007825032070
           C          1.661703223161    -1.184730583507     0.476814469201    12.000000000000
           H          1.068725223161     0.795788416493    -0.147726530799     1.007825032070
           H          0.682105223161     0.427633416493     1.509962469201     1.007825032070
           C          3.078313223161    -0.879675583507     0.977127469201    12.000000000000
           H          1.716690223161    -1.578152583507    -0.537034530799     1.007825032070
           H          1.244315223161    -1.982030583507     1.088301469201     1.007825032070
           C          3.865714223161     0.096423416493     0.100978469201    12.000000000000
           H          3.630154223161    -1.814504583507     1.039218469201     1.007825032070
           H          3.025319223161    -0.491574583507     1.992396469201     1.007825032070
           H          3.924406223161    -0.259832583507    -0.924095530799     1.007825032070
           H          4.880933223161     0.211380416493     0.468338469201     1.007825032070
           H          3.413407223161     1.082458416493     0.083170469201     1.007825032070

  Charge       = 0
  Multiplicity = 1
  Basis Set: 6-31G*
  Basis Set:

    Orbital Energies (a.u.)
    -----------------------

    Doubly Occupied:

       1A    -20.551048     2A    -11.265983     3A    -11.216044
       4A    -11.215263     5A    -11.214894     6A    -11.213651
       7A    -11.212787     8A    -11.207809     9A     -1.358014
      10A     -1.090376    11A     -1.049670    12A     -0.985684
      13A     -0.914173    14A     -0.850038    15A     -0.805180
      16A     -0.777368    17A     -0.683725    18A     -0.647813
      19A     -0.624275    20A     -0.619708    21A     -0.596696
      22A     -0.583456    23A     -0.564324    24A     -0.534525
      25A     -0.519062    26A     -0.515292    27A     -0.492075
      28A     -0.478960    29A     -0.465350    30A     -0.460526
      31A     -0.456952    32A     -0.452964    33A     -0.416123

  @DF-RHF Final Energy:  -349.24240085124961

   => Energetics <=

    Nuclear Repulsion Energy =            382.0282747867543094
    One-Electron Energy =               -1230.4617514939591274
    Two-Electron Energy =                 499.1910758559555461
    DFT Exchange-Correlation Energy =       0.0000000000000000
    Empirical Dispersion Energy =           0.0000000000000000
    PCM Polarization Energy =               0.0000000000000000
    EFP Energy =                            0.0000000000000000
    Total Energy =                       -349.2424008512492719

  Mulliken Charges: (a.u.)
   Center  Symbol    Alpha    Beta     Spin     Total
       1     H     0.28360  0.28360  0.00000  0.43280
       2     O     4.36993  4.36993  0.00000 -0.73986
       3     C     2.99749  2.99749  0.00000  0.00503
       4     C     3.16639  3.16639  0.00000 -0.33278
       5     H     0.41396  0.41396  0.00000  0.17207
       6     H     0.42953  0.42953  0.00000  0.14093
       7     C     3.15712  3.15712  0.00000 -0.31424
       8     H     0.42178  0.42178  0.00000  0.15644
       9     H     0.42297  0.42297  0.00000  0.15406
      10     C     3.15433  3.15433  0.00000 -0.30867
      11     H     0.41498  0.41498  0.00000  0.17004
      12     H     0.42345  0.42345  0.00000  0.15309
      13     C     3.15261  3.15261  0.00000 -0.30522
      14     H     0.42122  0.42122  0.00000  0.15757
      15     H     0.42480  0.42480  0.00000  0.15039
      16     C     3.15232  3.15232  0.00000 -0.30464
      17     H     0.42331  0.42331  0.00000  0.15338
      18     H     0.42255  0.42255  0.00000  0.15489
      19     C     3.24112  3.24112  0.00000 -0.48223
      20     H     0.42098  0.42098  0.00000  0.15805
      21     H     0.42377  0.42377  0.00000  0.15246
      22     H     0.42192  0.42192  0.00000  0.15616
      23     H     0.41943  0.41943  0.00000  0.16114
      24     H     0.42043  0.42043  0.00000  0.15913

   Total alpha = 33.00000, Total beta = 33.00000, Total charge =  0.00000
