                              Psi4 1.0.54 Driver

  ==> Input File <==

--------------------------------------------------------------------------
set {
	reference rhf
	basis cc-pvtz
}

set_num_threads( 4 )
memory 2 gb

molecule MOL {
0 1

H	 -3.439298	 -0.761577	 -0.396239
O	 -2.611546	 -0.421582	 -0.681313
C	 -2.021813	 0.336996	 0.342658
C	 -0.669613	 0.837286	 -0.127252
H	 -2.654547	 1.183829	 0.596124
H	 -1.902240	 -0.265520	 1.241023
C	 0.490865	 -0.082543	 0.241244
H	 -0.708709	 0.967192	 -1.204587
H	 -0.507562	 1.822272	 0.303070
C	 1.839800	 0.429565	 -0.255472
H	 0.305636	 -1.070211	 -0.165276
H	 0.527397	 -0.195943	 1.322876
C	 3.001144	 -0.485193	 0.119072
H	 1.804373	 0.541073	 -1.335756
H	 2.020437	 1.423114	 0.146921
H	 2.866892	 -1.477297	 -0.298806
H	 3.943543	 -0.095749	 -0.249061
H	 3.085064	 -0.590459	 1.195790

	symmetry c1
}
set optking {
	frozen_dihedral = ("
		2 3 4 8
	")
}

ee,wfn = optimize('scf', return_wfn=True)
oeprop( wfn, 'DIPOLE', 'QUADRUPOLE', 'MULLIKEN_CHARGES')
f=open( 'psi4out.xyz', 'w' )
f.write( "18  " )
f.write( str(ee) + "\n" )
f.write( MOL.save_string_xyz() )
f.close()
--------------------------------------------------------------------------

    Molecular point group: c1
  Charge       = 0
  Multiplicity = 1
  Basis Set: CC-PVTZ
  Basis Set:
  @DF-RHF Final Energy:  -271.28386432976527
    Total Energy =                       -271.2838643297653789
    Molecular point group: c1
  Basis Set: CC-PVTZ
  Basis Set:
  Basis Set: CC-PVTZ
  Basis Set:
  @DF-RHF Final Energy:  -271.28420622504524
    Total Energy =                       -271.2842062250455228
  Basis Set: CC-PVTZ
  Basis Set:
  Basis Set: CC-PVTZ
  Basis Set:
  @DF-RHF Final Energy:  -271.28425483421358
    Total Energy =                       -271.2842548342138116
  Basis Set: CC-PVTZ
  Basis Set:
  Basis Set: CC-PVTZ
  Basis Set:
  @DF-RHF Final Energy:  -271.28425859613009
    Total Energy =                       -271.2842585961301438
  Basis Set: CC-PVTZ
  Basis Set:
  Charge       = 0
  Multiplicity = 1
  Basis Set: CC-PVTZ
  Basis Set:

    Orbital Energies (a.u.)
    -----------------------

    Doubly Occupied:

       1A    -20.545974     2A    -11.265618     3A    -11.210429
       4A    -11.209687     5A    -11.208173     6A    -11.204228
       7A     -1.363185     8A     -1.077840     9A     -1.009906
      10A     -0.913902    11A     -0.819865    12A     -0.787651
      13A     -0.708052    14A     -0.637577    15A     -0.633078
      16A     -0.581083    17A     -0.571817    18A     -0.562176
      19A     -0.526506    20A     -0.498904    21A     -0.490133
      22A     -0.469981    23A     -0.461895    24A     -0.454221
      25A     -0.427546

  @DF-RHF Final Energy:  -271.28425893507432

   => Energetics <=

    Nuclear Repulsion Energy =            247.9514793072166299
    One-Electron Energy =                -859.1926240275392956
    Two-Electron Energy =                 339.9568857852485735
    DFT Exchange-Correlation Energy =       0.0000000000000000
    Empirical Dispersion Energy =           0.0000000000000000
    PCM Polarization Energy =               0.0000000000000000
    EFP Energy =                            0.0000000000000000
    Total Energy =                       -271.2842589350740354
    Molecular point group: c1
  Basis Set: CC-PVTZ
  Basis Set:

  -Total Gradient:
     Atom            X                  Y                   Z
    ------   -----------------  -----------------  -----------------
       1       -0.000017651961     0.000003584324    -0.000012910465
       2       -0.001589454536     0.002912466998    -0.001287468305
       3        0.002405600999    -0.004672558508     0.001597991348
       4       -0.002297518034     0.006120092773     0.000256706032
       5       -0.000011103291    -0.000006122106    -0.000001220394
       6       -0.000000938922    -0.000004180369    -0.000008106851
       7       -0.000001312620    -0.000029716424    -0.000014480317
       8        0.001523304710    -0.004317552868    -0.000544060022
       9       -0.000021659310    -0.000016801303     0.000007092250
      10        0.000002101910    -0.000006637753    -0.000007922117
      11        0.000004095482    -0.000001128034     0.000007890218
      12       -0.000005411263     0.000008382958    -0.000002621135
      13        0.000002780139     0.000006311811     0.000006121298
      14       -0.000002638994     0.000004659858    -0.000000433734
      15        0.000004795229     0.000000584705     0.000001824672
      16       -0.000002370975     0.000002436445     0.000000989450
      17        0.000004357574    -0.000000612782     0.000000038067
      18        0.000003023857    -0.000003209721     0.000000570006

  **** Optimization is complete! (in 5 steps) ****
    Final optimized geometry and variables:
    Molecular point group: c1

    Geometry (in Angstrom), charge = 0, multiplicity = 1:

    H           -3.314451920590    -0.925165153346    -0.290445006866
    O           -2.524067090875    -0.510315191298    -0.582909061127
    C           -1.970491792645     0.260757621766     0.453977089803
    C           -0.619736187322     0.794343048749    -0.005777636022
    H           -2.636115539881     1.087495425640     0.687881713742
    H           -1.857207351948    -0.333375170818     1.357286003517
    C            0.541375866227    -0.145334005075     0.316958401473
    H           -0.670541163940     0.916092366013    -1.081933091451
    H           -0.438663858863     1.768262889325     0.436583049674
    C            1.878800071243     0.336614004541    -0.236384614061
    H            0.319181935508    -1.130399376007    -0.083810975800
    H            0.622093507314    -0.262078163802     1.395483201744
    C            3.037154704901    -0.597840797253     0.096401405903
    H            1.801546225715     0.444324906147    -1.314687499208
    H            2.093127311115     1.328385159845     0.153563978290
    H            2.867502960748    -1.589724475663    -0.309068989752
    H            3.970567274210    -0.228608482578    -0.312911677803
    H            3.163636803342    -0.698190671368     1.169401680315

  Mulliken Charges: (a.u.)
   Center  Symbol    Alpha    Beta     Spin     Total
       1     H     0.39514  0.39514  0.00000  0.20973
       2     O     4.19997  4.19997  0.00000 -0.39995
       3     C     2.96914  2.96914  0.00000  0.06173
       4     C     3.09001  3.09001  0.00000 -0.18003
       5     H     0.46808  0.46808  0.00000  0.06385
       6     H     0.47523  0.47523  0.00000  0.04954
       7     C     3.08944  3.08944  0.00000 -0.17888
       8     H     0.44960  0.44960  0.00000  0.10081
       9     H     0.45160  0.45160  0.00000  0.09680
      10     C     3.08491  3.08491  0.00000 -0.16982
      11     H     0.44959  0.44959  0.00000  0.10082
      12     H     0.45862  0.45862  0.00000  0.08276
      13     C     3.14983  3.14983  0.00000 -0.29965
      14     H     0.45312  0.45312  0.00000  0.09376
      15     H     0.45614  0.45614  0.00000  0.08771
      16     H     0.45467  0.45467  0.00000  0.09066
      17     H     0.44888  0.44888  0.00000  0.10224
      18     H     0.45604  0.45604  0.00000  0.08792

   Total alpha = 25.00000, Total beta = 25.00000, Total charge = -0.00000

*** Psi4 exiting successfully. Buy a developer a beer!
