  ==> Input File <==

--------------------------------------------------------------------------
set {
	reference rhf
	basis 6-31G*
}

set_num_threads( 1 )
memory 2 gb

molecule MOL {
0 1

H	 2.591676	 2.013956	 0.335017
O	 3.341076	 1.666752	 -0.126416
C	 3.569581	 0.339145	 0.272707
C	 2.539767	 -0.640285	 -0.279495
H	 4.553106	 0.084646	 -0.100901
H	 3.608576	 0.269204	 1.359154
C	 1.115811	 -0.397273	 0.226630
H	 2.556196	 -0.582511	 -1.364741
H	 2.852081	 -1.648031	 -0.010655
C	 0.383051	 -1.695483	 0.576675
H	 0.554930	 0.143012	 -0.530911
H	 1.149242	 0.242867	 1.108358
C	 -1.017823	 -1.504461	 1.169469
H	 0.315417	 -2.319377	 -0.312723
H	 0.986309	 -2.251515	 1.291244
C	 -2.048600	 -0.906953	 0.207720
H	 -1.380394	 -2.472709	 1.508371
H	 -0.949620	 -0.879767	 2.058818
C	 -3.453462	 -0.833883	 0.809765
H	 -2.079407	 -1.504674	 -0.702165
H	 -1.743700	 0.092126	 -0.094242
C	 -4.483029	 -0.231905	 -0.145891
H	 -3.772523	 -1.832275	 1.101143
H	 -3.422822	 -0.245119	 1.724262
H	 -4.560947	 -0.817363	 -1.057698
H	 -5.468246	 -0.195580	 0.308711
H	 -4.211564	 0.781672	 -0.427551

	symmetry c1
}
set optking {
	frozen_dihedral = ("
		14 10 7 4,
		14 10 13 16,
		8 4 3 2,
		10 13 16 20,
		20 16 19 22,
		4 3 2 1
	")
}

ee = energy('scf')
oeprop('DIPOLE', 'QUADRUPOLE', 'MULLIKEN_CHARGES')
f=open( 'psi4out.xyz', 'w' )
f.write( "27  " )
f.write( str(ee) + "\n" )
f.write( MOL.save_string_xyz() )
f.close()
--------------------------------------------------------------------------

    Molecular point group: c1

    Geometry (in Angstrom), charge = 0, multiplicity = 1:

       Center              X                  Y                   Z               Mass
    ------------   -----------------  -----------------  -----------------  -----------------
           H          2.559277624682     2.436607556195     0.040932571471     1.007825032070
           O          3.308677624682     2.089403556195    -0.420500428529    15.994914619560
           C          3.537182624682     0.761796556195    -0.021377428529    12.000000000000
           C          2.507368624682    -0.217633443805    -0.573579428529    12.000000000000
           H          4.520707624682     0.507297556195    -0.394985428529     1.007825032070
           H          3.576177624682     0.691855556195     1.065069571471     1.007825032070
           C          1.083412624682     0.025378556195    -0.067454428529    12.000000000000
           H          2.523797624682    -0.159859443805    -1.658825428529     1.007825032070
           H          2.819682624682    -1.225379443805    -0.304739428529     1.007825032070
           C          0.350652624682    -1.272831443805     0.282590571471    12.000000000000
           H          0.522531624682     0.565663556195    -0.824995428529     1.007825032070
           H          1.116843624682     0.665518556195     0.814273571471     1.007825032070
           C         -1.050221375318    -1.081809443805     0.875384571471    12.000000000000
           H          0.283018624682    -1.896725443805    -0.606807428529     1.007825032070
           H          0.953910624682    -1.828863443805     0.997159571471     1.007825032070
           C         -2.080998375318    -0.484301443805    -0.086364428529    12.000000000000
           H         -1.412792375318    -2.050057443805     1.214286571471     1.007825032070
           H         -0.982018375318    -0.457115443805     1.764733571471     1.007825032070
           C         -3.485860375318    -0.411231443805     0.515680571471    12.000000000000
           H         -2.111805375318    -1.082022443805    -0.996249428529     1.007825032070
           H         -1.776098375318     0.514777556195    -0.388326428529     1.007825032070
           C         -4.515427375318     0.190746556195    -0.439975428529    12.000000000000
           H         -3.804921375318    -1.409623443805     0.807058571471     1.007825032070
           H         -3.455220375318     0.177532556195     1.430177571471     1.007825032070
           H         -4.593345375318    -0.394711443805    -1.351782428529     1.007825032070
           H         -5.500644375318     0.227071556195     0.014626571471     1.007825032070
           H         -4.243962375318     1.204323556195    -0.721635428529     1.007825032070

  Charge       = 0
  Multiplicity = 1
  Basis Set: 6-31G*
  Basis Set:

    Orbital Energies (a.u.)
    -----------------------

    Doubly Occupied:

       1A    -20.551860     2A    -11.266939     3A    -11.219311
       4A    -11.218228     5A    -11.216253     6A    -11.215944
       7A    -11.214436     8A    -11.213894     9A    -11.209439
      10A     -1.358644    11A     -1.095723    12A     -1.061776
      13A     -1.011363    14A     -0.948112    15A     -0.888622
      16A     -0.820907    17A     -0.801210    18A     -0.778623
      19A     -0.697158    20A     -0.648330    21A     -0.629306
      22A     -0.620874    23A     -0.604112    24A     -0.584794
      25A     -0.576651    26A     -0.553693    27A     -0.542451
      28A     -0.526906    29A     -0.508737    30A     -0.496173
      31A     -0.484772    32A     -0.475735    33A     -0.469128
      34A     -0.461462    35A     -0.447240    36A     -0.441405
      37A     -0.423515

  @DF-RHF Final Energy:  -388.27757937276590

   => Energetics <=

    Nuclear Repulsion Energy =            458.8546180124291141
    One-Electron Energy =               -1435.6967815272432745
    Two-Electron Energy =                 588.5645841420464421
    DFT Exchange-Correlation Energy =       0.0000000000000000
    Empirical Dispersion Energy =           0.0000000000000000
    PCM Polarization Energy =               0.0000000000000000
    EFP Energy =                            0.0000000000000000
    Total Energy =                       -388.2775793727677183

  Mulliken Charges: (a.u.)
   Center  Symbol    Alpha    Beta     Spin     Total
       1     H     0.27997  0.27997  0.00000  0.44006
       2     O     4.37126  4.37126  0.00000 -0.74251
       3     C     2.99960  2.99960  0.00000  0.00080
       4     C     3.16194  3.16194  0.00000 -0.32387
       5     H     0.41531  0.41531  0.00000  0.16938
       6     H     0.43204  0.43204  0.00000  0.13592
       7     C     3.16307  3.16307  0.00000 -0.32614
       8     H     0.41320  0.41320  0.00000  0.17361
       9     H     0.42207  0.42207  0.00000  0.15586
      10     C     3.15510  3.15510  0.00000 -0.31020
      11     H     0.41400  0.41400  0.00000  0.17200
      12     H     0.43063  0.43063  0.00000  0.13875
      13     C     3.15382  3.15382  0.00000 -0.30764
      14     H     0.42150  0.42150  0.00000  0.15700
      15     H     0.42173  0.42173  0.00000  0.15654
      16     C     3.15271  3.15271  0.00000 -0.30542
      17     H     0.42135  0.42135  0.00000  0.15729
      18     H     0.42450  0.42450  0.00000  0.15100
      19     C     3.15117  3.15117  0.00000 -0.30234
      20     H     0.42399  0.42399  0.00000  0.15203
      21     H     0.42276  0.42276  0.00000  0.15449
      22     C     3.23922  3.23922  0.00000 -0.47844
      23     H     0.42296  0.42296  0.00000  0.15407
      24     H     0.42334  0.42334  0.00000  0.15332
      25     H     0.42159  0.42159  0.00000  0.15683
      26     H     0.41923  0.41923  0.00000  0.16154
      27     H     0.42195  0.42195  0.00000  0.15610

   Total alpha = 37.00000, Total beta = 37.00000, Total charge =  0.00000
