                              Psi4 1.0.54 Driver

  ==> Input File <==

--------------------------------------------------------------------------
set {
	reference rhf
	basis cc-pvtz
}

set_num_threads( 4 )
memory 2 gb

molecule MOL {
0 1

H	 -2.847929	 0.424835	 0.063124
O	 -2.041679	 -0.058866	 0.103463
C	 -0.959304	 0.780994	 -0.094939
C	 0.354905	 0.037902	 -0.006215
H	 -0.985899	 1.279578	 -1.057596
H	 -0.969809	 1.529522	 0.682889
F	 0.412060	 -0.931028	 -0.902708
F	 1.359641	 0.856111	 -0.239961
F	 0.545380	 -0.506387	 1.171682

	symmetry c1
}
set optking {
	frozen_dihedral = ("
		1 2 3 5
	")
}

ee,wfn = optimize('scf', return_wfn=True)
oeprop( wfn, 'DIPOLE', 'QUADRUPOLE', 'MULLIKEN_CHARGES')
f=open( 'psi4out.xyz', 'w' )
f.write( "9  " )
f.write( str(ee) + "\n" )
f.write( MOL.save_string_xyz() )
f.close()
--------------------------------------------------------------------------

    Molecular point group: c1
  Charge       = 0
  Multiplicity = 1
  Basis Set: CC-PVTZ
  Basis Set:
  @DF-RHF Final Energy:  -450.84296685645620
    Total Energy =                       -450.8429668564562576
    Molecular point group: c1
  Basis Set: CC-PVTZ
  Basis Set:
  Basis Set: CC-PVTZ
  Basis Set:
  @DF-RHF Final Energy:  -450.84432448131679
    Total Energy =                       -450.8443244813166757
  Basis Set: CC-PVTZ
  Basis Set:
  Basis Set: CC-PVTZ
  Basis Set:
  @DF-RHF Final Energy:  -450.84460427466081
    Total Energy =                       -450.8446042746609237
  Basis Set: CC-PVTZ
  Basis Set:
  Basis Set: CC-PVTZ
  Basis Set:
  @DF-RHF Final Energy:  -450.84461557836210
    Total Energy =                       -450.8446155783620384
  Basis Set: CC-PVTZ
  Basis Set:
  Charge       = 0
  Multiplicity = 1
  Basis Set: CC-PVTZ
  Basis Set:

    Orbital Energies (a.u.)
    -----------------------

    Doubly Occupied:

       1A    -26.333690     2A    -26.330088     3A    -26.329999
       4A    -20.582677     5A    -11.490988     6A    -11.310000
       7A     -1.742008     8A     -1.638184     9A     -1.636571
      10A     -1.406532    11A     -1.050874    12A     -0.923366
      13A     -0.833375    14A     -0.831620    15A     -0.788120
      16A     -0.738053    17A     -0.714366    18A     -0.704047
      19A     -0.673323    20A     -0.657293    21A     -0.643337
      22A     -0.641862    23A     -0.600544    24A     -0.530370
      25A     -0.483749

  @DF-RHF Final Energy:  -450.84461759316503

   => Energetics <=

    Nuclear Repulsion Energy =            277.8574347093040160
    One-Electron Energy =               -1178.1740340219757854
    Two-Electron Energy =                 449.4719817195067435
    DFT Exchange-Correlation Energy =       0.0000000000000000
    Empirical Dispersion Energy =           0.0000000000000000
    PCM Polarization Energy =               0.0000000000000000
    EFP Energy =                            0.0000000000000000
    Total Energy =                       -450.8446175931650259
    Molecular point group: c1
  Basis Set: CC-PVTZ
  Basis Set:

  -Total Gradient:
     Atom            X                  Y                   Z
    ------   -----------------  -----------------  -----------------
       1        0.000019404214    -0.000025694148    -0.000034390153
       2        0.000032114748     0.000112448588    -0.000010087587
       3        0.000028549207    -0.000057453865     0.000058899552
       4        0.000085910028     0.000182918627     0.000127106844
       5       -0.000056397322    -0.000023930486     0.000022664075
       6       -0.000033083616    -0.000030764858    -0.000023851802
       7        0.000020187471    -0.000030864708    -0.000031889519
       8       -0.000070681634    -0.000121522718    -0.000035013556
       9       -0.000026003094    -0.000005136428    -0.000073437850

  **** Optimization is complete! (in 5 steps) ****
    Final optimized geometry and variables:
    Molecular point group: c1

    Geometry (in Angstrom), charge = 0, multiplicity = 1:

    H           -2.820948389775     0.312145050513     0.017395571920
    O           -1.990375191384    -0.119409765183     0.096509785088
    C           -0.956418764109     0.780332585407    -0.111772797614
    C            0.349866079930     0.029008699250    -0.017981145568
    H           -0.993570278838     1.235115309721    -1.095356471858
    H           -0.930254173347     1.563307051253     0.637907674581
    F            0.442206731507    -0.916366620035    -0.923778664634
    F            1.350903638946     0.866692737258    -0.211471199093
    F            0.517421403259    -0.526008925368     1.159298105904

  Mulliken Charges: (a.u.)
   Center  Symbol    Alpha    Beta     Spin     Total
       1     H     0.39060  0.39060  0.00000  0.21880
       2     O     4.18440  4.18440  0.00000 -0.36880
       3     C     2.98607  2.98607  0.00000  0.02785
       4     C     2.67634  2.67634  0.00000  0.64733
       5     H     0.46530  0.46530  0.00000  0.06941
       6     H     0.46533  0.46533  0.00000  0.06933
       7     F     4.60893  4.60893  0.00000 -0.21786
       8     F     4.61420  4.61420  0.00000 -0.22840
       9     F     4.60883  4.60883  0.00000 -0.21766

   Total alpha = 25.00000, Total beta = 25.00000, Total charge = -0.00000

*** Psi4 exiting successfully. Buy a developer a beer!
