  ==> Input File <==

--------------------------------------------------------------------------
set {
	reference rhf
	basis cc-pvtz
}

set_num_threads( 4 )
memory 2 gb

molecule MOL {
0 1

O	 -0.694481	 1.313155	 -0.204815
C	 -0.862519	 0.151932	 -0.046791
C	 -2.171428	 -0.477048	 0.339095
O	 0.085519	 -0.757083	 -0.192238
H	 -2.467997	 -1.191667	 -0.417688
H	 -2.923379	 0.287970	 0.444097
H	 -2.053854	 -1.015120	 1.270901
C	 0.422547	 -1.190890	 -1.504756
C	 1.432797	 -0.269927	 -2.156768
H	 -0.476322	 -1.263556	 -2.096845
H	 0.834943	 -2.179410	 -1.368704
H	 1.714711	 -0.667561	 -3.125201
H	 1.017530	 0.717787	 -2.302907
H	 2.325738	 -0.189651	 -1.548650

	symmetry c1
}
set optking {
	frozen_dihedral = ("
		8 4 2 1
	")
}

ee = optimize('scf')
oeprop('DIPOLE', 'QUADRUPOLE', 'MULLIKEN_CHARGES')
f=open( 'psi4out.xyz', 'w' )
f.write( "14  " )
f.write( str(ee) + "\n" )
f.write( MOL.save_string_xyz() )
f.close()
--------------------------------------------------------------------------

    Molecular point group: c1
  Charge       = 0
  Multiplicity = 1
  Basis Set: CC-PVTZ
  Basis Set:
  @DF-RHF Final Energy:  -305.97152543952791
    Total Energy =                       -305.9715254395275679
    Molecular point group: c1
  Basis Set: CC-PVTZ
  Basis Set:
  Basis Set: CC-PVTZ
  Basis Set:
  @DF-RHF Final Energy:  -305.97017069584081
    Total Energy =                       -305.9701706958406930
  Basis Set: CC-PVTZ
  Basis Set:
  Basis Set: CC-PVTZ
  Basis Set:
  @DF-RHF Final Energy:  -305.97252159187519
    Total Energy =                       -305.9725215918749086
  Basis Set: CC-PVTZ
  Basis Set:
  Basis Set: CC-PVTZ
  Basis Set:
  @DF-RHF Final Energy:  -305.97279429882354
    Total Energy =                       -305.9727942988239988
  Basis Set: CC-PVTZ
  Basis Set:
  Basis Set: CC-PVTZ
  Basis Set:
  @DF-RHF Final Energy:  -305.97280294817972
    Total Energy =                       -305.9728029481794920
  Basis Set: CC-PVTZ
  Basis Set:
  Basis Set: CC-PVTZ
  Basis Set:
  @DF-RHF Final Energy:  -305.97280410659391
    Total Energy =                       -305.9728041065938555
  Basis Set: CC-PVTZ
  Basis Set:
  Charge       = 0
  Multiplicity = 1
  Basis Set: CC-PVTZ
  Basis Set:

    Orbital Energies (a.u.)
    -----------------------

    Doubly Occupied:

       1A    -20.575765     2A    -20.545191     3A    -11.370798
       4A    -11.293798     5A    -11.235407     6A    -11.215229
       7A     -1.461050     8A     -1.368881     9A     -1.048197
      10A     -1.005349    11A     -0.881368    12A     -0.771263
      13A     -0.695023    14A     -0.684226    15A     -0.666090
      16A     -0.607883    17A     -0.590436    18A     -0.581191
      19A     -0.558427    20A     -0.539426    21A     -0.513964
      22A     -0.491244    23A     -0.453630    24A     -0.439878

  @DF-RHF Final Energy:  -305.97280420976659

   => Energetics <=

    Nuclear Repulsion Energy =            247.9679078732162338
    One-Electron Energy =                -908.6940029138529553
    Two-Electron Energy =                 354.7532908308698438
    DFT Exchange-Correlation Energy =       0.0000000000000000
    Empirical Dispersion Energy =           0.0000000000000000
    PCM Polarization Energy =               0.0000000000000000
    EFP Energy =                            0.0000000000000000
    Total Energy =                       -305.9728042097668208
    Molecular point group: c1
  Basis Set: CC-PVTZ
  Basis Set:

  -Total Gradient:
     Atom            X                  Y                   Z
    ------   -----------------  -----------------  -----------------
       1        0.000958768640     0.000463617790     0.004114832167
       2       -0.002508564817    -0.001897688094    -0.005945600841
       3       -0.000007861595     0.000012901415    -0.000008284908
       4        0.003819891694     0.003940412187     0.001641860769
       5       -0.000004520912    -0.000006229449    -0.000006358709
       6       -0.000000526835    -0.000007300646    -0.000000522817
       7        0.000000162109    -0.000003169080    -0.000001030697
       8       -0.002235084874    -0.002508938326     0.000216661854
       9       -0.000020331758     0.000012059677     0.000008167633
      10       -0.000003166292    -0.000001528547    -0.000006513594
      11       -0.000000057048    -0.000000169832    -0.000008627244
      12       -0.000000941809    -0.000004185255    -0.000003430656
      13        0.000006707494     0.000000098480    -0.000000911440
      14       -0.000004473999     0.000000119678    -0.000000241512

  **** Optimization is complete! (in 7 steps) ****
    Final optimized geometry and variables:
    Molecular point group: c1

    Geometry (in Angstrom), charge = 0, multiplicity = 1:

    O           -0.438547297607     1.501786442235     0.395708383392
    C           -0.603145621086     0.348618045446     0.565554916430
    C           -1.895580513470    -0.265924319222     1.023084138249
    O            0.391282473778    -0.550330976471     0.440706004755
    H           -2.216149321090    -1.018129652517     0.312056807448
    H           -2.654398005804     0.492354057990     1.129762146754
    H           -1.729835901026    -0.766534323266     1.968833150599
    C            0.743426436788    -0.968372307141    -0.872394913590
    C            1.777103668459    -0.062108869790    -1.508657185356
    H           -0.149968546534    -1.025238302105    -1.486156016463
    H            1.128921972831    -1.970478490187    -0.758172928870
    H            2.046662549819    -0.447925775038    -2.486140085771
    H            1.396606517939     0.943022363672    -1.623588585230
    H            2.668671643614    -0.022215770322    -0.895971434508

  Mulliken Charges: (a.u.)
   Center  Symbol    Alpha    Beta     Spin     Total
       1     O     4.17394  4.17394  0.00000 -0.34788
       2     C     2.80619  2.80619  0.00000  0.38761
       3     C     3.13621  3.13621  0.00000 -0.27242
       4     O     4.17517  4.17517  0.00000 -0.35033
       5     H     0.45077  0.45077  0.00000  0.09846
       6     H     0.43769  0.43769  0.00000  0.12462
       7     H     0.44295  0.44295  0.00000  0.11410
       8     C     2.98139  2.98139  0.00000  0.03722
       9     C     3.13436  3.13436  0.00000 -0.26872
      10     H     0.46697  0.46697  0.00000  0.06606
      11     H     0.44461  0.44461  0.00000  0.11077
      12     H     0.45553  0.45553  0.00000  0.08895
      13     H     0.44362  0.44362  0.00000  0.11275
      14     H     0.45060  0.45060  0.00000  0.09881

   Total alpha = 24.00000, Total beta = 24.00000, Total charge =  0.00000
