  ==> Input File <==

--------------------------------------------------------------------------
set {
	reference rhf
	basis cc-pvtz
}

set_num_threads( 4 )
memory 2 gb

molecule MOL {
0 1

H	 2.641751	 2.072411	 -1.064808
N	 1.874792	 1.436631	 -1.121170
C	 1.860978	 0.530248	 0.016256
H	 1.972707	 0.932256	 -1.977539
C	 0.644130	 -0.381765	 -0.031064
H	 1.822516	 1.131402	 0.918498
H	 2.763398	 -0.078813	 0.084359
C	 -0.678115	 0.376691	 0.025731
H	 0.693998	 -0.977147	 -0.936845
H	 0.693309	 -1.082142	 0.800523
C	 -1.900706	 -0.535531	 -0.022488
H	 -0.725296	 1.079516	 -0.802982
H	 -0.715474	 0.974884	 0.933278
C	 -3.220513	 0.226854	 0.028039
H	 -1.865036	 -1.134397	 -0.928236
H	 -1.857948	 -1.236381	 0.806820
H	 -3.309098	 0.911849	 -0.808725
H	 -4.066838	 -0.449485	 -0.008086
H	 -3.301685	 0.809374	 0.939860

	symmetry c1
}
set optking {
	frozen_dihedral = ("
		6 3 5 9
	")
}

ee = optimize('scf')
oeprop('DIPOLE', 'QUADRUPOLE', 'MULLIKEN_CHARGES')
f=open( 'psi4out.xyz', 'w' )
f.write( "19  " )
f.write( str(ee) + "\n" )
f.write( MOL.save_string_xyz() )
f.close()
--------------------------------------------------------------------------

    Molecular point group: c1
  Charge       = 0
  Multiplicity = 1
  Basis Set: CC-PVTZ
  Basis Set:
  @DF-RHF Final Energy:  -251.44732004703243
    Total Energy =                       -251.4473200470325764
    Molecular point group: c1
  Basis Set: CC-PVTZ
  Basis Set:
  Basis Set: CC-PVTZ
  Basis Set:
  @DF-RHF Final Energy:  -251.44751407316033
    Total Energy =                       -251.4475140731602210
  Basis Set: CC-PVTZ
  Basis Set:
  Basis Set: CC-PVTZ
  Basis Set:
  @DF-RHF Final Energy:  -251.44756482632627
    Total Energy =                       -251.4475648263266407
  Basis Set: CC-PVTZ
  Basis Set:
  Basis Set: CC-PVTZ
  Basis Set:
  @DF-RHF Final Energy:  -251.44756726211477
    Total Energy =                       -251.4475672621147737
  Basis Set: CC-PVTZ
  Basis Set:
  Charge       = 0
  Multiplicity = 1
  Basis Set: CC-PVTZ
  Basis Set:

    Orbital Energies (a.u.)
    -----------------------

    Doubly Occupied:

       1A    -15.527290     2A    -11.238954     3A    -11.208696
       4A    -11.207341     5A    -11.201368     6A    -11.201234
       7A     -1.179108     8A     -1.068221     9A     -0.996571
      10A     -0.902668    11A     -0.811729    12A     -0.781475
      13A     -0.667611    14A     -0.635018    15A     -0.620023
      16A     -0.586325    17A     -0.562633    18A     -0.547745
      19A     -0.531145    20A     -0.492060    21A     -0.480584
      22A     -0.461914    23A     -0.456566    24A     -0.449788
      25A     -0.381888

  @DF-RHF Final Energy:  -251.44756763643289

   => Energetics <=

    Nuclear Repulsion Energy =            249.3423212631562933
    One-Electron Energy =                -833.1838685933767010
    Two-Electron Energy =                 332.3939796937877418
    DFT Exchange-Correlation Energy =       0.0000000000000000
    Empirical Dispersion Energy =           0.0000000000000000
    PCM Polarization Energy =               0.0000000000000000
    EFP Energy =                            0.0000000000000000
    Total Energy =                       -251.4475676364327228
    Molecular point group: c1
  Basis Set: CC-PVTZ
  Basis Set:

  -Total Gradient:
     Atom            X                  Y                   Z
    ------   -----------------  -----------------  -----------------
       1        0.000015791344     0.000007115716    -0.000009081483
       2       -0.000003063353    -0.000026396463     0.000025538576
       3       -0.000371121356     0.000486692563    -0.000334267222
       4       -0.000000266837     0.000004825832    -0.000025794331
       5       -0.000313853848     0.000479112614    -0.000376360216
       6        0.000332388226    -0.000469779213     0.000357586115
       7       -0.000001072083     0.000009542201    -0.000023814205
       8        0.000037044934    -0.000031703800     0.000059085995
       9        0.000351563046    -0.000485600292     0.000325165677
      10       -0.000028780675    -0.000008168449     0.000009187413
      11        0.000008021289     0.000005781578     0.000030068756
      12        0.000011863838     0.000008200772    -0.000029217949
      13       -0.000025227929     0.000008367074     0.000007836505
      14       -0.000020031086    -0.000007928757    -0.000014990810
      15        0.000006915601     0.000010398357     0.000010990607
      16        0.000000621319     0.000008067809    -0.000002559616
      17       -0.000001562066     0.000004365164    -0.000002129550
      18       -0.000004640195     0.000006103550    -0.000006895502
      19        0.000005409832    -0.000008996257    -0.000000348759

  **** Optimization is complete! (in 5 steps) ****
    Final optimized geometry and variables:
    Molecular point group: c1

    Geometry (in Angstrom), charge = 0, multiplicity = 1:

    H            2.897535725553     1.770268218408    -0.856848191245
    N            2.135590903384     1.131237224313    -0.936476162807
    C            2.075691736891     0.241044183553     0.213027303205
    H            2.271418175666     0.613578069613    -1.779862298219
    C            0.844182665395    -0.656013575128     0.170452711628
    H            2.042387461129     0.852483678336     1.108812836830
    H            2.961101458819    -0.388675545750     0.300871037417
    C           -0.484019459448     0.092520973129     0.228983250075
    H            0.883108970479    -1.266782600208    -0.729948899231
    H            0.904320804087    -1.351021768351     1.004139727559
    C           -1.695841255392    -0.833790288403     0.179434657408
    H           -0.533214291379     0.802187272867    -0.588181973142
    H           -0.519733403489     0.679041498641     1.144664287161
    C           -3.023212004032    -0.085641214251     0.245649998852
    H           -1.660962267511    -1.421569505768    -0.734174510101
    H           -1.643012835999    -1.545014534913     0.999782630442
    H           -3.120693791096     0.610196140003    -0.580949713202
    H           -3.863635570250    -0.769320139334     0.203873858583
    H           -3.105617270992     0.483674451542     1.165643682669

  Mulliken Charges: (a.u.)
   Center  Symbol    Alpha    Beta     Spin     Total
       1     H     0.42892  0.42892  0.00000  0.14215
       2     N     3.68977  3.68977  0.00000 -0.37954
       3     C     3.03848  3.03848  0.00000 -0.07696
       4     H     0.43101  0.43101  0.00000  0.13798
       5     C     3.09378  3.09378  0.00000 -0.18757
       6     H     0.45660  0.45660  0.00000  0.08679
       7     H     0.45954  0.45954  0.00000  0.08091
       8     C     3.07970  3.07970  0.00000 -0.15939
       9     H     0.45761  0.45761  0.00000  0.08478
      10     H     0.45201  0.45201  0.00000  0.09598
      11     C     3.08400  3.08400  0.00000 -0.16801
      12     H     0.44664  0.44664  0.00000  0.10671
      13     H     0.45912  0.45912  0.00000  0.08175
      14     C     3.14967  3.14967  0.00000 -0.29934
      15     H     0.45610  0.45610  0.00000  0.08779
      16     H     0.45676  0.45676  0.00000  0.08647
      17     H     0.45477  0.45477  0.00000  0.09046
      18     H     0.44979  0.44979  0.00000  0.10041
      19     H     0.45570  0.45570  0.00000  0.08860

   Total alpha = 25.00000, Total beta = 25.00000, Total charge = -0.00000
