  ==> Input File <==

--------------------------------------------------------------------------
set {
	reference rhf
	basis cc-pvtz
}

set_num_threads( 4 )
memory 2 gb

molecule MOL {
0 1

O	 -2.817697	 1.304178	 0.001046
C	 -2.664672	 0.129869	 0.003507
C	 -3.797908	 -0.860100	 -0.001145
O	 -1.481217	 -0.452708	 0.001092
H	 -4.408836	 -0.679689	 -0.875387
H	 -3.443486	 -1.878443	 -0.002770
H	 -4.412123	 -0.683688	 0.871605
C	 -0.332055	 0.384012	 -0.000250
C	 0.892252	 -0.506059	 -0.000295
H	 -0.360822	 1.020205	 -0.874146
H	 -0.359817	 1.021310	 0.872861
C	 1.619353	 -0.483052	 1.341031
H	 1.562091	 -0.182983	 -0.790616
H	 0.590035	 -1.520207	 -0.240782
C	 2.857967	 -1.374339	 1.364873
H	 1.909206	 0.537435	 1.578873
H	 0.938256	 -0.797219	 2.128038
C	 3.584177	 -1.352552	 2.705452
H	 3.540141	 -1.060254	 0.579987
H	 2.569536	 -2.394410	 1.127493
H	 3.915734	 -0.350179	 2.954780
H	 4.457089	 -1.994624	 2.688887
H	 2.937492	 -1.694369	 3.506583

	symmetry c1
}
set optking {
	frozen_dihedral = ("
		13 9 8 10
	")
}

ee = optimize('scf')
oeprop('DIPOLE', 'QUADRUPOLE', 'MULLIKEN_CHARGES')
f=open( 'psi4out.xyz', 'w' )
f.write( "23  " )
f.write( str(ee) + "\n" )
f.write( MOL.save_string_xyz() )
f.close()
--------------------------------------------------------------------------

    Molecular point group: c1
  Charge       = 0
  Multiplicity = 1
  Basis Set: CC-PVTZ
  Basis Set:
  @DF-RHF Final Energy:  -423.12926144437517
    Total Energy =                       -423.1292614443747198
    Molecular point group: c1
  Basis Set: CC-PVTZ
  Basis Set:
  Basis Set: CC-PVTZ
  Basis Set:
  @DF-RHF Final Energy:  -423.12954305720331
    Total Energy =                       -423.1295430572031364
  Basis Set: CC-PVTZ
  Basis Set:
  Basis Set: CC-PVTZ
  Basis Set:
  @DF-RHF Final Energy:  -423.12813487944209
    Total Energy =                       -423.1281348794417454
  Basis Set: CC-PVTZ
  Basis Set:
  Basis Set: CC-PVTZ
  Basis Set:
  @DF-RHF Final Energy:  -423.12977441369475
    Total Energy =                       -423.1297744136950314
  Basis Set: CC-PVTZ
  Basis Set:
  Basis Set: CC-PVTZ
  Basis Set:
  @DF-RHF Final Energy:  -423.12978619379572
    Total Energy =                       -423.1297861937955531
  Basis Set: CC-PVTZ
  Basis Set:
  Basis Set: CC-PVTZ
  Basis Set:
  @DF-RHF Final Energy:  -423.12978735771259
    Total Energy =                       -423.1297873577132123
  Basis Set: CC-PVTZ
  Basis Set:
  Charge       = 0
  Multiplicity = 1
  Basis Set: CC-PVTZ
  Basis Set:

    Orbital Energies (a.u.)
    -----------------------

    Doubly Occupied:

       1A    -20.596480     2A    -20.529778     3A    -11.366489
       4A    -11.279593     5A    -11.230998     6A    -11.222146
       7A    -11.219381     8A    -11.218166     9A    -11.210300
      10A     -1.471252    11A     -1.364156    12A     -1.092715
      13A     -1.042073    14A     -1.003382    15A     -0.931783
      16A     -0.843626    17A     -0.800286    18A     -0.783163
      19A     -0.691081    20A     -0.683961    21A     -0.670254
      22A     -0.645504    23A     -0.609144    24A     -0.584595
      25A     -0.580005    26A     -0.573622    27A     -0.559717
      28A     -0.536087    29A     -0.528835    30A     -0.501765
      31A     -0.500008    32A     -0.475037    33A     -0.471116
      34A     -0.466247    35A     -0.447092    36A     -0.439578

  @DF-RHF Final Energy:  -423.12978756710817

   => Energetics <=

    Nuclear Repulsion Energy =            453.7490286882052146
    One-Electron Energy =               -1475.4187955128068097
    Two-Electron Energy =                 598.5399792574942239
    DFT Exchange-Correlation Energy =       0.0000000000000000
    Empirical Dispersion Energy =           0.0000000000000000
    PCM Polarization Energy =               0.0000000000000000
    EFP Energy =                            0.0000000000000000
    Total Energy =                       -423.1297875671073143
    Molecular point group: c1
  Basis Set: CC-PVTZ
  Basis Set:

  -Total Gradient:
     Atom            X                  Y                   Z
    ------   -----------------  -----------------  -----------------
       1       -0.000002996315     0.000011865535    -0.000009033654
       2        0.000014313697    -0.000020436303     0.000012529988
       3       -0.000006882151    -0.000000051988    -0.000012538587
       4       -0.000030245402    -0.000008441357    -0.000007420192
       5       -0.000001874275     0.000000558906     0.000004921505
       6       -0.000000945965    -0.000000462950    -0.000000048869
       7       -0.000000080641    -0.000001893637     0.000004401211
       8       -0.002352301227    -0.003540857814    -0.002563493168
       9        0.002166459868     0.003253910929     0.002996901048
      10        0.001630258398     0.002417206144     0.001647819381
      11        0.000000433402    -0.000002730889     0.000002150651
      12       -0.000010730035    -0.000001508074     0.000005797913
      13       -0.001402370482    -0.002105625481    -0.002086343628
      14       -0.000001820668     0.000000622885     0.000005159941
      15       -0.000007128858    -0.000000431765    -0.000002965556
      16       -0.000000297006    -0.000005362898    -0.000001037150
      17       -0.000000156254     0.000000916447     0.000001331546
      18        0.000006679892     0.000002542948    -0.000000097177
      19       -0.000000544414    -0.000002591944     0.000000090626
      20       -0.000001401423     0.000001100146     0.000002275265
      21       -0.000000205282     0.000000890337     0.000001737722
      22        0.000001898372     0.000001748954     0.000000772589
      23       -0.000000063238    -0.000000968130    -0.000002911406

  **** Optimization is complete! (in 7 steps) ****
    Final optimized geometry and variables:
    Molecular point group: c1

    Geometry (in Angstrom), charge = 0, multiplicity = 1:

    O           -2.576099439379     1.648355928407    -0.619892661554
    C           -2.411669924169     0.475680987141    -0.602058761630
    C           -3.535818599014    -0.524408815257    -0.567883353188
    O           -1.222976330882    -0.096166584947    -0.610971016999
    H           -4.163010197018    -0.366481530378    -1.434980866992
    H           -3.172444057330    -1.539578191496    -0.555827786494
    H           -4.136770542294    -0.336275099051     0.311703949176
    C           -0.081924502801     0.752643763902    -0.642081750806
    C            1.175042103029    -0.114675680825    -0.609060879587
    H           -0.122180749560     1.377207460869    -1.522195926082
    H           -0.125509868442     1.415844179206     0.210753794735
    C            1.885757648848    -0.121545198611     0.740772147817
    H            1.853071321103     0.207252274532    -1.392338434726
    H            0.887815312872    -1.126300199187    -0.872514841391
    C            3.112974841122    -1.026841550349     0.769537507332
    H            2.181844776676     0.892637747169     0.997503529834
    H            1.185046879175    -0.438697698294     1.509228531074
    C            3.824915720076    -1.027009865954     2.118079153958
    H            3.808013385617    -0.713318091358    -0.004745507038
    H            2.815541591617    -2.041233200556     0.518575979609
    H            4.165722151820    -0.031167746003     2.381002883860
    H            4.690235297236    -1.679457595170     2.104737408671
    H            3.165209438473    -1.368711543552     2.908634422228

  Mulliken Charges: (a.u.)
   Center  Symbol    Alpha    Beta     Spin     Total
       1     O     4.20236  4.20236  0.00000 -0.40473
       2     C     2.81197  2.81197  0.00000  0.37605
       3     C     3.13902  3.13902  0.00000 -0.27804
       4     O     4.14742  4.14742  0.00000 -0.29485
       5     H     0.44193  0.44193  0.00000  0.11615
       6     H     0.44229  0.44229  0.00000  0.11542
       7     H     0.44217  0.44217  0.00000  0.11566
       8     C     2.98431  2.98431  0.00000  0.03138
       9     C     3.09218  3.09218  0.00000 -0.18436
      10     H     0.44881  0.44881  0.00000  0.10238
      11     H     0.45481  0.45481  0.00000  0.09037
      12     C     3.09111  3.09111  0.00000 -0.18223
      13     H     0.44804  0.44804  0.00000  0.10393
      14     H     0.44792  0.44792  0.00000  0.10416
      15     C     3.08649  3.08649  0.00000 -0.17299
      16     H     0.45338  0.45338  0.00000  0.09323
      17     H     0.45140  0.45140  0.00000  0.09720
      18     C     3.14959  3.14959  0.00000 -0.29918
      19     H     0.45422  0.45422  0.00000  0.09156
      20     H     0.45334  0.45334  0.00000  0.09333
      21     H     0.45469  0.45469  0.00000  0.09061
      22     H     0.44789  0.44789  0.00000  0.10422
      23     H     0.45464  0.45464  0.00000  0.09072

   Total alpha = 36.00000, Total beta = 36.00000, Total charge = -0.00000
