  ==> Input File <==

--------------------------------------------------------------------------
set {
	reference rhf
	basis 6-31G*
}

set_num_threads( 4 )
memory 2 gb

molecule MOL {
0 1

H	 -2.365627	 -1.312883	 -0.379134
C	 -1.358347	 -1.274295	 0.019669
C	 -0.681945	 0.000119	 -0.470601
H	 -0.826096	 -2.155117	 -0.321105
H	 -1.409554	 -1.292283	 1.100109
C	 -1.357790	 1.274691	 0.020220
N	 0.739525	 -0.000142	 0.006128
H	 -0.594190	 0.000341	 -1.545128
H	 -2.364980	 1.313977	 -0.378631
H	 -0.825080	 2.155361	 -0.320114
H	 -1.409060	 1.292170	 1.100671
O	 1.477269	 0.809850	 -0.463156
O	 1.042170	 -0.812825	 0.826709

	symmetry c1
}
set optking {
	frozen_dihedral = ("
		12 7 3 8
	")
}

ee = optimize('scf')
oeprop('DIPOLE', 'QUADRUPOLE', 'MULLIKEN_CHARGES')
f=open( 'psi4out.xyz', 'w' )
f.write( "13  " )
f.write( str(ee) + "\n" )
f.write( MOL.save_string_xyz() )
f.close()
--------------------------------------------------------------------------

    Molecular point group: c1
  Charge       = 0
  Multiplicity = 1
  Basis Set: 6-31G*
  Basis Set:
  @DF-RHF Final Energy:  -321.73738138451193
    Total Energy =                       -321.7373813845118775
    Molecular point group: c1
  Basis Set: 6-31G*
  Basis Set:
  Basis Set: 6-31G*
  Basis Set:
  @DF-RHF Final Energy:  -321.73535228753337
    Total Energy =                       -321.7353522875334875
  Basis Set: 6-31G*
  Basis Set:
  Basis Set: 6-31G*
  Basis Set:
  @DF-RHF Final Energy:  -321.73602661226010
    Total Energy =                       -321.7360266122601047
  Basis Set: 6-31G*
  Basis Set:
  Basis Set: 6-31G*
  Basis Set:
  @DF-RHF Final Energy:  -321.73822892120745
    Total Energy =                       -321.7382289212076216
  Basis Set: 6-31G*
  Basis Set:
  Basis Set: 6-31G*
  Basis Set:
  @DF-RHF Final Energy:  -321.73829129958676
    Total Energy =                       -321.7382912995867628
  Basis Set: 6-31G*
  Basis Set:
  Basis Set: 6-31G*
  Basis Set:
  @DF-RHF Final Energy:  -321.73830228011229
    Total Energy =                       -321.7383022801121797
  Basis Set: 6-31G*
  Basis Set:
  Charge       = 0
  Multiplicity = 1
  Basis Set: 6-31G*
  Basis Set:

    Orbital Energies (a.u.)
    -----------------------

    Doubly Occupied:

       1A    -20.602497     2A    -20.596548     3A    -15.843859
       4A    -11.307300     5A    -11.246847     6A    -11.240610
       7A     -1.629116     8A     -1.414395     9A     -1.142646
      10A     -0.971219    11A     -0.958455    12A     -0.813176
      13A     -0.757651    14A     -0.725694    15A     -0.721483
      16A     -0.644664    17A     -0.592998    18A     -0.587600
      19A     -0.571630    20A     -0.527216    21A     -0.521957
      22A     -0.481538    23A     -0.471127    24A     -0.446755

  @DF-RHF Final Energy:  -321.73830267432533

   => Energetics <=

    Nuclear Repulsion Energy =            256.8189863766694430
    One-Electron Energy =                -947.4806132627777515
    Two-Electron Energy =                 368.9233242117829832
    DFT Exchange-Correlation Energy =       0.0000000000000000
    Empirical Dispersion Energy =           0.0000000000000000
    PCM Polarization Energy =               0.0000000000000000
    EFP Energy =                            0.0000000000000000
    Total Energy =                       -321.7383026743252685
    Molecular point group: c1
  Basis Set: 6-31G*
  Basis Set:

  -Total Gradient:
     Atom            X                  Y                   Z
    ------   -----------------  -----------------  -----------------
       1        0.000001114841     0.000011717507     0.000003895101
       2        0.000014607485    -0.000012960831    -0.000005800408
       3       -0.000118713885     0.001438091172     0.000258358201
       4       -0.000006256698     0.000002405530    -0.000000105593
       5        0.000000357167    -0.000012750636     0.000017029904
       6        0.000026420154     0.000001306613    -0.000010522785
       7        0.000408736930    -0.000976005293    -0.001011114306
       8        0.000027665880    -0.001043494813    -0.000007195362
       9        0.000002558844    -0.000004501598     0.000000499215
      10        0.000006569070     0.000009577548     0.000005344914
      11        0.000002772565    -0.000009185278    -0.000006403436
      12       -0.000324069193     0.000672381251     0.000706257887
      13       -0.000041763156    -0.000076581171     0.000049756667

  **** Optimization is complete! (in 7 steps) ****
    Final optimized geometry and variables:
    Molecular point group: c1

    Geometry (in Angstrom), charge = 0, multiplicity = 1:

    H           -2.382217471372    -1.305521870234    -0.420873551648
    C           -1.385964325898    -1.292804324136     0.007690316310
    C           -0.682771366723    -0.029548153731    -0.457955534094
    H           -0.862254547302    -2.181868158039    -0.317830518276
    H           -1.471953037781    -1.322873211422     1.085588258285
    C           -1.352291500827     1.256851050245     0.019199494800
    N            0.745893800247     0.000131936393     0.010864103695
    H           -0.588616396878    -0.021017155993    -1.534650548521
    H           -2.369731500880     1.283893156694    -0.352804778254
    H           -0.825532058922     2.127602224371    -0.345154907904
    H           -1.385420307633     1.290769274065     1.102811850918
    O            1.441708747410     0.840035047809    -0.474780052784
    O            1.094760039090    -0.782879699938     0.838001644774

  Mulliken Charges: (a.u.)
   Center  Symbol    Alpha    Beta     Spin     Total
       1     H     0.41243  0.41243  0.00000  0.17514
       2     C     3.24227  3.24227  0.00000 -0.48455
       3     C     3.02437  3.02437  0.00000 -0.04874
       4     H     0.40153  0.40153  0.00000  0.19694
       5     H     0.40161  0.40161  0.00000  0.19677
       6     C     3.24983  3.24983  0.00000 -0.49965
       7     N     3.21820  3.21820  0.00000  0.56361
       8     H     0.38681  0.38681  0.00000  0.22638
       9     H     0.40710  0.40710  0.00000  0.18580
      10     H     0.39233  0.39233  0.00000  0.21535
      11     H     0.40541  0.40541  0.00000  0.18917
      12     O     4.23067  4.23067  0.00000 -0.46134
      13     O     4.22744  4.22744  0.00000 -0.45488

   Total alpha = 24.00000, Total beta = 24.00000, Total charge =  0.00000
