  ==> Input File <==

--------------------------------------------------------------------------
set {
	reference rhf
	basis 6-31G*
}

set_num_threads( 1 )
memory 2 gb

molecule MOL {
0 1

H	 1.633814	 4.839651	 -0.507754
C	 2.288303	 4.667559	 0.355756
C	 1.634374	 3.971949	 1.522424
O	 3.421859	 5.022414	 0.326081
C	 0.930920	 2.670571	 1.112761
H	 2.387537	 3.795960	 2.281688
H	 0.899200	 4.661858	 1.934978
C	 1.894540	 1.577042	 0.644862
H	 0.357894	 2.307721	 1.960857
H	 0.207248	 2.882896	 0.327285
C	 1.180775	 0.282413	 0.250794
H	 2.610311	 1.370301	 1.437816
H	 2.478010	 1.936359	 -0.200711
C	 2.148627	 -0.814315	 -0.201312
H	 0.591715	 -0.065974	 1.095405
H	 0.473669	 0.490319	 -0.551179
C	 3.580890	 -0.659131	 0.322722
H	 2.166869	 -0.852443	 -1.289387
H	 1.762857	 -1.776509	 0.128956
C	 4.324889	 0.564933	 -0.213704
H	 4.142010	 -1.551473	 0.056605
H	 3.564836	 -0.624694	 1.410140
H	 4.342616	 0.565491	 -1.300421
H	 3.866655	 1.493402	 0.110242
H	 5.353900	 0.572371	 0.132816

	symmetry c1
}
set optking {
	frozen_dihedral = ("
		6 3 5 8,
		6 3 2 4,
		3 5 8 12,
		12 8 11 14,
		20 17 14 18
	")
}

ee = energy('scf')
oeprop('DIPOLE', 'QUADRUPOLE', 'MULLIKEN_CHARGES')
f=open( 'psi4out.xyz', 'w' )
f.write( "25  " )
f.write( str(ee) + "\n" )
f.write( MOL.save_string_xyz() )
f.close()
--------------------------------------------------------------------------

    Molecular point group: c1

    Geometry (in Angstrom), charge = 0, multiplicity = 1:

       Center              X                  Y                   Z               Mass
    ------------   -----------------  -----------------  -----------------  -----------------
           H         -0.767522953891     2.906563245028    -0.959124175743     1.007825032070
           C         -0.113033953891     2.734471245028    -0.095614175743    12.000000000000
           C         -0.766962953891     2.038861245028     1.071053824257    12.000000000000
           O          1.020522046109     3.089326245028    -0.125289175743    15.994914619560
           C         -1.470416953891     0.737483245028     0.661390824257    12.000000000000
           H         -0.013799953891     1.862872245028     1.830317824257     1.007825032070
           H         -1.502136953891     2.728770245028     1.483607824257     1.007825032070
           C         -0.506796953891    -0.356045754972     0.193491824257    12.000000000000
           H         -2.043442953891     0.374633245028     1.509486824257     1.007825032070
           H         -2.194088953891     0.949808245028    -0.124085175743     1.007825032070
           C         -1.220561953891    -1.650674754972    -0.200576175743    12.000000000000
           H          0.208974046109    -0.562786754972     0.986445824257     1.007825032070
           H          0.076673046109     0.003271245028    -0.652081175743     1.007825032070
           C         -0.252709953891    -2.747402754972    -0.652682175743    12.000000000000
           H         -1.809621953891    -1.999061754972     0.644034824257     1.007825032070
           H         -1.927667953891    -1.442768754972    -1.002549175743     1.007825032070
           C          1.179553046109    -2.592218754972    -0.128648175743    12.000000000000
           H         -0.234467953891    -2.785530754972    -1.740757175743     1.007825032070
           H         -0.638479953891    -3.709596754972    -0.322414175743     1.007825032070
           C          1.923552046109    -1.368154754972    -0.665074175743    12.000000000000
           H          1.740673046109    -3.484560754972    -0.394765175743     1.007825032070
           H          1.163499046109    -2.557781754972     0.958769824257     1.007825032070
           H          1.941279046109    -1.367596754972    -1.751791175743     1.007825032070
           H          1.465318046109    -0.439685754972    -0.341128175743     1.007825032070
           H          2.952563046109    -1.360716754972    -0.318554175743     1.007825032070

  Charge       = 0
  Multiplicity = 1
  Basis Set: 6-31G*
  Basis Set:

    Orbital Energies (a.u.)
    -----------------------

    Doubly Occupied:

       1A    -20.563158     2A    -11.326987     3A    -11.235032
       4A    -11.233313     5A    -11.220830     6A    -11.219904
       7A    -11.216175     8A    -11.215587     9A    -11.197817
      10A     -1.403132    11A     -1.109558    12A     -1.068355
      13A     -1.003451    14A     -0.953831    15A     -0.877589
      16A     -0.821050    17A     -0.789571    18A     -0.777497
      19A     -0.668366    20A     -0.662011    21A     -0.632457
      22A     -0.628450    23A     -0.608738    24A     -0.593778
      25A     -0.568871    26A     -0.548494    27A     -0.544285
      28A     -0.522942    29A     -0.512777    30A     -0.497321
      31A     -0.485294    32A     -0.482741    33A     -0.454517
      34A     -0.446117    35A     -0.432064    36A     -0.409431

  @DF-RHF Final Energy:  -387.08663716316784

   => Energetics <=

    Nuclear Repulsion Energy =            463.3630261783045512
    One-Electron Energy =               -1443.0365846849917943
    Two-Electron Energy =                 592.5869213435184975
    DFT Exchange-Correlation Energy =       0.0000000000000000
    Empirical Dispersion Energy =           0.0000000000000000
    PCM Polarization Energy =               0.0000000000000000
    EFP Energy =                            0.0000000000000000
    Total Energy =                       -387.0866371631686889

  Mulliken Charges: (a.u.)
   Center  Symbol    Alpha    Beta     Spin     Total
       1     H     0.43188  0.43188  0.00000  0.13624
       2     C     2.83181  2.83181  0.00000  0.33638
       3     C     3.20861  3.20861  0.00000 -0.41722
       4     O     4.23798  4.23798  0.00000 -0.47596
       5     C     3.16283  3.16283  0.00000 -0.32567
       6     H     0.40022  0.40022  0.00000  0.19957
       7     H     0.40634  0.40634  0.00000  0.18733
       8     C     3.17554  3.17554  0.00000 -0.35108
       9     H     0.41397  0.41397  0.00000  0.17206
      10     H     0.42039  0.42039  0.00000  0.15922
      11     C     3.15023  3.15023  0.00000 -0.30046
      12     H     0.41173  0.41173  0.00000  0.17654
      13     H     0.41095  0.41095  0.00000  0.17810
      14     C     3.15527  3.15527  0.00000 -0.31055
      15     H     0.42099  0.42099  0.00000  0.15802
      16     H     0.42049  0.42049  0.00000  0.15902
      17     C     3.16086  3.16086  0.00000 -0.32172
      18     H     0.42154  0.42154  0.00000  0.15692
      19     H     0.41911  0.41911  0.00000  0.16178
      20     C     3.24636  3.24636  0.00000 -0.49272
      21     H     0.41784  0.41784  0.00000  0.16432
      22     H     0.42284  0.42284  0.00000  0.15432
      23     H     0.42345  0.42345  0.00000  0.15309
      24     H     0.40938  0.40938  0.00000  0.18123
      25     H     0.41937  0.41937  0.00000  0.16126

   Total alpha = 36.00000, Total beta = 36.00000, Total charge =  0.00000
