  ==> Input File <==

--------------------------------------------------------------------------
set {
	reference rhf
	basis 6-31G*
}

set_num_threads( 4 )
memory 2 gb

molecule MOL {
0 1

H	 -3.135461	 -1.215070	 0.001379
O	 -2.310168	 -0.871793	 -0.309793
C	 -2.026376	 0.340750	 0.341611
C	 -0.673256	 0.843270	 -0.132153
H	 -2.792215	 1.080697	 0.115987
H	 -2.013526	 0.200402	 1.421792
C	 0.486613	 -0.083066	 0.235839
H	 -0.715586	 0.970948	 -1.210718
H	 -0.508072	 1.829858	 0.297090
C	 1.856665	 0.556826	 0.004947
H	 0.408870	 -0.997512	 -0.343176
H	 0.397271	 -0.370690	 1.282802
C	 3.015695	 -0.366752	 0.378209
H	 1.947556	 0.843849	 -1.040555
H	 1.929553	 1.477273	 0.581062
H	 2.990294	 -1.281857	 -0.206452
H	 3.974077	 0.112219	 0.202043
H	 2.973023	 -0.645043	 1.427611

	symmetry c1
}
set optking {
	frozen_dihedral = ("
		10 7 4 8
	")
}

ee = optimize('scf')
oeprop('DIPOLE', 'QUADRUPOLE', 'MULLIKEN_CHARGES')
f=open( 'psi4out.xyz', 'w' )
f.write( "18  " )
f.write( str(ee) + "\n" )
f.write( MOL.save_string_xyz() )
f.close()
--------------------------------------------------------------------------

    Molecular point group: c1
  Charge       = 0
  Multiplicity = 1
  Basis Set: 6-31G*
  Basis Set:
  @DF-RHF Final Energy:  -271.17947490847683
    Total Energy =                       -271.1794749084767204
    Molecular point group: c1
  Basis Set: 6-31G*
  Basis Set:
  Basis Set: 6-31G*
  Basis Set:
  @DF-RHF Final Energy:  -271.17949447779495
    Total Energy =                       -271.1794944777951173
  Basis Set: 6-31G*
  Basis Set:
  Basis Set: 6-31G*
  Basis Set:
  @DF-RHF Final Energy:  -271.17953454072909
    Total Energy =                       -271.1795345407290370
  Basis Set: 6-31G*
  Basis Set:
  Basis Set: 6-31G*
  Basis Set:
  @DF-RHF Final Energy:  -271.17953640697982
    Total Energy =                       -271.1795364069800485
  Basis Set: 6-31G*
  Basis Set:
  Charge       = 0
  Multiplicity = 1
  Basis Set: 6-31G*
  Basis Set:

    Orbital Energies (a.u.)
    -----------------------

    Doubly Occupied:

       1A    -20.552955     2A    -11.267844     3A    -11.211974
       4A    -11.210942     5A    -11.206527     6A    -11.204634
       7A     -1.359675     8A     -1.074652     9A     -1.008729
      10A     -0.912951    11A     -0.817844    12A     -0.783602
      13A     -0.704317    14A     -0.644606    15A     -0.623414
      16A     -0.577712    17A     -0.571641    18A     -0.558277
      19A     -0.522143    20A     -0.502759    21A     -0.486714
      22A     -0.467174    23A     -0.458019    24A     -0.447924
      25A     -0.428838

  @DF-RHF Final Energy:  -271.17953776014929

   => Energetics <=

    Nuclear Repulsion Energy =            249.0267651156230784
    One-Electron Energy =                -861.2008718993072307
    Two-Electron Energy =                 340.9945690235350071
    DFT Exchange-Correlation Energy =       0.0000000000000000
    Empirical Dispersion Energy =           0.0000000000000000
    PCM Polarization Energy =               0.0000000000000000
    EFP Energy =                            0.0000000000000000
    Total Energy =                       -271.1795377601491168
    Molecular point group: c1
  Basis Set: 6-31G*
  Basis Set:

  -Total Gradient:
     Atom            X                  Y                   Z
    ------   -----------------  -----------------  -----------------
       1        0.000003637561     0.000001230680     0.000001237003
       2        0.000014618880    -0.000031680547     0.000013960929
       3       -0.000048394802     0.000020577125    -0.000030586471
       4        0.001563806425     0.002193889279     0.000698191018
       5       -0.000002112121     0.000023269916     0.000015921516
       6        0.000005975233    -0.000011583664    -0.000007714316
       7       -0.000275939495    -0.001099975888    -0.001929886105
       8       -0.001258788387    -0.001620074422    -0.000112341412
       9        0.000023273107    -0.000016287290    -0.000010699884
      10       -0.000011394328     0.000534337440     0.001366682198
      11        0.000002362155     0.000020285026    -0.000029471755
      12       -0.000011898838    -0.000004032047     0.000020276970
      13        0.000004634454    -0.000003754760    -0.000003718623
      14        0.000002190512    -0.000003348813     0.000004614583
      15       -0.000015319276    -0.000001373262     0.000001391590
      16        0.000002444380     0.000000131136    -0.000000059594
      17        0.000000875256    -0.000001227629     0.000000947307
      18        0.000000029282    -0.000000382277     0.000001255047

  **** Optimization is complete! (in 5 steps) ****
    Final optimized geometry and variables:
    Molecular point group: c1

    Geometry (in Angstrom), charge = 0, multiplicity = 1:

    H           -3.120772569221    -1.272912790687    -0.085430646609
    O           -2.293879095050    -0.925235644431    -0.387403850220
    C           -2.037295759426     0.303152740374     0.245156587173
    C           -0.682005280209     0.812343963506    -0.216116154445
    H           -2.808428176568     1.029019794781    -0.007294003714
    H           -2.040699063206     0.183284068958     1.327830271408
    C            0.476072123691    -0.113988528954     0.161800049709
    H           -0.722265243851     0.928478514519    -1.295976232460
    H           -0.526358022628     1.800353623856     0.212290279428
    C            1.848372602402     0.519453109595    -0.074571515155
    H            0.391750755359    -1.039394107118    -0.398110513607
    H            0.390618326857    -0.383333415213     1.214004616161
    C            3.004721557981    -0.415895739570     0.276893386738
    H            1.933926359059     0.820950402123    -1.116761071071
    H            1.930247936350     1.431217127338     0.513649552949
    H            2.971990995143    -1.320940643859    -0.322867590498
    H            3.964570524854     0.061329754906     0.104087836819
    H            2.965725690276    -0.711717353503     1.321640942058

  Mulliken Charges: (a.u.)
   Center  Symbol    Alpha    Beta     Spin     Total
       1     H     0.28059  0.28059  0.00000  0.43882
       2     O     4.36972  4.36972  0.00000 -0.73945
       3     C     2.99776  2.99776  0.00000  0.00448
       4     C     3.16058  3.16058  0.00000 -0.32116
       5     H     0.42948  0.42948  0.00000  0.14105
       6     H     0.43259  0.43259  0.00000  0.13481
       7     C     3.15095  3.15095  0.00000 -0.30190
       8     H     0.41481  0.41481  0.00000  0.17038
       9     H     0.42392  0.42392  0.00000  0.15216
      10     C     3.15215  3.15215  0.00000 -0.30431
      11     H     0.40906  0.40906  0.00000  0.18187
      12     H     0.42733  0.42733  0.00000  0.14534
      13     C     3.23890  3.23890  0.00000 -0.47780
      14     H     0.42311  0.42311  0.00000  0.15378
      15     H     0.42519  0.42519  0.00000  0.14962
      16     H     0.42089  0.42089  0.00000  0.15821
      17     H     0.42041  0.42041  0.00000  0.15918
      18     H     0.42254  0.42254  0.00000  0.15491

   Total alpha = 25.00000, Total beta = 25.00000, Total charge =  0.00000
