  ==> Input File <==

--------------------------------------------------------------------------
set {
	reference rhf
	basis 6-31G*
}

set_num_threads( 1 )
memory 2 gb

molecule MOL {
0 1

H	 -2.646374	 -0.642757	 1.268656
C	 -2.083525	 -0.384536	 0.393091
O	 -0.807605	 -0.127164	 0.768327
F	 -2.118945	 -1.383102	 -0.486752
F	 -2.621877	 0.670592	 -0.209486
C	 0.089743	 -1.179519	 0.767363
C	 0.849293	 -1.117473	 2.086224
Cl	 1.206316	 -1.055764	 -0.602003
H	 -0.400134	 -2.135420	 0.703745
F	 1.718220	 -2.102980	 2.162904
F	 -0.009530	 -1.251096	 3.077187
F	 1.484943	 0.018686	 2.238092

	symmetry c1
}
set optking {
	frozen_dihedral = ("
		10 7 6 9,
		9 6 3 2
	")
}

ee = energy('scf')
oeprop('DIPOLE', 'QUADRUPOLE', 'MULLIKEN_CHARGES')
f=open( 'psi4out.xyz', 'w' )
f.write( "12  " )
f.write( str(ee) + "\n" )
f.write( MOL.save_string_xyz() )
f.close()
--------------------------------------------------------------------------

    Molecular point group: c1

    Geometry (in Angstrom), charge = 0, multiplicity = 1:

       Center              X                  Y                   Z               Mass
    ------------   -----------------  -----------------  -----------------  -----------------
           H         -2.554335677978     0.177124211894     0.393345826313     1.007825032070
           C         -1.991486677978     0.435345211894    -0.482219173687    12.000000000000
           O         -0.715566677978     0.692717211894    -0.106983173687    15.994914619560
           F         -2.026906677978    -0.563220788106    -1.362062173687    18.998403224000
           F         -2.529838677978     1.490473211894    -1.084796173687    18.998403224000
           C          0.181781322022    -0.359637788106    -0.107947173687    12.000000000000
           C          0.941331322022    -0.297591788106     1.210913826313    12.000000000000
          CL          1.298354322022    -0.235882788106    -1.477313173687    34.968852682000
           H         -0.308095677978    -1.315538788106    -0.171565173687     1.007825032070
           F          1.810258322022    -1.283098788106     1.287593826313    18.998403224000
           F          0.082508322022    -0.431214788106     2.201876826313    18.998403224000
           F          1.576981322022     0.838567211894     1.362781826313    18.998403224000

  Charge       = 0
  Multiplicity = 1
  Basis Set: 6-31G*
  Basis Set:

    Orbital Energies (a.u.)
    -----------------------

    Doubly Occupied:

       1A   -104.844894     2A    -26.365637     3A    -26.363642
       4A    -26.359964     5A    -26.352161     6A    -26.343969
       7A    -20.647990     8A    -11.531071     9A    -11.491366
      10A    -11.404805    11A    -10.579620    12A     -8.048977
      13A     -8.045423    14A     -8.045322    15A     -1.765320
      16A     -1.717848    17A     -1.662227    18A     -1.660175
      19A     -1.638992    20A     -1.487551    21A     -1.181096
      22A     -1.052603    23A     -0.987055    24A     -0.926179
      25A     -0.860982    26A     -0.852754    27A     -0.843522
      28A     -0.835468    29A     -0.820822    30A     -0.788525
      31A     -0.732104    32A     -0.729397    33A     -0.701338
      34A     -0.696618    35A     -0.683491    36A     -0.678587
      37A     -0.662191    38A     -0.660432    39A     -0.647502
      40A     -0.633608    41A     -0.615809    42A     -0.578177
      43A     -0.514207    44A     -0.476673    45A     -0.470295

  @DF-RHF Final Energy: -1146.30659191324980

   => Energetics <=

    Nuclear Repulsion Energy =            731.0578531828061841
    One-Electron Energy =               -3044.7561741956246806
    Two-Electron Energy =                1167.3917290995682379
    DFT Exchange-Correlation Energy =       0.0000000000000000
    Empirical Dispersion Energy =           0.0000000000000000
    PCM Polarization Energy =               0.0000000000000000
    EFP Energy =                            0.0000000000000000
    Total Energy =                      -1146.3065919132500312

  Mulliken Charges: (a.u.)
   Center  Symbol    Alpha    Beta     Spin     Total
       1     H     0.41460  0.41460  0.00000  0.17080
       2     C     2.56433  2.56433  0.00000  0.87133
       3     O     4.30250  4.30250  0.00000 -0.60500
       4     F     4.68318  4.68318  0.00000 -0.36636
       5     F     4.67397  4.67397  0.00000 -0.34793
       6     C     3.04333  3.04333  0.00000 -0.08666
       7     C     2.43243  2.43243  0.00000  1.13513
       8    CL     8.49754  8.49754  0.00000  0.00491
       9     H     0.36824  0.36824  0.00000  0.26352
      10     F     4.67371  4.67371  0.00000 -0.34742
      11     F     4.67869  4.67869  0.00000 -0.35738
      12     F     4.66747  4.66747  0.00000 -0.33495

   Total alpha = 45.00000, Total beta = 45.00000, Total charge = -0.00000
