                              Psi4 1.0.54 Driver

  ==> Input File <==

--------------------------------------------------------------------------
set {
	reference rhf
	basis cc-pvtz
}

set_num_threads( 4 )
memory 2 gb

molecule MOL {
0 1

H	 2.646708	 0.758099	 0.000000
O	 2.258158	 -0.097743	 0.000000
C	 0.911162	 -0.015915	 0.000000
C	 0.214821	 -0.916245	 -0.789506
C	 0.226383	 0.921439	 0.750244
H	 0.762549	 -1.636358	 -1.364772
C	 -1.162118	 -0.870214	 -0.821011
H	 0.766654	 1.620217	 1.362999
C	 -1.156205	 0.956018	 0.708860
H	 -1.696495	 -1.570414	 -1.434657
C	 -1.859503	 0.064428	 -0.073680
H	 -1.680186	 1.687219	 1.294621
H	 -2.931013	 0.094114	 -0.103335

	symmetry c1
}
set optking {
	frozen_dihedral = ("
		4 3 2 1
	")
}

ee,wfn = optimize('scf', return_wfn=True)
oeprop( wfn, 'DIPOLE', 'QUADRUPOLE', 'MULLIKEN_CHARGES')
f=open( 'psi4out.xyz', 'w' )
f.write( "13  " )
f.write( str(ee) + "\n" )
f.write( MOL.save_string_xyz() )
f.close()
--------------------------------------------------------------------------

    Molecular point group: c1
  Charge       = 0
  Multiplicity = 1
  Basis Set: CC-PVTZ
  Basis Set:
  @DF-RHF Final Energy:  -305.66849067415416
    Total Energy =                       -305.6684906741539294
    Molecular point group: c1
  Basis Set: CC-PVTZ
  Basis Set:
  Basis Set: CC-PVTZ
  Basis Set:
  @DF-RHF Final Energy:  -305.66859840700982
    Total Energy =                       -305.6685984070098812
  Basis Set: CC-PVTZ
  Basis Set:
  Basis Set: CC-PVTZ
  Basis Set:
  @DF-RHF Final Energy:  -305.66861441332259
    Total Energy =                       -305.6686144133228709
  Basis Set: CC-PVTZ
  Basis Set:
  Charge       = 0
  Multiplicity = 1
  Basis Set: CC-PVTZ
  Basis Set:

    Orbital Energies (a.u.)
    -----------------------

    Doubly Occupied:

       1A    -20.578862     2A    -11.293916     3A    -11.234722
       4A    -11.233262     5A    -11.226291     6A    -11.222162
       7A    -11.222055     8A     -1.407930     9A     -1.152999
      10A     -1.022633    11A     -1.008397    12A     -0.846488
      13A     -0.827246    14A     -0.740374    15A     -0.686846
      16A     -0.653203    17A     -0.622740    18A     -0.598859
      19A     -0.591881    20A     -0.545751    21A     -0.517414
      22A     -0.495959    23A     -0.480134    24A     -0.342677
      25A     -0.320536

  @DF-RHF Final Energy:  -305.66861610519220

   => Energetics <=

    Nuclear Repulsion Energy =            273.6189790499474839
    One-Electron Energy =                -956.8285202116799155
    Two-Electron Energy =                 377.5409250565404022
    DFT Exchange-Correlation Energy =       0.0000000000000000
    Empirical Dispersion Energy =           0.0000000000000000
    PCM Polarization Energy =               0.0000000000000000
    EFP Energy =                            0.0000000000000000
    Total Energy =                       -305.6686161051920294
    Molecular point group: c1
  Basis Set: CC-PVTZ
  Basis Set:

  -Total Gradient:
     Atom            X                  Y                   Z
    ------   -----------------  -----------------  -----------------
       1       -0.000045492612    -0.000008731407    -0.002640213891
       2        0.000156560881     0.000511815880     0.002567060483
       3       -0.000307855427    -0.001599852380     0.001569623427
       4       -0.000059397977     0.001199065978    -0.001477241156
       5        0.000185066205    -0.000132741721    -0.000009930389
       6        0.000031474256    -0.000011693136    -0.000024525324
       7        0.000215235902    -0.000149248075    -0.000044221940
       8       -0.000009755313    -0.000001043433    -0.000007069988
       9       -0.000249828034    -0.000063429113    -0.000080140565
      10        0.000015363406     0.000020426377     0.000011909842
      11        0.000065005944     0.000240620336     0.000136686464
      12        0.000016007664     0.000009805403    -0.000007479577
      13       -0.000012384887    -0.000014994707     0.000005542614

  **** Optimization is complete! (in 4 steps) ****
    Final optimized geometry and variables:
    Molecular point group: c1

    Geometry (in Angstrom), charge = 0, multiplicity = 1:

    H            2.645828035317     0.754378700359     0.038570124017
    O            2.263227088795    -0.104440395284     0.039236902003
    C            0.907988597273    -0.026520944656     0.023676303335
    C            0.212271593028    -0.926046680565    -0.762692158405
    C            0.225788830411     0.912274625123     0.774950922874
    H            0.759825323859    -1.642236253064    -1.343182692990
    C           -1.167356074530    -0.890150119155    -0.782616483672
    H            0.771955340984     1.602191881672     1.391132530264
    C           -1.155783324063     0.948274647849     0.736279286005
    H           -1.703663934173    -1.593095206099    -1.391269478731
    C           -1.860016407427     0.047758006910    -0.038026774686
    H           -1.680067627449     1.680587186821     1.320309339371
    H           -2.931988971133     0.074755191279    -0.061643260434

  Mulliken Charges: (a.u.)
   Center  Symbol    Alpha    Beta     Spin     Total
       1     H     0.38560  0.38560  0.00000  0.22881
       2     O     4.18352  4.18352  0.00000 -0.36705
       3     C     2.86273  2.86273  0.00000  0.27453
       4     C     3.10898  3.10898  0.00000 -0.21796
       5     C     3.12540  3.12540  0.00000 -0.25080
       6     H     0.41751  0.41751  0.00000  0.16499
       7     C     3.06117  3.06117  0.00000 -0.12233
       8     H     0.42701  0.42701  0.00000  0.14599
       9     C     3.06682  3.06682  0.00000 -0.13364
      10     H     0.42208  0.42208  0.00000  0.15584
      11     C     3.09341  3.09341  0.00000 -0.18682
      12     H     0.42221  0.42221  0.00000  0.15559
      13     H     0.42358  0.42358  0.00000  0.15285

   Total alpha = 25.00000, Total beta = 25.00000, Total charge = -0.00000

*** Psi4 exiting successfully. Buy a developer a beer!
