  ==> Input File <==

--------------------------------------------------------------------------
set {
	reference rhf
	basis 6-31G*
}

set_num_threads( 4 )
memory 2 gb

molecule MOL {
0 1

H	 -0.000158	 1.970498	 0.756846
O	 -0.000074	 1.880206	 -0.189275
C	 -0.000015	 0.544847	 -0.545111
C	 1.319197	 -0.101410	 -0.135209
C	 -0.324630	 0.403032	 -2.028523
H	 -0.787715	 0.055827	 0.008505
F	 1.473954	 -0.002515	 1.167794
F	 1.370806	 -1.376869	 -0.455988
F	 2.341710	 0.510645	 -0.710928
F	 -1.512460	 0.914199	 -2.272046
F	 -0.334060	 -0.853811	 -2.419210
F	 0.556260	 1.058347	 -2.767557

	symmetry c1
}
set optking {
	frozen_dihedral = ("
		6 3 2 1
	")
}

ee = optimize('scf')
oeprop('DIPOLE', 'QUADRUPOLE', 'MULLIKEN_CHARGES')
f=open( 'psi4out.xyz', 'w' )
f.write( "12  " )
f.write( str(ee) + "\n" )
f.write( MOL.save_string_xyz() )
f.close()
--------------------------------------------------------------------------

    Molecular point group: c1
  Charge       = 0
  Multiplicity = 1
  Basis Set: 6-31G*
  Basis Set:
  @DF-RHF Final Energy:  -786.27399690969685
    Total Energy =                       -786.2739969096971890
    Molecular point group: c1
  Basis Set: 6-31G*
  Basis Set:
  Basis Set: 6-31G*
  Basis Set:
  @DF-RHF Final Energy:  -786.27602627027898
    Total Energy =                       -786.2760262702794307
  Basis Set: 6-31G*
  Basis Set:
  Basis Set: 6-31G*
  Basis Set:
  @DF-RHF Final Energy:  -786.27648484448912
    Total Energy =                       -786.2764848444894596
  Basis Set: 6-31G*
  Basis Set:
  Basis Set: 6-31G*
  Basis Set:
  @DF-RHF Final Energy:  -786.27653469953589
    Total Energy =                       -786.2765346995358868
  Basis Set: 6-31G*
  Basis Set:
  Basis Set: 6-31G*
  Basis Set:
  @DF-RHF Final Energy:  -786.27654384669563
    Total Energy =                       -786.2765438466951764
  Basis Set: 6-31G*
  Basis Set:
  Basis Set: 6-31G*
  Basis Set:
  @DF-RHF Final Energy:  -786.27654549458555
    Total Energy =                       -786.2765454945849797
  Basis Set: 6-31G*
  Basis Set:
  Charge       = 0
  Multiplicity = 1
  Basis Set: 6-31G*
  Basis Set:

    Orbital Energies (a.u.)
    -----------------------

    Doubly Occupied:

       1A    -26.362321     2A    -26.359701     3A    -26.357425
       4A    -26.355572     5A    -26.352150     6A    -26.351215
       7A    -20.616612     8A    -11.523916     9A    -11.521771
      10A    -11.349298    11A     -1.761512    12A     -1.753600
      13A     -1.657867    14A     -1.656830    15A     -1.650761
      16A     -1.649326    17A     -1.435083    18A     -1.102295
      19A     -0.994012    20A     -0.932962    21A     -0.864600
      22A     -0.855689    23A     -0.851319    24A     -0.839554
      25A     -0.828889    26A     -0.781225    27A     -0.758783
      28A     -0.727986    29A     -0.720239    30A     -0.716098
      31A     -0.712920    32A     -0.681299    33A     -0.677881
      34A     -0.666088    35A     -0.665713    36A     -0.658981
      37A     -0.651079    38A     -0.632042    39A     -0.617095
      40A     -0.550702    41A     -0.505737

  @DF-RHF Final Energy:  -786.27654578525562

   => Energetics <=

    Nuclear Repulsion Energy =            670.2341089889857813
    One-Electron Energy =               -2427.6050165957703939
    Two-Electron Energy =                 971.0943618215283095
    DFT Exchange-Correlation Energy =       0.0000000000000000
    Empirical Dispersion Energy =           0.0000000000000000
    PCM Polarization Energy =               0.0000000000000000
    EFP Energy =                            0.0000000000000000
    Total Energy =                       -786.2765457852563031
    Molecular point group: c1
  Basis Set: 6-31G*
  Basis Set:

  -Total Gradient:
     Atom            X                  Y                   Z
    ------   -----------------  -----------------  -----------------
       1       -0.000112909620    -0.000004511847     0.000001459094
       2        0.000160002420     0.000004921448     0.000017821849
       3       -0.000093098363    -0.000003074710    -0.000131557965
       4       -0.000063332854     0.000021205700    -0.000004236637
       5       -0.000000476667     0.000005825763     0.000062670020
       6        0.000059729182    -0.000019441974     0.000079425667
       7        0.000035542148    -0.000001509363     0.000003612493
       8        0.000040566893     0.000022288779    -0.000007431157
       9       -0.000006488166    -0.000041338767     0.000033385236
      10        0.000002593225     0.000014319971    -0.000033317792
      11        0.000009848180     0.000020996383    -0.000008829145
      12       -0.000031976378    -0.000019681384    -0.000013001651

  **** Optimization is complete! (in 7 steps) ****
    Final optimized geometry and variables:
    Molecular point group: c1

    Geometry (in Angstrom), charge = 0, multiplicity = 1:

    H           -0.541311610694     1.676609038183     1.792529647286
    O           -0.522314099799     1.573381814030     0.850277192579
    C           -0.517805740015     0.233135401354     0.511193590373
    C            0.812099351889    -0.401464148810     0.902416729200
    C           -0.818103851920     0.160523683688    -0.979484583847
    H           -1.295511148275    -0.329977140223     1.015880240672
    F            1.018819633766    -0.164539147182     2.191706036259
    F            0.793950852957    -1.707953710906     0.734364642888
    F            1.830250078280     0.088555463414     0.234813170614
    F           -2.032426676098     0.617014206849    -1.206911764625
    F           -0.769790840221    -1.090639970527    -1.399534616682
    F            0.027232442138     0.866413805519    -1.693480863692

  Mulliken Charges: (a.u.)
   Center  Symbol    Alpha    Beta     Spin     Total
       1     H     0.26408  0.26408  0.00000  0.47184
       2     O     4.36337  4.36337  0.00000 -0.72674
       3     C     3.05155  3.05155  0.00000 -0.10311
       4     C     2.44236  2.44236  0.00000  1.11528
       5     C     2.43317  2.43317  0.00000  1.13366
       6     H     0.38764  0.38764  0.00000  0.22472
       7     F     4.68721  4.68721  0.00000 -0.37441
       8     F     4.67480  4.67480  0.00000 -0.34961
       9     F     4.66961  4.66961  0.00000 -0.33922
      10     F     4.67715  4.67715  0.00000 -0.35429
      11     F     4.67874  4.67874  0.00000 -0.35749
      12     F     4.67031  4.67031  0.00000 -0.34063

   Total alpha = 41.00000, Total beta = 41.00000, Total charge =  0.00000
