  ==> Input File <==

--------------------------------------------------------------------------
set {
	reference rhf
	basis 6-31G*
}

set_num_threads( 4 )
memory 2 gb

molecule MOL {
0 1

H	 -3.650283	 0.221984	 0.000000
C	 -2.577024	 0.154109	 0.000000
C	 -1.960329	 -1.089307	 0.000000
C	 -1.811733	 1.307557	 0.000000
H	 -2.554473	 -1.985285	 0.000000
C	 -0.581547	 -1.175855	 0.000000
H	 -2.287118	 2.271701	 0.000000
C	 -0.428719	 1.219221	 0.000000
H	 -0.090826	 -2.129898	 0.000000
C	 0.198341	 -0.021559	 0.000000
H	 0.149947	 2.124040	 0.000000
C	 1.691355	 -0.173192	 0.000000
C	 2.469801	 0.202673	 1.243499
O	 2.260237	 -0.584949	 -0.967576
H	 2.318520	 1.247658	 1.494297
H	 3.519650	 0.027854	 1.057097
H	 2.152019	 -0.391750	 2.094062

	symmetry c1
}
set optking {
	frozen_dihedral = ("
		13 12 10 8
	")
}

ee = optimize('scf')
oeprop('DIPOLE', 'QUADRUPOLE', 'MULLIKEN_CHARGES')
f=open( 'psi4out.xyz', 'w' )
f.write( "17  " )
f.write( str(ee) + "\n" )
f.write( MOL.save_string_xyz() )
f.close()
--------------------------------------------------------------------------

    Molecular point group: c1
  Charge       = 0
  Multiplicity = 1
  Basis Set: 6-31G*
  Basis Set:
  @DF-RHF Final Energy:  -382.46669552538600
    Total Energy =                       -382.4666955253863989
    Molecular point group: c1
  Basis Set: 6-31G*
  Basis Set:
  Basis Set: 6-31G*
  Basis Set:
  @DF-RHF Final Energy:  -382.46601325035761
    Total Energy =                       -382.4660132503572640
  Basis Set: 6-31G*
  Basis Set:
  Basis Set: 6-31G*
  Basis Set:
  @DF-RHF Final Energy:  -382.46752468658497
    Total Energy =                       -382.4675246865851932
  Basis Set: 6-31G*
  Basis Set:
  Basis Set: 6-31G*
  Basis Set:
  @DF-RHF Final Energy:  -382.46773071179086
    Total Energy =                       -382.4677307117907503
  Basis Set: 6-31G*
  Basis Set:
  Basis Set: 6-31G*
  Basis Set:
  @DF-RHF Final Energy:  -382.46774393656437
    Total Energy =                       -382.4677439365641476
  Basis Set: 6-31G*
  Basis Set:
  Basis Set: 6-31G*
  Basis Set:
  @DF-RHF Final Energy:  -382.46775118340491
    Total Energy =                       -382.4677511834046300
  Basis Set: 6-31G*
  Basis Set:
  Charge       = 0
  Multiplicity = 1
  Basis Set: 6-31G*
  Basis Set:

    Orbital Energies (a.u.)
    -----------------------

    Doubly Occupied:

       1A    -20.556481     2A    -11.333752     3A    -11.246778
       4A    -11.245009     5A    -11.242289     6A    -11.241410
       7A    -11.240365     8A    -11.239366     9A    -11.231303
      10A     -1.401604    11A     -1.165575    12A     -1.050038
      13A     -1.025680    14A     -0.998435    15A     -0.859088
      16A     -0.837123    17A     -0.761297    18A     -0.702989
      19A     -0.662082    20A     -0.643566    21A     -0.625013
      22A     -0.620145    23A     -0.599174    24A     -0.589634
      25A     -0.561241    26A     -0.523327    27A     -0.512556
      28A     -0.504111    29A     -0.491502    30A     -0.409863
      31A     -0.343549    32A     -0.341397

  @DF-RHF Final Energy:  -382.46775148518799

   => Energetics <=

    Nuclear Repulsion Energy =            402.7306494474784699
    One-Electron Energy =               -1316.7853189093984838
    Two-Electron Energy =                 531.5869179767316837
    DFT Exchange-Correlation Energy =       0.0000000000000000
    Empirical Dispersion Energy =           0.0000000000000000
    PCM Polarization Energy =               0.0000000000000000
    EFP Energy =                            0.0000000000000000
    Total Energy =                       -382.4677514851882734
    Molecular point group: c1
  Basis Set: 6-31G*
  Basis Set:

  -Total Gradient:
     Atom            X                  Y                   Z
    ------   -----------------  -----------------  -----------------
       1        0.000000494471     0.000002010958     0.000000147201
       2       -0.000007486729    -0.000033534388     0.000034625530
       3       -0.000030514927     0.000015211795     0.000001887162
       4        0.000042491406     0.000024446777    -0.000059682289
       5        0.000001757278    -0.000000993021    -0.000006427975
       6        0.000018602650     0.000025735500    -0.000002791021
       7       -0.000002770160     0.000001390335     0.000001825757
       8       -0.000177418852    -0.000056138392    -0.003916520033
       9        0.000007307318    -0.000006060808     0.000005249648
      10        0.000070258617    -0.001429695367     0.006437099108
      11       -0.000003841126     0.000004862398    -0.000006613686
      12        0.000323101760     0.004708986059    -0.003799642823
      13       -0.000272228862    -0.003259535903     0.001287435319
      14        0.000000476397     0.000008479437     0.000017180245
      15        0.000002909824    -0.000007238898    -0.000004748142
      16        0.000020198050    -0.000000299527     0.000015399150
      17        0.000006662890     0.000002373043    -0.000004423150

  **** Optimization is complete! (in 7 steps) ****
    Final optimized geometry and variables:
    Molecular point group: c1

    Geometry (in Angstrom), charge = 0, multiplicity = 1:

    H           -3.641695661001     0.279317787859    -0.052736959635
    C           -2.569524242325     0.199150704529    -0.041346018300
    C           -1.966535631327    -1.049033552116    -0.044882286173
    C           -1.788594576901     1.343021431292    -0.031855539300
    H           -2.569719274124    -1.938912049685    -0.062167763286
    C           -0.586163216139    -1.153120282171    -0.042041664181
    H           -2.251958960726     2.313138317682    -0.044569938532
    C           -0.407170384848     1.239294691507    -0.007978327378
    H           -0.117373416784    -2.120122853592    -0.073850370954
    C            0.200313683288    -0.008988404910    -0.002293988678
    H            0.192876981209     2.132687460713    -0.000875018919
    C            1.700449403734    -0.144164536491    -0.049680254112
    C            2.468824140908     0.278918615624     1.181793908538
    O            2.240117600802    -0.641671164860    -0.989218433903
    H            2.222134312427     1.294494739122     1.474110830348
    H            3.531514444191     0.194977124720     0.999875644237
    H            2.188033134379    -0.367044390847     2.008842345755

  Mulliken Charges: (a.u.)
   Center  Symbol    Alpha    Beta     Spin     Total
       1     H     0.39655  0.39655  0.00000  0.20691
       2     C     3.09796  3.09796  0.00000 -0.19591
       3     C     3.09953  3.09953  0.00000 -0.19905
       4     C     3.09894  3.09894  0.00000 -0.19789
       5     H     0.39587  0.39587  0.00000  0.20825
       6     C     3.09903  3.09903  0.00000 -0.19806
       7     H     0.39638  0.39638  0.00000  0.20723
       8     C     3.10379  3.10379  0.00000 -0.20757
       9     H     0.38929  0.38929  0.00000  0.22142
      10     C     3.03119  3.03119  0.00000 -0.06238
      11     H     0.39581  0.39581  0.00000  0.20838
      12     C     2.75096  2.75096  0.00000  0.49809
      13     C     3.28671  3.28671  0.00000 -0.57342
      14     O     4.24979  4.24979  0.00000 -0.49959
      15     H     0.40810  0.40810  0.00000  0.18380
      16     H     0.39741  0.39741  0.00000  0.20518
      17     H     0.40269  0.40269  0.00000  0.19461

   Total alpha = 32.00000, Total beta = 32.00000, Total charge = -0.00000
