                              Psi4 1.0.54 Driver

  ==> Input File <==

--------------------------------------------------------------------------
set {
	reference rhf
	basis cc-pvtz
}

set_num_threads( 4 )
memory 2 gb

molecule MOL {
0 1

H	 -3.034039	 -0.667848	 0.004703
O	 -2.240597	 -1.171748	 0.000934
C	 -1.159675	 -0.364500	 0.000370
C	 -1.102183	 0.795019	 -0.745703
C	 -0.083913	 -0.743597	 0.788454
H	 -1.934190	 1.089753	 -1.358855
C	 0.043732	 1.569995	 -0.695523
H	 -0.159882	 -1.651784	 1.354458
C	 1.057074	 0.031617	 0.839146
H	 0.093372	 2.471263	 -1.276921
C	 1.115516	 1.199193	 0.084600
C	 2.217819	 -0.368247	 1.714603
H	 1.997765	 1.810298	 0.110074
H	 3.159583	 -0.232754	 1.197356
H	 2.144337	 -1.403775	 2.017963
H	 2.246823	 0.240390	 2.612023

	symmetry c1
}
set optking {
	frozen_dihedral = ("
		5 3 2 1
	")
}

ee,wfn = optimize('scf', return_wfn=True)
oeprop( wfn, 'DIPOLE', 'QUADRUPOLE', 'MULLIKEN_CHARGES')
f=open( 'psi4out.xyz', 'w' )
f.write( "16  " )
f.write( str(ee) + "\n" )
f.write( MOL.save_string_xyz() )
f.close()
--------------------------------------------------------------------------

    Molecular point group: c1
  Charge       = 0
  Multiplicity = 1
  Basis Set: CC-PVTZ
  Basis Set:
  @DF-RHF Final Energy:  -344.71860877449529
    Total Energy =                       -344.7186087744954648
    Molecular point group: c1
  Basis Set: CC-PVTZ
  Basis Set:
  Basis Set: CC-PVTZ
  Basis Set:
  @DF-RHF Final Energy:  -344.71871986491914
    Total Energy =                       -344.7187198649186826
  Basis Set: CC-PVTZ
  Basis Set:
  Basis Set: CC-PVTZ
  Basis Set:
  @DF-RHF Final Energy:  -344.71873670917489
    Total Energy =                       -344.7187367091748342
  Basis Set: CC-PVTZ
  Basis Set:
  Charge       = 0
  Multiplicity = 1
  Basis Set: CC-PVTZ
  Basis Set:

    Orbital Energies (a.u.)
    -----------------------

    Doubly Occupied:

       1A    -20.576791     2A    -11.291482     3A    -11.240395
       4A    -11.232298     5A    -11.219879     6A    -11.219492
       7A    -11.215438     8A    -11.215386     9A     -1.405828
      10A     -1.154486    11A     -1.046429    12A     -1.008222
      13A     -0.938705    14A     -0.827478    15A     -0.822368
      16A     -0.718050    17A     -0.682639    18A     -0.658100
      19A     -0.619112    20A     -0.594489    21A     -0.576717
      22A     -0.570811    23A     -0.556958    24A     -0.526589
      25A     -0.507059    26A     -0.485170    27A     -0.470948
      28A     -0.333309    29A     -0.315452

  @DF-RHF Final Energy:  -344.71873852629255

   => Energetics <=

    Nuclear Repulsion Energy =            346.1626659582914272
    One-Electron Energy =               -1153.7026444566554346
    Two-Electron Energy =                 462.8212399720717940
    DFT Exchange-Correlation Energy =       0.0000000000000000
    Empirical Dispersion Energy =           0.0000000000000000
    PCM Polarization Energy =               0.0000000000000000
    EFP Energy =                            0.0000000000000000
    Total Energy =                       -344.7187385262922135
    Molecular point group: c1
  Basis Set: CC-PVTZ
  Basis Set:

  -Total Gradient:
     Atom            X                  Y                   Z
    ------   -----------------  -----------------  -----------------
       1        0.000019355955     0.000011220983     0.002840779453
       2       -0.000402783979     0.000375178596    -0.002764841343
       3        0.001229136799    -0.001263154816    -0.001656429436
       4       -0.000063813788    -0.000183468821     0.000032646910
       5       -0.000689543515     0.001097277978     0.001552049670
       6        0.000008172728     0.000004072889    -0.000000838041
       7        0.000222589265     0.000073399719     0.000044426488
       8       -0.000023451904    -0.000029710520     0.000038934787
       9       -0.000058155177    -0.000292042721    -0.000002690507
      10       -0.000024757001     0.000006982557     0.000012128366
      11       -0.000176097139     0.000163468999    -0.000108916768
      12       -0.000038886862     0.000035277954     0.000026265502
      13        0.000013081657    -0.000003675296    -0.000002520096
      14       -0.000022143674     0.000004084278    -0.000016471333
      15       -0.000005589846     0.000000255277    -0.000005266095
      16        0.000012886477     0.000000832944     0.000010742442

  **** Optimization is complete! (in 4 steps) ****
    Final optimized geometry and variables:
    Molecular point group: c1

    Geometry (in Angstrom), charge = 0, multiplicity = 1:

    H           -2.974365777858    -0.754203964116    -0.308187106007
    O           -2.181476163474    -1.259328761392    -0.300480453753
    C           -1.095812514904    -0.444677533831    -0.270715126598
    C           -1.036890600972     0.714788921471    -1.016369985782
    C           -0.030647308918    -0.817308393018     0.530598025486
    H           -1.861026351690     0.994358157000    -1.645624023579
    C            0.102760555446     1.496556078668    -0.952365236639
    H           -0.112808836324    -1.721988077108     1.101516655661
    C            1.113263575932    -0.043382397192     0.586061648940
    H            0.155513887433     2.399202121767    -1.531259520958
    C            1.170697581316     1.124591306319    -0.165081030272
    C            2.268055158682    -0.439814066002     1.471136103139
    H            2.051178139909     1.738336550095    -0.132959343260
    H            3.213149089386    -0.306539237097     0.959358037203
    H            2.192647591470    -1.474595626488     1.776692409386
    H            2.292334152763     0.171057030922     2.367207951833

  Mulliken Charges: (a.u.)
   Center  Symbol    Alpha    Beta     Spin     Total
       1     H     0.38561  0.38561  0.00000  0.22877
       2     O     4.18367  4.18367  0.00000 -0.36735
       3     C     2.84960  2.84960  0.00000  0.30081
       4     C     3.13980  3.13980  0.00000 -0.27959
       5     C     3.13916  3.13916  0.00000 -0.27832
       6     H     0.42734  0.42734  0.00000  0.14531
       7     C     3.05883  3.05883  0.00000 -0.11766
       8     H     0.42039  0.42039  0.00000  0.15922
       9     C     2.93905  2.93905  0.00000  0.12189
      10     H     0.42280  0.42280  0.00000  0.15440
      11     C     3.11432  3.11432  0.00000 -0.22863
      12     C     3.14664  3.14664  0.00000 -0.29328
      13     H     0.42751  0.42751  0.00000  0.14498
      14     H     0.44799  0.44799  0.00000  0.10401
      15     H     0.45010  0.45010  0.00000  0.09980
      16     H     0.44719  0.44719  0.00000  0.10562

   Total alpha = 29.00000, Total beta = 29.00000, Total charge = -0.00000

*** Psi4 exiting successfully. Buy a developer a beer!
