  ==> Input File <==

--------------------------------------------------------------------------
set {
	reference rhf
	basis 6-31G*
}

set_num_threads( 4 )
memory 2 gb

molecule MOL {
0 1

H	 1.850664	 -2.863657	 0.259101
C	 1.532974	 -1.936751	 -0.210106
C	 0.489404	 -1.234793	 0.653222
H	 1.116278	 -2.168072	 -1.184076
H	 2.417502	 -1.327731	 -0.362550
N	 -0.000257	 -0.000071	 0.054619
H	 -0.348682	 -1.908432	 0.780510
H	 0.889801	 -1.055745	 1.655375
C	 -1.363055	 0.315058	 0.462241
C	 0.913844	 1.116816	 0.253717
C	 -2.412078	 -0.285320	 -0.468531
H	 -1.482241	 1.391144	 0.451970
H	 -1.549931	 -0.001174	 1.492681
C	 0.825840	 2.158047	 -0.857739
H	 1.925242	 0.730955	 0.272154
H	 0.752030	 1.590809	 1.226308
H	 -2.262839	 0.075384	 -1.480151
H	 -2.369300	 -1.368867	 -0.491760
H	 -3.410332	 -0.003975	 -0.144961
H	 1.044939	 1.699939	 -1.815740
H	 -0.158596	 2.608970	 -0.921804
H	 1.541268	 2.957206	 -0.685013

	symmetry c1
}
set optking {
	frozen_dihedral = ("
		3 6 9 11
	")
}

ee = optimize('scf')
oeprop('DIPOLE', 'QUADRUPOLE', 'MULLIKEN_CHARGES')
f=open( 'psi4out.xyz', 'w' )
f.write( "22  " )
f.write( str(ee) + "\n" )
f.write( MOL.save_string_xyz() )
f.close()
--------------------------------------------------------------------------

    Molecular point group: c1
  Charge       = 0
  Multiplicity = 1
  Basis Set: 6-31G*
  Basis Set:
  @DF-RHF Final Energy:  -290.37179533959517
    Total Energy =                       -290.3717953395952236
    Molecular point group: c1
  Basis Set: 6-31G*
  Basis Set:
  Basis Set: 6-31G*
  Basis Set:
  @DF-RHF Final Energy:  -290.37187494706262
    Total Energy =                       -290.3718749470630200
  Basis Set: 6-31G*
  Basis Set:
  Basis Set: 6-31G*
  Basis Set:
  @DF-RHF Final Energy:  -290.37188876379531
    Total Energy =                       -290.3718887637953117
  Basis Set: 6-31G*
  Basis Set:
  Basis Set: 6-31G*
  Basis Set:
  @DF-RHF Final Energy:  -290.37190127674842
    Total Energy =                       -290.3719012767479057
  Basis Set: 6-31G*
  Basis Set:
  Charge       = 0
  Multiplicity = 1
  Basis Set: 6-31G*
  Basis Set:

    Orbital Energies (a.u.)
    -----------------------

    Doubly Occupied:

       1A    -15.536858     2A    -11.240812     3A    -11.240161
       4A    -11.239785     5A    -11.205302     6A    -11.205193
       7A    -11.203927     8A     -1.223368     9A     -1.023713
      10A     -1.022659    11A     -0.954835    12A     -0.847547
      13A     -0.843097    14A     -0.773500    15A     -0.648421
      16A     -0.643334    17A     -0.617993    18A     -0.592575
      19A     -0.588537    20A     -0.551062    21A     -0.532345
      22A     -0.519515    23A     -0.516539    24A     -0.496046
      25A     -0.493454    26A     -0.487233    27A     -0.461984
      28A     -0.460148    29A     -0.341045

  @DF-RHF Final Energy:  -290.37190144065278

   => Energetics <=

    Nuclear Repulsion Energy =            337.4974591103306238
    One-Electron Energy =               -1060.7167552230635010
    Two-Electron Energy =                 432.8473946720802701
    DFT Exchange-Correlation Energy =       0.0000000000000000
    Empirical Dispersion Energy =           0.0000000000000000
    PCM Polarization Energy =               0.0000000000000000
    EFP Energy =                            0.0000000000000000
    Total Energy =                       -290.3719014406526071
    Molecular point group: c1
  Basis Set: 6-31G*
  Basis Set:

  -Total Gradient:
     Atom            X                  Y                   Z
    ------   -----------------  -----------------  -----------------
       1       -0.000007826294     0.000011764309    -0.000005777464
       2       -0.000010105522    -0.000023716051    -0.000014020541
       3        0.000682418681     0.000950102155     0.001434100030
       4        0.000004556217    -0.000006380291    -0.000010614172
       5       -0.000007412381    -0.000038128432     0.000004439691
       6       -0.000905759932    -0.000691948006    -0.002322962638
       7        0.000025655642     0.000022927932    -0.000005917165
       8       -0.000001410514    -0.000002902385     0.000022477311
       9        0.000238411769    -0.001652962773     0.001837666234
      10        0.000043025809    -0.000031581132    -0.000013775017
      11       -0.000004183626     0.001401033748    -0.000967296383
      12        0.000040086923     0.000029061677     0.000000608339
      13       -0.000015040287    -0.000010239359     0.000011445057
      14       -0.000027956756    -0.000003208168     0.000012922108
      15       -0.000023892687     0.000039604012     0.000016311178
      16       -0.000018723774     0.000002722638    -0.000011198530
      17        0.000007027427     0.000013218704     0.000016324664
      18       -0.000018779515     0.000010843008    -0.000009585867
      19        0.000008451310    -0.000018006420    -0.000008595312
      20        0.000005531479    -0.000003776790     0.000008522568
      21       -0.000008941107     0.000004274853     0.000000282450
      22       -0.000005132860    -0.000002703232     0.000004643459

  **** Optimization is complete! (in 5 steps) ****
    Final optimized geometry and variables:
    Molecular point group: c1

    Geometry (in Angstrom), charge = 0, multiplicity = 1:

    H            1.826384420497    -2.900505149757     0.301337812613
    C            1.538973784271    -1.963342336873    -0.166904585545
    C            0.480163068316    -1.255930416533     0.673276736341
    H            1.148161882700    -2.177430598260    -1.155459680374
    H            2.438594115441    -1.369352161751    -0.285156420785
    N            0.003554693742    -0.019200150319     0.068653165018
    H           -0.366164535430    -1.925438789005     0.774504643448
    H            0.856399770104    -1.083213324263     1.686097503460
    C           -1.357679740949     0.302911741954     0.485281927343
    C            0.929145886827     1.089689074145     0.258583704754
    C           -2.402852171705    -0.301781151460    -0.446238039644
    H           -1.479891778373     1.379202179873     0.478945080399
    H           -1.538156672030    -0.013223185191     1.514722634300
    C            0.809984453410     2.147090581505    -0.834219426522
    H            1.938705723997     0.699490908700     0.239444833332
    H            0.799564175898     1.550332063871     1.242341778772
    H           -2.266926036234     0.075638511620    -1.453495687993
    H           -2.326761948247    -1.383930854710    -0.484940891759
    H           -3.406823555415    -0.051557787454    -0.114203276545
    H            1.000222484075     1.702768284063    -1.804880092975
    H           -0.176159120213     2.598397419704    -0.862142862486
    H            1.530426544308     2.943682663178    -0.671185903593

  Mulliken Charges: (a.u.)
   Center  Symbol    Alpha    Beta     Spin     Total
       1     H     0.42322  0.42322  0.00000  0.15357
       2     C     3.23637  3.23637  0.00000 -0.47274
       3     C     3.05841  3.05841  0.00000 -0.11683
       4     H     0.41485  0.41485  0.00000  0.17031
       5     H     0.42126  0.42126  0.00000  0.15749
       6     N     3.78343  3.78343  0.00000 -0.56686
       7     H     0.41881  0.41881  0.00000  0.16237
       8     H     0.43253  0.43253  0.00000  0.13494
       9     C     3.06192  3.06192  0.00000 -0.12384
      10     C     3.05905  3.05905  0.00000 -0.11810
      11     C     3.23130  3.23130  0.00000 -0.46261
      12     H     0.41943  0.41943  0.00000  0.16114
      13     H     0.42933  0.42933  0.00000  0.14134
      14     C     3.23563  3.23563  0.00000 -0.47126
      15     H     0.41882  0.41882  0.00000  0.16237
      16     H     0.43259  0.43259  0.00000  0.13482
      17     H     0.41615  0.41615  0.00000  0.16770
      18     H     0.42174  0.42174  0.00000  0.15652
      19     H     0.42524  0.42524  0.00000  0.14952
      20     H     0.41510  0.41510  0.00000  0.16980
      21     H     0.42137  0.42137  0.00000  0.15726
      22     H     0.42345  0.42345  0.00000  0.15309

   Total alpha = 29.00000, Total beta = 29.00000, Total charge = -0.00000
