  ==> Input File <==

--------------------------------------------------------------------------
set {
	reference rhf
	basis 6-31G*
}

set_num_threads( 4 )
memory 2 gb

molecule MOL {
0 1

H	 -2.646374	 -0.642757	 1.268656
C	 -2.083525	 -0.384536	 0.393091
O	 -0.807605	 -0.127164	 0.768327
F	 -2.118945	 -1.383102	 -0.486752
F	 -2.621877	 0.670592	 -0.209486
C	 0.084052	 0.273579	 -0.209957
C	 1.353033	 -0.546803	 -0.018071
Cl	 0.433844	 2.004619	 -0.074457
H	 -0.288836	 0.092657	 -1.202930
F	 2.167701	 0.056437	 0.821309
F	 1.968018	 -0.654895	 -1.178910
F	 1.099946	 -1.751727	 0.431459

	symmetry c1
}
set optking {
	frozen_dihedral = ("
		10 7 6 9
	")
}

ee = optimize('scf')
oeprop('DIPOLE', 'QUADRUPOLE', 'MULLIKEN_CHARGES')
f=open( 'psi4out.xyz', 'w' )
f.write( "12  " )
f.write( str(ee) + "\n" )
f.write( MOL.save_string_xyz() )
f.close()
--------------------------------------------------------------------------

    Molecular point group: c1
  Charge       = 0
  Multiplicity = 1
  Basis Set: 6-31G*
  Basis Set:
  @DF-RHF Final Energy: -1146.30877202589500
    Total Energy =                      -1146.3087720258959052
    Molecular point group: c1
  Basis Set: 6-31G*
  Basis Set:
  Basis Set: 6-31G*
  Basis Set:
  @DF-RHF Final Energy: -1146.30957527180135
    Total Energy =                      -1146.3095752718011227
  Basis Set: 6-31G*
  Basis Set:
  Basis Set: 6-31G*
  Basis Set:
  @DF-RHF Final Energy: -1146.31022844845211
    Total Energy =                      -1146.3102284484527900
  Basis Set: 6-31G*
  Basis Set:
  Basis Set: 6-31G*
  Basis Set:
  @DF-RHF Final Energy: -1146.31026778474961
    Total Energy =                      -1146.3102677847496125
  Basis Set: 6-31G*
  Basis Set:
  @DF-RHF Final Energy: -1146.31027682077456
    Total Energy =                      -1146.3102768207741065
  @DF-RHF Final Energy: -1146.31028362198958
    Total Energy =                      -1146.3102836219886740
  @DF-RHF Final Energy: -1146.31029137273072
    Total Energy =                      -1146.3102913727316263
  @DF-RHF Final Energy: -1146.29734137901460
    Total Energy =                      -1146.2973413790145969
  @DF-RHF Final Energy: -1146.15727325546914
    Total Energy =                      -1146.1572732554698177
  @DF-RHF Final Energy: -1146.27952837393218
    Total Energy =                      -1146.2795283739319530
  @DF-RHF Final Energy: -1146.27848813123182
    Total Energy =                      -1146.2784881312322796
  @DF-RHF Final Energy: -1146.30530631972988
    Total Energy =                      -1146.3053063197298798
  @DF-RHF Final Energy: -1146.30937905671681
    Total Energy =                      -1146.3093790567172618
  @DF-RHF Final Energy: -1146.30995845777488
    Total Energy =                      -1146.3099584577737460
  @DF-RHF Final Energy: -1146.31023264558485
    Total Energy =                      -1146.3102326455855291
  @DF-RHF Final Energy: -1146.31028577050893
    Total Energy =                      -1146.3102857705086990
  @DF-RHF Final Energy: -1146.31029207261577
    Total Energy =                      -1146.3102920726153116
  @DF-RHF Final Energy: -1146.31029431983006
    Total Energy =                      -1146.3102943198305184
  @DF-RHF Final Energy: -1146.31029296969200
    Total Energy =                      -1146.3102929696922274
  @DF-RHF Final Energy: -1146.28327965018002
    Total Energy =                      -1146.2832796501800203
  @DF-RHF Final Energy: -1146.31027686866923
    Total Energy =                      -1146.3102768686694617
  @DF-RHF Final Energy: -1146.31027805103031
    Total Energy =                      -1146.3102780510307639
  @DF-RHF Final Energy: -1146.31027663972736
    Total Energy =                      -1146.3102766397266805
  @DF-RHF Final Energy: -1146.31024213347337
    Total Energy =                      -1146.3102421334738210
  @DF-RHF Final Energy: -1146.24911818049486
    Total Energy =                      -1146.2491181804950884
  @DF-RHF Final Energy: -1146.22889412607037
    Total Energy =                      -1146.2288941260703723
  @DF-RHF Final Energy: -1146.29823467872393
    Total Energy =                      -1146.2982346787234746
  @DF-RHF Final Energy: -1146.30892263310352
    Total Energy =                      -1146.3089226331032933
  @DF-RHF Final Energy: -1146.30960605959172
    Total Energy =                      -1146.3096060595917152
  @DF-RHF Final Energy: -1146.31005532614586
    Total Energy =                      -1146.3100553261456298
  @DF-RHF Final Energy: -1146.31020088477771
    Total Energy =                      -1146.3102008847768047
  @DF-RHF Final Energy: -1146.31024702237391
    Total Energy =                      -1146.3102470223743694
  @DF-RHF Final Energy: -1146.31027057203778
    Total Energy =                      -1146.3102705720384620
  @DF-RHF Final Energy: -1146.31027794190277
    Total Energy =                      -1146.3102779419023136
  @DF-RHF Final Energy: -1146.31007957010388
    Total Energy =                      -1146.3100795701029710
  @DF-RHF Final Energy: -1146.31028207583086
    Total Energy =                      -1146.3102820758304006
  Basis Set: 6-31G*
  Basis Set:
  @DF-RHF Final Energy: -1146.31028409646842
    Total Energy =                      -1146.3102840964679672
  Basis Set: 6-31G*
  Basis Set:
  Basis Set: 6-31G*
  Basis Set:
  @DF-RHF Final Energy: -1146.30154427507364
    Total Energy =                      -1146.3015442750729562
  Basis Set: 6-31G*
  Basis Set:
  Basis Set: 6-31G*
  Basis Set:
  @DF-RHF Final Energy: -1146.30942493090765
    Total Energy =                      -1146.3094249309074257
  Basis Set: 6-31G*
  Basis Set:
  Charge       = 0
  Multiplicity = 1
  Basis Set: 6-31G*
  Basis Set:

    Orbital Energies (a.u.)
    -----------------------

    Doubly Occupied:

       1A   -104.843015     2A    -26.360088     3A    -26.358010
       4A    -26.356491     5A    -26.346961     6A    -26.346887
       7A    -20.649708     8A    -11.528650     9A    -11.490399
      10A    -11.402126    11A    -10.577620    12A     -8.046960
      13A     -8.043453    14A     -8.043320    15A     -1.761023
      16A     -1.718573    17A     -1.658294    18A     -1.653780
      19A     -1.639048    20A     -1.486255    21A     -1.177735
      22A     -1.047946    23A     -0.987899    24A     -0.919859
      25A     -0.857878    26A     -0.852860    27A     -0.845230
      28A     -0.825492    29A     -0.812925    30A     -0.790643
      31A     -0.729005    32A     -0.726101    33A     -0.704292
      34A     -0.701741    35A     -0.678737    36A     -0.672883
      37A     -0.657563    38A     -0.657040    39A     -0.646356
      40A     -0.632604    41A     -0.597505    42A     -0.579009
      43A     -0.523244    44A     -0.476433    45A     -0.467660

  @DF-RHF Final Energy: -1146.31026162464605

   => Energetics <=

    Nuclear Repulsion Energy =            736.6896254211631003
    One-Electron Energy =               -3056.2411786214188396
    Two-Electron Energy =                1173.2412915756090115
    DFT Exchange-Correlation Energy =       0.0000000000000000
    Empirical Dispersion Energy =           0.0000000000000000
    PCM Polarization Energy =               0.0000000000000000
    EFP Energy =                            0.0000000000000000
    Total Energy =                      -1146.3102616246465004
    Molecular point group: c1
  Basis Set: 6-31G*
  Basis Set:

  -Total Gradient:
     Atom            X                  Y                   Z
    ------   -----------------  -----------------  -----------------
       1        0.000129167930     0.000093379505     0.000090753280
       2       -0.000674596957    -0.000423167852     0.000177909310
       3       -0.000122238470     0.000292912386     0.001050326467
       4        0.000067207345     0.000595963762     0.000018556940
       5       -0.000359580531    -0.000165152243    -0.000432855578
       6       -0.004499660502    -0.006054272982    -0.000162711087
       7       -0.002234614645    -0.001796099118     0.005638153864
       8       -0.000092595301     0.000977154473     0.000548176299
       9        0.003626331939     0.005335564029    -0.001835080255
      10        0.002230874468     0.001987027386    -0.004719611304
      11        0.001648012163    -0.000748909961    -0.000773796975
      12        0.000281692557    -0.000094399377     0.000400179042

    Molecular point group: c1

    Geometry (in Angstrom), charge = 0, multiplicity = 1:

    H           -2.673973667412    -0.606155880908     1.277660696269
    C           -2.088210112705    -0.395550263037     0.404509337143
    O           -0.845900692489    -0.030692739557     0.803647006917
    F           -2.026907900271    -1.468349653347    -0.380714080442
    F           -2.656412021563     0.567562564434    -0.314410038783
    C            0.063419556981     0.310930787043    -0.176340405196
    C            1.332951339870    -0.538764909171    -0.013203911171
    CL           0.455931013760     2.040794342116    -0.071679845951
    H           -0.297494388546     0.165848107892    -1.178498926547
    F            2.196354138381    -0.040335458875     0.836086966217
    F            1.936562174743    -0.615511027886    -1.188232337678
    F            1.017996346581    -1.756747154033     0.361568640143

  Mulliken Charges: (a.u.)
   Center  Symbol    Alpha    Beta     Spin     Total
       1     H     0.40082  0.40082  0.00000  0.19835
       2     C     2.56536  2.56536  0.00000  0.86928
       3     O     4.29467  4.29467  0.00000 -0.58934
       4     F     4.68636  4.68636  0.00000 -0.37272
       5     F     4.68518  4.68518  0.00000 -0.37036
       6     C     3.05854  3.05854  0.00000 -0.11707
       7     C     2.43081  2.43081  0.00000  1.13838
       8    CL     8.49882  8.49882  0.00000  0.00235
       9     H     0.36330  0.36330  0.00000  0.27340
      10     F     4.66545  4.66545  0.00000 -0.33091
      11     F     4.67948  4.67948  0.00000 -0.35897
      12     F     4.67120  4.67120  0.00000 -0.34240

   Total alpha = 45.00000, Total beta = 45.00000, Total charge = -0.00000
