                              Psi4 1.0.54 Driver

  ==> Input File <==

--------------------------------------------------------------------------
set {
	reference rhf
	basis cc-pvtz
}

set_num_threads( 4 )
memory 2 gb

molecule MOL {
0 1

H	 2.614283	 2.028610	 0.296620
O	 3.358864	 1.662087	 -0.142800
C	 3.565468	 0.338079	 0.273842
C	 2.551329	 -0.139233	 1.302619
H	 3.488034	 -0.267951	 -0.618745
H	 4.575484	 0.215039	 0.660077
C	 2.626768	 0.589287	 2.642551
H	 1.555885	 -0.030407	 0.882612
H	 2.712302	 -1.202769	 1.461918
C	 1.616660	 0.061170	 3.660200
H	 2.459527	 1.649460	 2.484225
H	 3.630768	 0.488392	 3.051318
C	 1.697741	 0.705308	 5.045396
H	 0.611911	 0.187168	 3.264180
H	 1.765508	 -1.009429	 3.770343
C	 1.303158	 2.180236	 5.096706
H	 1.048924	 0.150710	 5.717694
H	 2.706114	 0.589062	 5.436325
C	 1.304474	 2.749991	 6.512965
H	 0.312372	 2.300851	 4.663965
H	 1.977338	 2.769030	 4.482047
C	 0.914599	 4.223397	 6.567411
H	 0.621905	 2.174143	 7.131896
H	 2.291387	 2.622615	 6.949816
H	 -0.081552	 4.379689	 6.166794
H	 0.922997	 4.594864	 7.585767
H	 1.601207	 4.832024	 5.988192

	symmetry c1
}
set optking {
	frozen_dihedral = ("
		4 3 2 1
	")
}

ee,wfn = optimize('scf', return_wfn=True)
oeprop( wfn, 'DIPOLE', 'QUADRUPOLE', 'MULLIKEN_CHARGES')
f=open( 'psi4out.xyz', 'w' )
f.write( "27  " )
f.write( str(ee) + "\n" )
f.write( MOL.save_string_xyz() )
f.close()
--------------------------------------------------------------------------

    Molecular point group: c1
  Charge       = 0
  Multiplicity = 1
  Basis Set: CC-PVTZ
  Basis Set:
  @DF-RHF Final Energy:  -388.42484051482143
    Total Energy =                       -388.4248405148217671
    Molecular point group: c1
  Basis Set: CC-PVTZ
  Basis Set:
  Basis Set: CC-PVTZ
  Basis Set:
  @DF-RHF Final Energy:  -388.42521855552860
    Total Energy =                       -388.4252185555287724
  Basis Set: CC-PVTZ
  Basis Set:
  Basis Set: CC-PVTZ
  Basis Set:
  @DF-RHF Final Energy:  -388.42536582535115
    Total Energy =                       -388.4253658253519461
  Basis Set: CC-PVTZ
  Basis Set:
  Basis Set: CC-PVTZ
  Basis Set:
  @DF-RHF Final Energy:  -388.42537206912249
    Total Energy =                       -388.4253720691223180
  Basis Set: CC-PVTZ
  Basis Set:
  Basis Set: CC-PVTZ
  Basis Set:
  @DF-RHF Final Energy:  -388.42537632361723
    Total Energy =                       -388.4253763236171153
  Basis Set: CC-PVTZ
  Basis Set:
  Charge       = 0
  Multiplicity = 1
  Basis Set: CC-PVTZ
  Basis Set:

    Orbital Energies (a.u.)
    -----------------------

    Doubly Occupied:

       1A    -20.542260     2A    -11.264239     3A    -11.221527
       4A    -11.219352     5A    -11.217177     6A    -11.214705
       7A    -11.214507     8A    -11.212988     9A    -11.207662
      10A     -1.360597    11A     -1.098405    12A     -1.064670
      13A     -1.014189    14A     -0.950178    15A     -0.890093
      16A     -0.826280    17A     -0.805944    18A     -0.780781
      19A     -0.665479    20A     -0.657189    21A     -0.649863
      22A     -0.628434    23A     -0.608267    24A     -0.585935
      25A     -0.576194    26A     -0.565060    27A     -0.540096
      28A     -0.528009    29A     -0.510544    30A     -0.492965
      31A     -0.488207    32A     -0.479357    33A     -0.468091
      34A     -0.461959    35A     -0.448714    36A     -0.444163
      37A     -0.428907

  @DF-RHF Final Energy:  -388.42537654729318

   => Energetics <=

    Nuclear Repulsion Energy =            460.3365646329929746
    One-Electron Energy =               -1438.8579154416900110
    Two-Electron Energy =                 590.0959742614038532
    DFT Exchange-Correlation Energy =       0.0000000000000000
    Empirical Dispersion Energy =           0.0000000000000000
    PCM Polarization Energy =               0.0000000000000000
    EFP Energy =                            0.0000000000000000
    Total Energy =                       -388.4253765472931264
    Molecular point group: c1
  Basis Set: CC-PVTZ
  Basis Set:

  -Total Gradient:
     Atom            X                  Y                   Z
    ------   -----------------  -----------------  -----------------
       1        0.000309254507     0.000173607897     0.000365197171
       2       -0.000459300624    -0.000268365461    -0.000558294004
       3        0.000351312205     0.000186699708     0.000435502859
       4       -0.000198792682    -0.000103350284    -0.000234083384
       5       -0.000008138960     0.000015773965    -0.000000110640
       6       -0.000005642199     0.000002812412    -0.000004047331
       7       -0.000007054639     0.000011245890    -0.000003726537
       8        0.000005376707    -0.000004373755     0.000005008707
       9        0.000009557271    -0.000002584820     0.000003406540
      10        0.000005225216    -0.000008405528     0.000006465960
      11        0.000002344873     0.000008477666    -0.000000136538
      12        0.000001051104    -0.000002828976    -0.000001022215
      13       -0.000012244839    -0.000001755162    -0.000003963210
      14        0.000003588136     0.000003740380     0.000005857036
      15       -0.000002027672    -0.000003462456     0.000001535983
      16        0.000000815492    -0.000002494080    -0.000005543938
      17       -0.000001984705    -0.000002669691    -0.000000142738
      18       -0.000002288736    -0.000000952460    -0.000005060890
      19        0.000002783932    -0.000001167861     0.000002136101
      20        0.000002099399    -0.000001962273    -0.000000547820
      21        0.000002673727     0.000001613672    -0.000007795119
      22        0.000000653923     0.000000429937    -0.000000783232
      23        0.000000653975     0.000000150376    -0.000001208838
      24       -0.000000203157     0.000000774273     0.000001103415
      25        0.000000995325    -0.000000478538     0.000000237290
      26       -0.000000005857    -0.000000433687    -0.000000312672
      27       -0.000000701723    -0.000000041143     0.000000328040

  **** Optimization is complete! (in 6 steps) ****
    Final optimized geometry and variables:
    Molecular point group: c1

    Geometry (in Angstrom), charge = 0, multiplicity = 1:

    H            0.375799990695     0.600062877204    -3.147742502054
    O            1.122817605791     0.237969563835    -3.584435938915
    C            1.379343481832    -1.068741578873    -3.133743679661
    C            0.404863208147    -1.559676055799    -2.074709160896
    H            1.341426680995    -1.731954695301    -3.990881900193
    H            2.392230707315    -1.099680276336    -2.744065512171
    C            0.491779249001    -0.814263492852    -0.743219263450
    H           -0.606711315996    -1.495908264717    -2.471114963823
    H            0.599052267239    -2.614928747795    -1.906623631047
    C           -0.513324020271    -1.327841199909     0.286438588808
    H            0.341322339035     0.248053925073    -0.904325554513
    H            1.498681776700    -0.917880417957    -0.346544224984
    C           -0.404550505184    -0.684295155215     1.669971357486
    H           -1.522143019765    -1.188213702753    -0.095294556665
    H           -0.378684607975    -2.400512936833     0.395132364781
    C           -0.767717134706     0.798571345122     1.723093068795
    H           -1.057397935267    -1.224721804294     2.349724752690
    H            0.605307601710    -0.820780630485     2.049707173629
    C           -0.738384566310     1.370314263953     3.138181007127
    H           -1.761124974982     0.938939512914     1.302069717404
    H           -0.088260759830     1.372105728413     1.100070668961
    C           -1.096518806151     2.851613206056     3.194273432181
    H           -1.425595059572     0.809818091038     3.765983691137
    H            0.250657545751     1.223074321544     3.563490509592
    H           -2.094180599957     3.028079168241     2.805928637506
    H           -1.067638045045     3.224614295416     4.211615041062
    H           -0.404516230332     3.444441856572     2.605347726312

  Mulliken Charges: (a.u.)
   Center  Symbol    Alpha    Beta     Spin     Total
       1     H     0.39123  0.39123  0.00000  0.21754
       2     O     4.20918  4.20918  0.00000 -0.41836
       3     C     2.95392  2.95392  0.00000  0.09215
       4     C     3.11428  3.11428  0.00000 -0.22857
       5     H     0.46244  0.46244  0.00000  0.07512
       6     H     0.47304  0.47304  0.00000  0.05393
       7     C     3.09246  3.09246  0.00000 -0.18492
       8     H     0.45093  0.45093  0.00000  0.09813
       9     H     0.45017  0.45017  0.00000  0.09966
      10     C     3.09911  3.09911  0.00000 -0.19822
      11     H     0.45481  0.45481  0.00000  0.09037
      12     H     0.45126  0.45126  0.00000  0.09748
      13     C     3.09776  3.09776  0.00000 -0.19553
      14     H     0.45300  0.45300  0.00000  0.09400
      15     H     0.44743  0.44743  0.00000  0.10514
      16     C     3.08925  3.08925  0.00000 -0.17850
      17     H     0.44786  0.44786  0.00000  0.10428
      18     H     0.45287  0.45287  0.00000  0.09427
      19     C     3.08407  3.08407  0.00000 -0.16815
      20     H     0.45534  0.45534  0.00000  0.08931
      21     H     0.45327  0.45327  0.00000  0.09345
      22     C     3.14975  3.14975  0.00000 -0.29950
      23     H     0.45383  0.45383  0.00000  0.09233
      24     H     0.45419  0.45419  0.00000  0.09162
      25     H     0.45533  0.45533  0.00000  0.08934
      26     H     0.44813  0.44813  0.00000  0.10375
      27     H     0.45507  0.45507  0.00000  0.08987

   Total alpha = 37.00000, Total beta = 37.00000, Total charge = -0.00000

*** Psi4 exiting successfully. Buy a developer a beer!
