                              Psi4 1.0.54 Driver

  ==> Input File <==

--------------------------------------------------------------------------
set {
	reference rhf
	basis cc-pvtz
}

set_num_threads( 4 )
memory 2 gb

molecule MOL {
0 1

H	 -3.089752	 0.258860	 0.252810
O	 -2.346257	 -0.289210	 0.080372
C	 -1.183935	 0.486039	 -0.009831
C	 0.062853	 -0.375310	 0.027457
H	 -1.178881	 1.094526	 -0.908634
H	 -1.184406	 1.155156	 0.838676
O	 1.172093	 0.457955	 -0.054438
H	 0.052476	 -1.081302	 -0.804627
H	 0.076323	 -0.955658	 0.947560
C	 2.395478	 -0.199028	 -0.000366
H	 2.505946	 -0.901710	 -0.823354
H	 3.174616	 0.545641	 -0.071768
H	 2.513730	 -0.742241	 0.934223

	symmetry c1
}
set optking {
	frozen_dihedral = ("
		1 2 3 5
	")
}

ee,wfn = optimize('scf', return_wfn=True)
oeprop( wfn, 'DIPOLE', 'QUADRUPOLE', 'MULLIKEN_CHARGES')
f=open( 'psi4out.xyz', 'w' )
f.write( "13  " )
f.write( str(ee) + "\n" )
f.write( MOL.save_string_xyz() )
f.close()
--------------------------------------------------------------------------

    Molecular point group: c1
  Charge       = 0
  Multiplicity = 1
  Basis Set: CC-PVTZ
  Basis Set:
  @DF-RHF Final Energy:  -268.06115244232689
    Total Energy =                       -268.0611524423268293
    Molecular point group: c1
  Basis Set: CC-PVTZ
  Basis Set:
  Basis Set: CC-PVTZ
  Basis Set:
  @DF-RHF Final Energy:  -268.06247521973557
    Total Energy =                       -268.0624752197355747
  Basis Set: CC-PVTZ
  Basis Set:
  Basis Set: CC-PVTZ
  Basis Set:
  @DF-RHF Final Energy:  -268.06274853470040
    Total Energy =                       -268.0627485347002903
  Basis Set: CC-PVTZ
  Basis Set:
  Charge       = 0
  Multiplicity = 1
  Basis Set: CC-PVTZ
  Basis Set:

    Orbital Energies (a.u.)
    -----------------------

    Doubly Occupied:

       1A    -20.552493     2A    -20.551896     3A    -11.267324
       4A    -11.265098     5A    -11.264686     6A     -1.388757
       7A     -1.368368     8A     -1.019639     9A     -0.911746
      10A     -0.831761    11A     -0.712133    12A     -0.686349
      13A     -0.644023    14A     -0.634745    15A     -0.621970
      16A     -0.555299    17A     -0.538875    18A     -0.497409
      19A     -0.471366    20A     -0.444934    21A     -0.421091

  @DF-RHF Final Energy:  -268.06275310746105

   => Energetics <=

    Nuclear Repulsion Energy =            190.7407891000276834
    One-Electron Energy =                -744.3071580087695338
    Two-Electron Energy =                 285.5036158012808301
    DFT Exchange-Correlation Energy =       0.0000000000000000
    Empirical Dispersion Energy =           0.0000000000000000
    PCM Polarization Energy =               0.0000000000000000
    EFP Energy =                            0.0000000000000000
    Total Energy =                       -268.0627531074610488
    Molecular point group: c1
  Basis Set: CC-PVTZ
  Basis Set:

  -Total Gradient:
     Atom            X                  Y                   Z
    ------   -----------------  -----------------  -----------------
       1        0.000135390842    -0.000042299614     0.000557541035
       2        0.000188466708     0.000069894509    -0.000836758832
       3       -0.000253297721     0.000630141030     0.000596674895
       4       -0.000007078473    -0.000220953000    -0.000053033021
       5        0.000175509380    -0.000495231571    -0.000229881872
       6       -0.000087474664     0.000002568458     0.000026816155
       7       -0.000017443217     0.000208647238    -0.000038731380
       8        0.000072510550    -0.000045514879    -0.000010193594
       9       -0.000065878510    -0.000009715684     0.000001062400
      10       -0.000073954506    -0.000159302014    -0.000019160590
      11        0.000033996570     0.000003752516    -0.000001807371
      12       -0.000101814588     0.000043900531    -0.000001962702
      13        0.000001067627     0.000014112479     0.000009434878

  **** Optimization is complete! (in 4 steps) ****
    Final optimized geometry and variables:
    Molecular point group: c1

    Geometry (in Angstrom), charge = 0, multiplicity = 1:

    H           -3.075437787512     0.191391958579     0.172918558956
    O           -2.297852716605    -0.319450592753     0.048164491901
    C           -1.173989265089     0.515168882930    -0.005074589073
    C            0.049959056629    -0.371185526348     0.028871583332
    H           -1.162918270974     1.102155295240    -0.918152448565
    H           -1.146371669919     1.198467740991     0.837825733633
    O            1.174973861841     0.443075786290    -0.050507870062
    H            0.016063675945    -1.070023213323    -0.804269747204
    H            0.053850404804    -0.952567251985     0.948319006728
    C            2.382968958810    -0.242924197434    -0.033172928185
    H            2.463806756667    -0.927533578686    -0.874386892416
    H            3.177689400385     0.485681348051    -0.099446486257
    H            2.504251745143    -0.811522191039     0.886021026087

  Mulliken Charges: (a.u.)
   Center  Symbol    Alpha    Beta     Spin     Total
       1     H     0.39424  0.39424  0.00000  0.21151
       2     O     4.19822  4.19822  0.00000 -0.39644
       3     C     2.96467  2.96467  0.00000  0.07065
       4     C     2.96481  2.96481  0.00000  0.07037
       5     H     0.47050  0.47050  0.00000  0.05900
       6     H     0.47074  0.47074  0.00000  0.05853
       7     O     4.17632  4.17632  0.00000 -0.35263
       8     H     0.47021  0.47021  0.00000  0.05959
       9     H     0.47090  0.47090  0.00000  0.05821
      10     C     3.03131  3.03131  0.00000 -0.06263
      11     H     0.47045  0.47045  0.00000  0.05909
      12     H     0.44699  0.44699  0.00000  0.10602
      13     H     0.47063  0.47063  0.00000  0.05873

   Total alpha = 21.00000, Total beta = 21.00000, Total charge = -0.00000

*** Psi4 exiting successfully. Buy a developer a beer!
