  ==> Input File <==

--------------------------------------------------------------------------
set {
	reference rhf
	basis cc-pvtz
}

set_num_threads( 4 )
memory 2 gb

molecule MOL {
0 1

H	 -2.123894	 -0.667238	 -0.609809
O	 -2.041679	 -0.058866	 0.103463
C	 -0.959304	 0.780994	 -0.094939
C	 0.354905	 0.037902	 -0.006215
H	 -0.985899	 1.279578	 -1.057596
H	 -0.969809	 1.529522	 0.682889
F	 0.766847	 -0.046970	 1.246339
F	 0.218444	 -1.188953	 -0.464256
F	 1.308162	 0.619933	 -0.693611

	symmetry c1
}
set optking {
	frozen_dihedral = ("
		7 4 3 5
	")
}

ee = optimize('scf')
oeprop('DIPOLE', 'QUADRUPOLE', 'MULLIKEN_CHARGES')
f=open( 'psi4out.xyz', 'w' )
f.write( "9  " )
f.write( str(ee) + "\n" )
f.write( MOL.save_string_xyz() )
f.close()
--------------------------------------------------------------------------

    Molecular point group: c1
  Charge       = 0
  Multiplicity = 1
  Basis Set: CC-PVTZ
  Basis Set:
  @DF-RHF Final Energy:  -450.84397363973221
    Total Energy =                       -450.8439736397322122
    Molecular point group: c1
  Basis Set: CC-PVTZ
  Basis Set:
  Basis Set: CC-PVTZ
  Basis Set:
  @DF-RHF Final Energy:  -450.84464021636165
    Total Energy =                       -450.8446402163615403
  Basis Set: CC-PVTZ
  Basis Set:
  Basis Set: CC-PVTZ
  Basis Set:
  @DF-RHF Final Energy:  -450.84486507103531
    Total Energy =                       -450.8448650710355423
  Basis Set: CC-PVTZ
  Basis Set:
  Basis Set: CC-PVTZ
  Basis Set:
  @DF-RHF Final Energy:  -450.84488430243215
    Total Energy =                       -450.8448843024319217
  Basis Set: CC-PVTZ
  Basis Set:
  Charge       = 0
  Multiplicity = 1
  Basis Set: CC-PVTZ
  Basis Set:

    Orbital Energies (a.u.)
    -----------------------

    Doubly Occupied:

       1A    -26.342608     2A    -26.337449     3A    -26.336118
       4A    -20.584028     5A    -11.495098     6A    -11.309745
       7A     -1.748514     8A     -1.646804     9A     -1.641757
      10A     -1.407814    11A     -1.049013    12A     -0.930542
      13A     -0.838405    14A     -0.835836    15A     -0.814523
      16A     -0.729790    17A     -0.719842    18A     -0.704196
      19A     -0.672877    20A     -0.666103    21A     -0.649343
      22A     -0.632459    23A     -0.620557    24A     -0.531362
      25A     -0.484812

  @DF-RHF Final Energy:  -450.84488584390004

   => Energetics <=

    Nuclear Repulsion Energy =            277.2548320489234470
    One-Electron Energy =               -1176.7402395478825383
    Two-Electron Energy =                 448.6405216550592172
    DFT Exchange-Correlation Energy =       0.0000000000000000
    Empirical Dispersion Energy =           0.0000000000000000
    PCM Polarization Energy =               0.0000000000000000
    EFP Energy =                            0.0000000000000000
    Total Energy =                       -450.8448858438999309
    Molecular point group: c1
  Basis Set: CC-PVTZ
  Basis Set:

  -Total Gradient:
     Atom            X                  Y                   Z
    ------   -----------------  -----------------  -----------------
       1        0.000023730458     0.000006021322    -0.000027200399
       2        0.000163569105     0.000151277702    -0.000009553734
       3       -0.001960951964    -0.003991472749    -0.002729268343
       4       -0.002480964668    -0.004265748657     0.000963400582
       5        0.002142429348     0.004086912667     0.002118721465
       6       -0.000011693251     0.000017918615     0.000038116384
       7        0.002205534678     0.003841875556    -0.000243091790
       8       -0.000046730664     0.000180043562    -0.000084851844
       9       -0.000034923049    -0.000026828019    -0.000026272317

  **** Optimization is complete! (in 5 steps) ****
    Final optimized geometry and variables:
    Molecular point group: c1

    Geometry (in Angstrom), charge = 0, multiplicity = 1:

    H           -2.128625235026    -0.684721895568    -0.564040950242
    O           -2.061812424476    -0.020362085296     0.098897083598
    C           -0.959375618549     0.781997249333    -0.123699449991
    C            0.354392281656     0.025340208132    -0.008044260314
    H           -0.967136577738     1.285929918046    -1.083496711182
    H           -0.952984297748     1.546598779369     0.639050629723
    F            0.763700892085    -0.083019465009     1.235800428835
    F            0.266433634596    -1.186890373765    -0.514731355410
    F            1.302626858046     0.663176051895    -0.667619708314

  Mulliken Charges: (a.u.)
   Center  Symbol    Alpha    Beta     Spin     Total
       1     H     0.38575  0.38575  0.00000  0.22851
       2     O     4.19018  4.19018  0.00000 -0.38036
       3     C     2.99646  2.99646  0.00000  0.00707
       4     C     2.68030  2.68030  0.00000  0.63941
       5     H     0.46274  0.46274  0.00000  0.07451
       6     H     0.44881  0.44881  0.00000  0.10237
       7     F     4.60868  4.60868  0.00000 -0.21735
       8     F     4.61411  4.61411  0.00000 -0.22822
       9     F     4.61297  4.61297  0.00000 -0.22594

   Total alpha = 25.00000, Total beta = 25.00000, Total charge = -0.00000
