  ==> Input File <==

--------------------------------------------------------------------------
set {
	reference rhf
	basis 6-31G*
}

set_num_threads( 4 )
memory 2 gb

molecule MOL {
0 1

H	 2.845955	 -0.323208	 0.022310
C	 1.900140	 0.071967	 -0.330070
C	 0.778463	 -0.508087	 0.517968
H	 1.782469	 -0.206877	 -1.370777
H	 1.922247	 1.149867	 -0.254252
N	 -0.540928	 0.005139	 0.058438
H	 0.716718	 -1.581298	 0.454712
H	 0.859711	 -0.198647	 1.550086
O	 -1.115154	 -0.617265	 -0.779507
O	 -0.935174	 1.010862	 0.565972

	symmetry c1
}
set optking {
	frozen_dihedral = ("
		9 6 3 2
	")
}

ee = optimize('scf')
oeprop('DIPOLE', 'QUADRUPOLE', 'MULLIKEN_CHARGES')
f=open( 'psi4out.xyz', 'w' )
f.write( "10  " )
f.write( str(ee) + "\n" )
f.write( MOL.save_string_xyz() )
f.close()
--------------------------------------------------------------------------

    Molecular point group: c1
  Charge       = 0
  Multiplicity = 1
  Basis Set: 6-31G*
  Basis Set:
  @DF-RHF Final Energy:  -282.70020563191690
    Total Energy =                       -282.7002056319170720
    Molecular point group: c1
  Basis Set: 6-31G*
  Basis Set:
  Basis Set: 6-31G*
  Basis Set:
  @DF-RHF Final Energy:  -282.69602740756812
    Total Energy =                       -282.6960274075681809
  Basis Set: 6-31G*
  Basis Set:
  Basis Set: 6-31G*
  Basis Set:
  @DF-RHF Final Energy:  -282.70032360786433
    Total Energy =                       -282.7003236078645614
  Basis Set: 6-31G*
  Basis Set:
  Basis Set: 6-31G*
  Basis Set:
  @DF-RHF Final Energy:  -282.70044467155310
    Total Energy =                       -282.7004446715531003
  Basis Set: 6-31G*
  Basis Set:
  Basis Set: 6-31G*
  Basis Set:
  @DF-RHF Final Energy:  -282.70044556954940
    Total Energy =                       -282.7004455695493448
  Basis Set: 6-31G*
  Basis Set:
  Charge       = 0
  Multiplicity = 1
  Basis Set: 6-31G*
  Basis Set:

    Orbital Energies (a.u.)
    -----------------------

    Doubly Occupied:

       1A    -20.602077     2A    -20.601805     3A    -15.848407
       4A    -11.303594     5A    -11.254161     6A     -1.632012
       7A     -1.417678     8A     -1.128262     9A     -0.967450
      10A     -0.838313    11A     -0.760213    12A     -0.734946
      13A     -0.725593    14A     -0.659552    15A     -0.590745
      16A     -0.560624    17A     -0.550884    18A     -0.484932
      19A     -0.477816    20A     -0.449484

  @DF-RHF Final Energy:  -282.70044588299857

   => Energetics <=

    Nuclear Repulsion Energy =            186.3067340378731842
    One-Electron Energy =                -754.8372649218495098
    Two-Electron Energy =                 285.8300850009778742
    DFT Exchange-Correlation Energy =       0.0000000000000000
    Empirical Dispersion Energy =           0.0000000000000000
    PCM Polarization Energy =               0.0000000000000000
    EFP Energy =                            0.0000000000000000
    Total Energy =                       -282.7004458829984515
    Molecular point group: c1
  Basis Set: 6-31G*
  Basis Set:

  -Total Gradient:
     Atom            X                  Y                   Z
    ------   -----------------  -----------------  -----------------
       1        0.000001048628     0.000001520644     0.000000045233
       2       -0.000015944759    -0.000017592421    -0.000004001018
       3        0.000017810906     0.000028177583     0.000011285061
       4        0.000005177781     0.000003456132    -0.000010862348
       5       -0.000001553147    -0.000005827960     0.000002995864
       6       -0.000033061255    -0.000048440026    -0.000054906657
       7       -0.000006671897     0.000010881385    -0.000003862349
       8       -0.000006627714     0.000001242659     0.000012772177
       9        0.000026520214     0.000015208918     0.000021289626
      10        0.000013301246     0.000011373084     0.000025244413

  **** Optimization is complete! (in 6 steps) ****
    Final optimized geometry and variables:
    Molecular point group: c1

    Geometry (in Angstrom), charge = 0, multiplicity = 1:

    H            2.834586773408    -0.312912656949     0.018559022751
    C            1.880625556845     0.069346564765    -0.324902009546
    C            0.769572478949    -0.519451943003     0.535493159801
    H            1.750530019891    -0.210926665047    -1.362788877010
    H            1.893402328147     1.149237031068    -0.247083978525
    N           -0.539952142850     0.003137630017     0.065079724062
    H            0.712543728376    -1.591953892118     0.446461668718
    H            0.855999871668    -0.221936397589     1.567859108751
    O           -1.106278448451    -0.622424748177    -0.777503961435
    O           -0.916328025481     1.032250045944     0.535881728693

  Mulliken Charges: (a.u.)
   Center  Symbol    Alpha    Beta     Spin     Total
       1     H     0.40397  0.40397  0.00000  0.19207
       2     C     3.25807  3.25807  0.00000 -0.51615
       3     C     3.08905  3.08905  0.00000 -0.17810
       4     H     0.39758  0.39758  0.00000  0.20484
       5     H     0.39717  0.39717  0.00000  0.20566
       6     N     3.22039  3.22039  0.00000  0.55922
       7     H     0.38732  0.38732  0.00000  0.22536
       8     H     0.38741  0.38741  0.00000  0.22517
       9     O     4.22940  4.22940  0.00000 -0.45881
      10     O     4.22964  4.22964  0.00000 -0.45928

   Total alpha = 20.00000, Total beta = 20.00000, Total charge = -0.00000
