  ==> Input File <==

--------------------------------------------------------------------------
set {
	reference rhf
	basis 6-31G*
}

set_num_threads( 1 )
memory 2 gb

molecule MOL {
0 1

H	 -3.970298	 -0.394618	 -1.376028
O	 -3.452007	 0.283848	 -0.965577
C	 -3.181085	 -0.079926	 0.364119
C	 -1.765924	 0.277073	 0.805136
H	 -3.327791	 -1.152017	 0.410903
H	 -3.905698	 0.375695	 1.036898
C	 -0.677594	 -0.417312	 -0.014550
H	 -1.637766	 1.358238	 0.744969
H	 -1.659588	 0.017670	 1.857098
C	 0.738335	 -0.034840	 0.421385
H	 -0.814977	 -0.178223	 -1.064632
H	 -0.802730	 -1.495410	 0.071702
C	 1.822265	 -0.738362	 -0.399735
H	 0.853533	 1.043532	 0.342250
H	 0.871597	 -0.279636	 1.474438
C	 3.258060	 -0.455774	 0.057203
H	 1.718003	 -0.459167	 -1.447053
H	 1.651028	 -1.811884	 -0.354513
C	 3.709143	 0.994797	 -0.123830
H	 3.930637	 -1.101717	 -0.501982
H	 3.365259	 -0.739518	 1.102287
H	 3.601178	 1.310569	 -1.158127
H	 4.753787	 1.110486	 0.148516
H	 3.135362	 1.678896	 0.492569

	symmetry c1
}
set optking {
	frozen_dihedral = ("
		20 16 13 17,
		17 13 10 7,
		13 10 7 11,
		11 7 4 3,
		7 4 3 2
	")
}

ee = energy('scf')
oeprop('DIPOLE', 'QUADRUPOLE', 'MULLIKEN_CHARGES')
f=open( 'psi4out.xyz', 'w' )
f.write( "24  " )
f.write( str(ee) + "\n" )
f.write( MOL.save_string_xyz() )
f.close()
--------------------------------------------------------------------------

    Molecular point group: c1

    Geometry (in Angstrom), charge = 0, multiplicity = 1:

       Center              X                  Y                   Z               Mass
    ------------   -----------------  -----------------  -----------------  -----------------
           H         -3.965528051552    -0.380540173475    -1.373148502053     1.007825032070
           O         -3.447237051552     0.297925826525    -0.962697502053    15.994914619560
           C         -3.176315051552    -0.065848173475     0.366998497947    12.000000000000
           C         -1.761154051552     0.291150826525     0.808015497947    12.000000000000
           H         -3.323021051552    -1.137939173475     0.413782497947     1.007825032070
           H         -3.900928051552     0.389772826525     1.039777497947     1.007825032070
           C         -0.672824051552    -0.403234173475    -0.011670502053    12.000000000000
           H         -1.632996051552     1.372315826525     0.747848497947     1.007825032070
           H         -1.654818051552     0.031747826525     1.859977497947     1.007825032070
           C          0.743104948448    -0.020762173475     0.424264497947    12.000000000000
           H         -0.810207051552    -0.164145173475    -1.061752502053     1.007825032070
           H         -0.797960051552    -1.481332173475     0.074581497947     1.007825032070
           C          1.827034948448    -0.724284173475    -0.396855502053    12.000000000000
           H          0.858302948448     1.057609826525     0.345129497947     1.007825032070
           H          0.876366948448    -0.265558173475     1.477317497947     1.007825032070
           C          3.262829948448    -0.441696173475     0.060082497947    12.000000000000
           H          1.722772948448    -0.445089173475    -1.444173502053     1.007825032070
           H          1.655797948448    -1.797806173475    -0.351633502053     1.007825032070
           C          3.713912948448     1.008874826525    -0.120950502053    12.000000000000
           H          3.935406948448    -1.087639173475    -0.499102502053     1.007825032070
           H          3.370028948448    -0.725440173475     1.105166497947     1.007825032070
           H          3.605947948448     1.324646826525    -1.155247502053     1.007825032070
           H          4.758556948448     1.124563826525     0.151395497947     1.007825032070
           H          3.140131948448     1.692973826525     0.495448497947     1.007825032070

  Charge       = 0
  Multiplicity = 1
  Basis Set: 6-31G*
  Basis Set:

    Orbital Energies (a.u.)
    -----------------------

    Doubly Occupied:

       1A    -20.551232     2A    -11.268167     3A    -11.214339
       4A    -11.212697     5A    -11.210483     6A    -11.209884
       7A    -11.208830     8A    -11.205594     9A     -1.358949
      10A     -1.086519    11A     -1.046542    12A     -0.984237
      13A     -0.913061    14A     -0.845412    15A     -0.790487
      16A     -0.774584    17A     -0.703312    18A     -0.640531
      19A     -0.634388    20A     -0.609644    21A     -0.593315
      22A     -0.578247    23A     -0.559121    24A     -0.535887
      25A     -0.514046    26A     -0.505982    27A     -0.494194
      28A     -0.473249    29A     -0.463970    30A     -0.457908
      31A     -0.451223    32A     -0.450145    33A     -0.418310

  @DF-RHF Final Energy:  -349.24490775801434

   => Energetics <=

    Nuclear Repulsion Energy =            383.9891218686255456
    One-Electron Energy =               -1234.5397344307191361
    Two-Electron Energy =                 501.3057048040797667
    DFT Exchange-Correlation Energy =       0.0000000000000000
    Empirical Dispersion Energy =           0.0000000000000000
    PCM Polarization Energy =               0.0000000000000000
    EFP Energy =                            0.0000000000000000
    Total Energy =                       -349.2449077580138805

  Mulliken Charges: (a.u.)
   Center  Symbol    Alpha    Beta     Spin     Total
       1     H     0.27901  0.27901  0.00000  0.44199
       2     O     4.37228  4.37228  0.00000 -0.74456
       3     C     2.99423  2.99423  0.00000  0.01154
       4     C     3.16091  3.16091  0.00000 -0.32182
       5     H     0.43541  0.43541  0.00000  0.12918
       6     H     0.42531  0.42531  0.00000  0.14939
       7     C     3.15498  3.15498  0.00000 -0.30997
       8     H     0.41595  0.41595  0.00000  0.16811
       9     H     0.42325  0.42325  0.00000  0.15350
      10     C     3.15389  3.15389  0.00000 -0.30777
      11     H     0.40991  0.40991  0.00000  0.18017
      12     H     0.42835  0.42835  0.00000  0.14330
      13     C     3.15216  3.15216  0.00000 -0.30432
      14     H     0.42060  0.42060  0.00000  0.15880
      15     H     0.42609  0.42609  0.00000  0.14781
      16     C     3.15217  3.15217  0.00000 -0.30435
      17     H     0.42357  0.42357  0.00000  0.15287
      18     H     0.42342  0.42342  0.00000  0.15315
      19     C     3.24103  3.24103  0.00000 -0.48206
      20     H     0.42163  0.42163  0.00000  0.15673
      21     H     0.42401  0.42401  0.00000  0.15199
      22     H     0.42201  0.42201  0.00000  0.15597
      23     H     0.41991  0.41991  0.00000  0.16018
      24     H     0.41992  0.41992  0.00000  0.16017

   Total alpha = 33.00000, Total beta = 33.00000, Total charge =  0.00000
