  ==> Input File <==

--------------------------------------------------------------------------
set {
	reference rhf
	basis cc-pvtz
}

set_num_threads( 4 )
memory 2 gb

molecule MOL {
0 1

H	 2.828711	 -0.346904	 0.001083
C	 1.876752	 0.015931	 -0.363450
C	 0.776285	 -0.474665	 0.563092
H	 1.728113	 -0.357244	 -1.367440
H	 1.906171	 1.096574	 -0.386153
N	 -0.540022	 0.017605	 0.071630
H	 0.707111	 -1.548969	 0.573035
H	 0.886169	 -0.084184	 1.560432
O	 -0.831525	 1.136654	 0.330377
O	 -1.219353	 -0.751976	 -0.520528

	symmetry c1
}
set optking {
	frozen_dihedral = ("
		9 6 3 2
	")
}

ee = optimize('scf')
oeprop('DIPOLE', 'QUADRUPOLE', 'MULLIKEN_CHARGES')
f=open( 'psi4out.xyz', 'w' )
f.write( "10  " )
f.write( str(ee) + "\n" )
f.write( MOL.save_string_xyz() )
f.close()
--------------------------------------------------------------------------

    Molecular point group: c1
  Charge       = 0
  Multiplicity = 1
  Basis Set: CC-PVTZ
  Basis Set:
  @DF-RHF Final Energy:  -282.81314286932229
    Total Energy =                       -282.8131428693221210
    Molecular point group: c1
  Basis Set: CC-PVTZ
  Basis Set:
  Basis Set: CC-PVTZ
  Basis Set:
  @DF-RHF Final Energy:  -282.80903228328793
    Total Energy =                       -282.8090322832878769
  Basis Set: CC-PVTZ
  Basis Set:
  Basis Set: CC-PVTZ
  Basis Set:
  @DF-RHF Final Energy:  -282.81325596551983
    Total Energy =                       -282.8132559655198293
  Basis Set: CC-PVTZ
  Basis Set:
  Basis Set: CC-PVTZ
  Basis Set:
  @DF-RHF Final Energy:  -282.81334149475350
    Total Energy =                       -282.8133414947536153
  Basis Set: CC-PVTZ
  Basis Set:
  Charge       = 0
  Multiplicity = 1
  Basis Set: CC-PVTZ
  Basis Set:

    Orbital Energies (a.u.)
    -----------------------

    Doubly Occupied:

       1A    -20.592751     2A    -20.590966     3A    -15.838382
       4A    -11.301862     5A    -11.250764     6A     -1.637666
       7A     -1.422032     8A     -1.126552     9A     -0.966841
      10A     -0.839688    11A     -0.763597    12A     -0.739755
      13A     -0.730156    14A     -0.659649    15A     -0.590588
      16A     -0.560301    17A     -0.549510    18A     -0.488483
      19A     -0.479368    20A     -0.454844

  @DF-RHF Final Energy:  -282.81334230438665

   => Energetics <=

    Nuclear Repulsion Energy =            186.7753502856635919
    One-Electron Energy =                -756.0098762930279008
    Two-Electron Energy =                 286.4211837029776007
    DFT Exchange-Correlation Energy =       0.0000000000000000
    Empirical Dispersion Energy =           0.0000000000000000
    PCM Polarization Energy =               0.0000000000000000
    EFP Energy =                            0.0000000000000000
    Total Energy =                       -282.8133423043867651
    Molecular point group: c1
  Basis Set: CC-PVTZ
  Basis Set:

  -Total Gradient:
     Atom            X                  Y                   Z
    ------   -----------------  -----------------  -----------------
       1       -0.000010109629     0.000000931984     0.000006117810
       2       -0.000004224497     0.000030885648     0.000034078048
       3        0.000016973178    -0.000127613594    -0.000095796252
       4       -0.000007515277    -0.000002660731     0.000017721568
       5       -0.000000568108     0.000019186957     0.000000542298
       6        0.000093800570     0.000126085076     0.000255479778
       7        0.000044305140    -0.000028165408     0.000009769323
       8       -0.000003018137    -0.000000889339    -0.000026053282
       9       -0.000070643602    -0.000084341944    -0.000180466530
      10       -0.000058999636     0.000066581352    -0.000021392763

  **** Optimization is complete! (in 5 steps) ****
    Final optimized geometry and variables:
    Molecular point group: c1

    Geometry (in Angstrom), charge = 0, multiplicity = 1:

    H            2.830288580414    -0.345239351142    -0.012460307152
    C            1.877117823533     0.018896178555    -0.372591730630
    C            0.780891574488    -0.470299842697     0.559203247712
    H            1.724480752625    -0.355941462269    -1.375869227632
    H            1.906418067704     1.098946043831    -0.397296501893
    N           -0.539861696299     0.016870028530     0.073633173523
    H            0.713687707322    -1.544084055130     0.579847141246
    H            0.894596358560    -0.071172024995     1.553407731007
    O           -0.829641556430     1.136606214283     0.332814950505
    O           -1.200316439755    -0.736002046097    -0.559185525874

  Mulliken Charges: (a.u.)
   Center  Symbol    Alpha    Beta     Spin     Total
       1     H     0.44795  0.44795  0.00000  0.10410
       2     C     3.14082  3.14082  0.00000 -0.28164
       3     C     3.03740  3.03740  0.00000 -0.07480
       4     H     0.44228  0.44228  0.00000  0.11545
       5     H     0.43935  0.43935  0.00000  0.12130
       6     N     3.27662  3.27662  0.00000  0.44677
       7     H     0.43401  0.43401  0.00000  0.13199
       8     H     0.43565  0.43565  0.00000  0.12870
       9     O     4.17448  4.17448  0.00000 -0.34896
      10     O     4.17146  4.17146  0.00000 -0.34291

   Total alpha = 20.00000, Total beta = 20.00000, Total charge = -0.00000
