  ==> Input File <==

--------------------------------------------------------------------------
set {
	reference rhf
	basis 6-31G*
}

set_num_threads( 1 )
memory 2 gb

molecule MOL {
0 1

H	 -2.798360	 -0.862255	 -0.071053
N	 -1.863561	 -0.715187	 0.256814
C	 -1.344686	 0.554728	 -0.219830
H	 -1.300452	 -1.461917	 -0.101532
C	 0.081427	 0.741154	 0.254071
H	 -1.362155	 0.656231	 -1.305829
H	 -1.952773	 1.354456	 0.191809
O	 0.874168	 -0.245412	 -0.342030
H	 0.444037	 1.730782	 -0.023037
H	 0.121165	 0.653424	 1.337565
C	 0.974929	 -1.423022	 0.393260
H	 1.606992	 -2.103076	 -0.161465
H	 1.421948	 -1.245474	 1.369801
H	 0.000895	 -1.885573	 0.538564

	symmetry c1
}
set optking {
	frozen_dihedral = ("
		8 5 3 6,
		6 3 2 4,
		5 8 11 13
	")
}

ee = energy('scf')
oeprop('DIPOLE', 'QUADRUPOLE', 'MULLIKEN_CHARGES')
f=open( 'psi4out.xyz', 'w' )
f.write( "14  " )
f.write( str(ee) + "\n" )
f.write( MOL.save_string_xyz() )
f.close()
--------------------------------------------------------------------------

    Molecular point group: c1

    Geometry (in Angstrom), charge = 0, multiplicity = 1:

       Center              X                  Y                   Z               Mass
    ------------   -----------------  -----------------  -----------------  -----------------
           H         -2.539637542267    -0.613761722673    -0.138247277648     1.007825032070
           N         -1.604838542267    -0.466693722673     0.189619722352    14.003074004780
           C         -1.085963542267     0.803221277327    -0.287024277648    12.000000000000
           H         -1.041729542267    -1.213423722673    -0.168726277648     1.007825032070
           C          0.340149457733     0.989647277327     0.186876722352    12.000000000000
           H         -1.103432542267     0.904724277327    -1.373023277648     1.007825032070
           H         -1.694050542267     1.602949277327     0.124614722352     1.007825032070
           O          1.132890457733     0.003081277327    -0.409224277648    15.994914619560
           H          0.702759457733     1.979275277327    -0.090231277648     1.007825032070
           H          0.379887457733     0.901917277327     1.270370722352     1.007825032070
           C          1.233651457733    -1.174528722673     0.326065722352    12.000000000000
           H          1.865714457733    -1.854582722673    -0.228659277648     1.007825032070
           H          1.680670457733    -0.996980722673     1.302606722352     1.007825032070
           H          0.259617457733    -1.637079722673     0.471369722352     1.007825032070

  Charge       = 0
  Multiplicity = 1
  Basis Set: 6-31G*
  Basis Set:

    Orbital Energies (a.u.)
    -----------------------

    Doubly Occupied:

       1A    -20.555470     2A    -15.536361     3A    -11.266293
       4A    -11.263049     5A    -11.240928     6A     -1.382349
       7A     -1.182223     8A     -1.003755     9A     -0.907233
      10A     -0.819398    11A     -0.707086    12A     -0.672976
      13A     -0.642346    14A     -0.601984    15A     -0.598280
      16A     -0.560160    17A     -0.530861    18A     -0.509275
      19A     -0.467577    20A     -0.411875    21A     -0.384504

  @DF-RHF Final Energy:  -248.10745800977949

   => Energetics <=

    Nuclear Repulsion Energy =            200.6445173946856642
    One-Electron Energy =                -735.0159602813296260
    Two-Electron Energy =                 286.2639848768640150
    DFT Exchange-Correlation Energy =       0.0000000000000000
    Empirical Dispersion Energy =           0.0000000000000000
    PCM Polarization Energy =               0.0000000000000000
    EFP Energy =                            0.0000000000000000
    Total Energy =                       -248.1074580097799753

  Mulliken Charges: (a.u.)
   Center  Symbol    Alpha    Beta     Spin     Total
       1     H     0.33007  0.33007  0.00000  0.33986
       2     N     3.92948  3.92948  0.00000 -0.85897
       3     C     3.06510  3.06510  0.00000 -0.13020
       4     H     0.32556  0.32556  0.00000  0.34888
       5     C     3.00215  3.00215  0.00000 -0.00429
       6     H     0.42560  0.42560  0.00000  0.14879
       7     H     0.42307  0.42307  0.00000  0.15385
       8     O     4.30783  4.30783  0.00000 -0.61566
       9     H     0.41546  0.41546  0.00000  0.16908
      10     H     0.42184  0.42184  0.00000  0.15633
      11     C     3.08364  3.08364  0.00000 -0.16727
      12     H     0.41373  0.41373  0.00000  0.17253
      13     H     0.42493  0.42493  0.00000  0.15014
      14     H     0.43153  0.43153  0.00000  0.13693

   Total alpha = 21.00000, Total beta = 21.00000, Total charge = -0.00000
