  ==> Input File <==

--------------------------------------------------------------------------
set {
	reference rhf
	basis 6-31G*
}

set_num_threads( 1 )
memory 2 gb

molecule MOL {
0 1

H	 -0.095406	 3.651662	 -1.945918
O	 -0.564583	 2.847723	 -2.118960
C	 -0.355104	 1.943368	 -1.067651
C	 1.037921	 1.342035	 -1.127205
H	 -0.510329	 2.410910	 -0.099319
H	 -1.091441	 1.159494	 -1.176274
O	 1.171513	 0.459272	 -0.058250
H	 1.789612	 2.131667	 -1.068722
H	 1.175054	 0.831461	 -2.078569
C	 2.397842	 -0.198080	 -0.002151
H	 2.508049	 -0.905315	 -0.822092
H	 3.173794	 0.550865	 -0.078850
H	 2.517602	 -0.735921	 0.936026

	symmetry c1
}
set optking {
	frozen_dihedral = ("
		8 4 3 5,
		1 2 3 5,
		10 7 4 8
	")
}

ee = energy('scf')
oeprop('DIPOLE', 'QUADRUPOLE', 'MULLIKEN_CHARGES')
f=open( 'psi4out.xyz', 'w' )
f.write( "13  " )
f.write( str(ee) + "\n" )
f.write( MOL.save_string_xyz() )
f.close()
--------------------------------------------------------------------------

    Molecular point group: c1

    Geometry (in Angstrom), charge = 0, multiplicity = 1:

       Center              X                  Y                   Z               Mass
    ------------   -----------------  -----------------  -----------------  -----------------
           H         -0.834589691735     2.348495623710    -1.057430254725     1.007825032070
           O         -1.303766691735     1.544556623710    -1.230472254725    15.994914619560
           C         -1.094287691735     0.640201623710    -0.179163254725    12.000000000000
           C          0.298737308265     0.038868623710    -0.238717254725    12.000000000000
           H         -1.249512691735     1.107743623710     0.789168745275     1.007825032070
           H         -1.830624691735    -0.143672376290    -0.287786254725     1.007825032070
           O          0.432329308265    -0.843894376290     0.830237745275    15.994914619560
           H          1.050428308265     0.828500623710    -0.180234254725     1.007825032070
           H          0.435870308265    -0.471705376290    -1.190081254725     1.007825032070
           C          1.658658308265    -1.501246376290     0.886336745275    12.000000000000
           H          1.768865308265    -2.208481376290     0.066395745275     1.007825032070
           H          2.434610308265    -0.752301376290     0.809637745275     1.007825032070
           H          1.778418308265    -2.039087376290     1.824513745275     1.007825032070

  Charge       = 0
  Multiplicity = 1
  Basis Set: 6-31G*
  Basis Set:

    Orbital Energies (a.u.)
    -----------------------

    Doubly Occupied:

       1A    -20.561263     2A    -20.560373     3A    -11.271519
       4A    -11.270655     5A    -11.269214     6A     -1.388638
       7A     -1.365379     8A     -1.018251     9A     -0.913336
      10A     -0.842524    11A     -0.709581    12A     -0.675462
      13A     -0.659248    14A     -0.637397    15A     -0.597184
      16A     -0.569994    17A     -0.546271    18A     -0.488113
      19A     -0.481467    20A     -0.438774    21A     -0.421373

  @DF-RHF Final Energy:  -267.94925872097861

   => Energetics <=

    Nuclear Repulsion Energy =            190.3014601555732668
    One-Electron Energy =                -743.1294229279122874
    Two-Electron Energy =                 284.8787040513601028
    DFT Exchange-Correlation Energy =       0.0000000000000000
    Empirical Dispersion Energy =           0.0000000000000000
    PCM Polarization Energy =               0.0000000000000000
    EFP Energy =                            0.0000000000000000
    Total Energy =                       -267.9492587209788894

  Mulliken Charges: (a.u.)
   Center  Symbol    Alpha    Beta     Spin     Total
       1     H     0.28125  0.28125  0.00000  0.43751
       2     O     4.37080  4.37080  0.00000 -0.74160
       3     C     3.00463  3.00463  0.00000 -0.00927
       4     C     2.99664  2.99664  0.00000  0.00672
       5     H     0.42218  0.42218  0.00000  0.15564
       6     H     0.40824  0.40824  0.00000  0.18352
       7     O     4.30841  4.30841  0.00000 -0.61681
       8     H     0.43745  0.43745  0.00000  0.12510
       9     H     0.42326  0.42326  0.00000  0.15349
      10     C     3.07897  3.07897  0.00000 -0.15794
      11     H     0.42699  0.42699  0.00000  0.14601
      12     H     0.43002  0.43002  0.00000  0.13996
      13     H     0.41117  0.41117  0.00000  0.17767

   Total alpha = 21.00000, Total beta = 21.00000, Total charge = -0.00000
