  ==> Input File <==

--------------------------------------------------------------------------
set {
	reference rhf
	basis 6-31G*
}

set_num_threads( 4 )
memory 2 gb

molecule MOL {
0 1

H	 2.591676	 2.013956	 0.335017
O	 3.341076	 1.666752	 -0.126416
C	 3.569581	 0.339145	 0.272707
C	 2.539767	 -0.640285	 -0.279495
H	 4.553106	 0.084646	 -0.100901
H	 3.608576	 0.269204	 1.359154
C	 1.115811	 -0.397273	 0.226630
H	 2.556196	 -0.582511	 -1.364741
H	 2.852081	 -1.648031	 -0.010655
C	 0.115918	 -1.429151	 -0.302766
H	 0.797950	 0.599468	 -0.066350
H	 1.109961	 -0.420744	 1.316472
C	 0.268378	 -1.769543	 -1.789786
H	 0.197693	 -2.341398	 0.285424
H	 -0.891038	 -1.051747	 -0.137519
C	 1.566766	 -2.494206	 -2.155205
H	 -0.572129	 -2.394078	 -2.085287
H	 0.187089	 -0.856505	 -2.377655
C	 1.625644	 -2.905661	 -3.627847
H	 1.671035	 -3.380636	 -1.531121
H	 2.423346	 -1.862484	 -1.932719
C	 2.923425	 -3.623535	 -3.996745
H	 0.779640	 -3.550620	 -3.855429
H	 1.511881	 -2.022426	 -4.253019
H	 3.050382	 -4.529644	 -3.411021
H	 2.933960	 -3.903808	 -5.045540
H	 3.787445	 -2.990365	 -3.815281

	symmetry c1
}
set optking {
	frozen_dihedral = ("
		14 10 7 4
	")
}

ee = optimize('scf')
oeprop('DIPOLE', 'QUADRUPOLE', 'MULLIKEN_CHARGES')
f=open( 'psi4out.xyz', 'w' )
f.write( "27  " )
f.write( str(ee) + "\n" )
f.write( MOL.save_string_xyz() )
f.close()
--------------------------------------------------------------------------

    Molecular point group: c1
  Charge       = 0
  Multiplicity = 1
  Basis Set: 6-31G*
  Basis Set:
  @DF-RHF Final Energy:  -388.25008591764725
    Total Energy =                       -388.2500859176469703
    Molecular point group: c1
  Basis Set: 6-31G*
  Basis Set:
  Basis Set: 6-31G*
  Basis Set:
  @DF-RHF Final Energy:  -388.26808841109124
    Total Energy =                       -388.2680884110909574
  Basis Set: 6-31G*
  Basis Set:
  Basis Set: 6-31G*
  Basis Set:
  @DF-RHF Final Energy:  -388.27318365640019
    Total Energy =                       -388.2731836564008745
  Basis Set: 6-31G*
  Basis Set:
  Basis Set: 6-31G*
  Basis Set:
  @DF-RHF Final Energy:  -388.27462251172653
    Total Energy =                       -388.2746225117265340
  Basis Set: 6-31G*
  Basis Set:
  @DF-RHF Final Energy:  -388.27526615732717
    Total Energy =                       -388.2752661573280193
  @DF-RHF Final Energy:  -388.27547204769286
    Total Energy =                       -388.2754720476921193
  @DF-RHF Final Energy:  -388.27566254683859
    Total Energy =                       -388.2756625468391576
  @DF-RHF Final Energy:  -388.27567933981209
    Total Energy =                       -388.2756793398120863
  Basis Set: 6-31G*
  Basis Set:
  @DF-RHF Final Energy:  -388.27568855782670
    Total Energy =                       -388.2756885578266974
  Basis Set: 6-31G*
  Basis Set:
  Basis Set: 6-31G*
  Basis Set:
  @DF-RHF Final Energy:  -388.27569369000724
    Total Energy =                       -388.2756936900079836
  Basis Set: 6-31G*
  Basis Set:
  Basis Set: 6-31G*
  Basis Set:
  @DF-RHF Final Energy:  -388.27569506923743
    Total Energy =                       -388.2756950692370310
  Basis Set: 6-31G*
  Basis Set:
  Charge       = 0
  Multiplicity = 1
  Basis Set: 6-31G*
  Basis Set:

    Orbital Energies (a.u.)
    -----------------------

    Doubly Occupied:

       1A    -20.552496     2A    -11.267275     3A    -11.221129
       4A    -11.217688     5A    -11.214913     6A    -11.214889
       7A    -11.214220     8A    -11.212164     9A    -11.208017
      10A     -1.359246    11A     -1.092889    12A     -1.059149
      13A     -1.008850    14A     -0.951809    15A     -0.885805
      16A     -0.831604    17A     -0.792535    18A     -0.772360
      19A     -0.696196    20A     -0.647485    21A     -0.635653
      22A     -0.614061    23A     -0.605338    24A     -0.586328
      25A     -0.566960    26A     -0.553188    27A     -0.549849
      28A     -0.517412    29A     -0.516633    30A     -0.497127
      31A     -0.482723    32A     -0.471866    33A     -0.465666
      34A     -0.456774    35A     -0.455489    36A     -0.434891
      37A     -0.423005

  @DF-RHF Final Energy:  -388.27569502302333

   => Energetics <=

    Nuclear Repulsion Energy =            468.6427220382611267
    One-Electron Energy =               -1455.3294708975540743
    Two-Electron Energy =                 598.4110538362698435
    DFT Exchange-Correlation Energy =       0.0000000000000000
    Empirical Dispersion Energy =           0.0000000000000000
    PCM Polarization Energy =               0.0000000000000000
    EFP Energy =                            0.0000000000000000
    Total Energy =                       -388.2756950230231041
    Molecular point group: c1
  Basis Set: 6-31G*
  Basis Set:

  -Total Gradient:
     Atom            X                  Y                   Z
    ------   -----------------  -----------------  -----------------
       1       -0.000010890795     0.000020453059    -0.000003162083
       2       -0.000044545286    -0.000001277067     0.000013419724
       3        0.000058228115    -0.000016806694    -0.000014511096
       4       -0.000861061928     0.002116468261    -0.002701479735
       5        0.000016710352    -0.000031890223     0.000011316814
       6       -0.000014185781     0.000007096670    -0.000005490646
       7        0.000425927890    -0.002783692015     0.004686827229
       8        0.000007629723     0.000022713220     0.000004855729
       9        0.000002084863    -0.000000085311    -0.000011344693
      10        0.003974215358    -0.000360017834    -0.004914310796
      11       -0.000001522684    -0.000002048430    -0.000012887854
      12       -0.000003283400     0.000013288112    -0.000001862047
      13        0.000001624660     0.000003978183    -0.000012968955
      14       -0.003526020365     0.001058006052     0.002986165912
      15        0.000007223433     0.000001377554    -0.000004384558
      16       -0.000047114277    -0.000047701897    -0.000008722134
      17        0.000000804472    -0.000011218140     0.000020350565
      18       -0.000017214659    -0.000004861186    -0.000013107300
      19        0.000015232585     0.000017898023    -0.000004353809
      20       -0.000004427451    -0.000017321318    -0.000016713622
      21        0.000012331808     0.000008312438     0.000004918352
      22        0.000002352615     0.000005014131     0.000001598543
      23        0.000008518428    -0.000002297996     0.000005271964
      24       -0.000000914821     0.000005598727    -0.000009940817
      25        0.000000221273    -0.000000206120     0.000003349365
      26       -0.000001873560    -0.000001208824     0.000000435451
      27       -0.000000050570     0.000000428624    -0.000003269509

  **** Optimization is complete! (in 12 steps) ****
    Final optimized geometry and variables:
    Molecular point group: c1

    Geometry (in Angstrom), charge = 0, multiplicity = 1:

    H            0.269090904294     3.397261724107     1.915715633866
    O            1.098626867096     3.233337881195     1.491384720239
    C            1.554163794776     1.945937210841     1.821771931167
    C            0.776477988480     0.834544696827     1.123250583645
    H            2.591573693489     1.913380881391     1.514430670597
    H            1.531990143189     1.798836028783     2.900899937878
    C           -0.694991088231     0.773517710517     1.541271618860
    H            0.855991564504     0.987931385779     0.052240922475
    H            1.266645019053    -0.110374108880     1.350817658419
    C           -1.545158053126    -0.359915654703     0.939564550696
    H           -1.161804221485     1.717085434595     1.264301691747
    H           -0.759213974486     0.706814377706     2.626109124919
    C           -1.436070742391    -0.591213487417    -0.577353418891
    H           -1.361037773389    -1.285226728676     1.482253099686
    H           -2.579685138070    -0.114737715621     1.168940213494
    C           -0.377197853203    -1.610651061684    -1.010169427930
    H           -2.399563492918    -0.942636771072    -0.938759527158
    H           -1.260996259504     0.358130886383    -1.080014941073
    C           -0.326608196023    -1.807451547334    -2.526691319433
    H           -0.593436325329    -2.565197936423    -0.532880381512
    H            0.605889893043    -1.312681859375    -0.658730731807
    C            0.709502821974    -2.843900871416    -2.960406158181
    H           -1.309106335354    -2.108452072289    -2.884371517747
    H           -0.106633842445    -0.855798653464    -3.005989686923
    H            0.497613140925    -3.816304619312    -2.524651857433
    H            0.721489287811    -2.960993129135    -4.039653641696
    H            1.708925507915    -2.553785860676    -2.648492060628

  Mulliken Charges: (a.u.)
   Center  Symbol    Alpha    Beta     Spin     Total
       1     H     0.27965  0.27965  0.00000  0.44071
       2     O     4.37113  4.37113  0.00000 -0.74226
       3     C     2.99723  2.99723  0.00000  0.00554
       4     C     3.16388  3.16388  0.00000 -0.32776
       5     H     0.41440  0.41440  0.00000  0.17120
       6     H     0.43196  0.43196  0.00000  0.13607
       7     C     3.16182  3.16182  0.00000 -0.32364
       8     H     0.41304  0.41304  0.00000  0.17393
       9     H     0.42401  0.42401  0.00000  0.15199
      10     C     3.15416  3.15416  0.00000 -0.30832
      11     H     0.42585  0.42585  0.00000  0.14830
      12     H     0.42363  0.42363  0.00000  0.15274
      13     C     3.15853  3.15853  0.00000 -0.31706
      14     H     0.42187  0.42187  0.00000  0.15626
      15     H     0.42014  0.42014  0.00000  0.15972
      16     C     3.15265  3.15265  0.00000 -0.30531
      17     H     0.42069  0.42069  0.00000  0.15861
      18     H     0.42029  0.42029  0.00000  0.15942
      19     C     3.15211  3.15211  0.00000 -0.30423
      20     H     0.42453  0.42453  0.00000  0.15094
      21     H     0.42002  0.42002  0.00000  0.15997
      22     C     3.23919  3.23919  0.00000 -0.47838
      23     H     0.42335  0.42335  0.00000  0.15330
      24     H     0.42260  0.42260  0.00000  0.15481
      25     H     0.42210  0.42210  0.00000  0.15580
      26     H     0.41928  0.41928  0.00000  0.16144
      27     H     0.42189  0.42189  0.00000  0.15622

   Total alpha = 37.00000, Total beta = 37.00000, Total charge = -0.00000
