  ==> Input File <==

--------------------------------------------------------------------------
set {
	reference rhf
	basis 6-31G*
}

set_num_threads( 1 )
memory 2 gb

molecule MOL {
0 1

O	 -2.732327	 1.187458	 0.804343
C	 -2.621219	 0.065165	 0.426548
C	 -3.759428	 -0.921501	 0.379244
O	 -1.481751	 -0.454642	 0.000584
H	 -4.542964	 -0.518815	 -0.251453
H	 -3.443470	 -1.883475	 0.003458
H	 -4.166251	 -1.031447	 1.377386
C	 -0.334255	 0.388708	 0.000906
C	 0.891947	 -0.504646	 0.000751
H	 -0.365390	 1.025305	 -0.873475
H	 -0.365484	 1.024911	 0.875569
C	 2.191998	 0.301789	 0.000897
H	 0.855148	 -1.151283	 -0.871571
H	 0.855132	 -1.151660	 0.872805
C	 3.441114	 -0.581407	 0.000108
H	 2.215074	 0.954890	 -0.869742
H	 2.215465	 0.953923	 0.872248
C	 4.739576	 0.224112	 -0.001102
H	 3.419457	 -1.233487	 -0.870178
H	 3.420834	 -1.233096	 0.870717
H	 4.804918	 0.861552	 -0.878265
H	 5.606527	 -0.429058	 -0.001824
H	 4.806469	 0.861674	 0.875853

	symmetry c1
}
set optking {
	frozen_dihedral = ("
		13 9 8 10,
		16 12 9 13,
		19 15 12 16,
		1 2 4 8
	")
}

ee = energy('scf')
oeprop('DIPOLE', 'QUADRUPOLE', 'MULLIKEN_CHARGES')
f=open( 'psi4out.xyz', 'w' )
f.write( "23  " )
f.write( str(ee) + "\n" )
f.write( MOL.save_string_xyz() )
f.close()
--------------------------------------------------------------------------

    Molecular point group: c1

    Geometry (in Angstrom), charge = 0, multiplicity = 1:

       Center              X                  Y                   Z               Mass
    ------------   -----------------  -----------------  -----------------  -----------------
           O         -2.752529150087     1.215015249065     0.622148857801    15.994914619560
           C         -2.641421150087     0.092722249065     0.244353857801    12.000000000000
           C         -3.779630150087    -0.893943750935     0.197049857801    12.000000000000
           O         -1.501953150087    -0.427084750935    -0.181610142199    15.994914619560
           H         -4.563166150087    -0.491257750935    -0.433647142199     1.007825032070
           H         -3.463672150087    -1.855917750935    -0.178736142199     1.007825032070
           H         -4.186453150087    -1.003889750935     1.195191857801     1.007825032070
           C         -0.354457150087     0.416265249065    -0.181288142199    12.000000000000
           C          0.871744849913    -0.477088750935    -0.181443142199    12.000000000000
           H         -0.385592150087     1.052862249065    -1.055669142199     1.007825032070
           H         -0.385686150087     1.052468249065     0.693374857801     1.007825032070
           C          2.171795849913     0.329346249065    -0.181297142199    12.000000000000
           H          0.834945849913    -1.123725750935    -1.053765142199     1.007825032070
           H          0.834929849913    -1.124102750935     0.690610857801     1.007825032070
           C          3.420911849913    -0.553849750935    -0.182086142199    12.000000000000
           H          2.194871849913     0.982447249065    -1.051936142199     1.007825032070
           H          2.195262849913     0.981480249065     0.690053857801     1.007825032070
           C          4.719373849913     0.251669249065    -0.183296142199    12.000000000000
           H          3.399254849913    -1.205929750935    -1.052372142199     1.007825032070
           H          3.400631849913    -1.205538750935     0.688522857801     1.007825032070
           H          4.784715849913     0.889109249065    -1.060459142199     1.007825032070
           H          5.586324849913    -0.401500750935    -0.184018142199     1.007825032070
           H          4.786266849913     0.889231249065     0.693658857801     1.007825032070

  Charge       = 0
  Multiplicity = 1
  Basis Set: 6-31G*
  Basis Set:

    Orbital Energies (a.u.)
    -----------------------

    Doubly Occupied:

       1A    -20.603145     2A    -20.540412     3A    -11.374534
       4A    -11.280271     5A    -11.232625     6A    -11.223971
       7A    -11.223381     8A    -11.221435     9A    -11.212791
      10A     -1.468224    11A     -1.360928    12A     -1.093868
      13A     -1.042164    14A     -1.003408    15A     -0.930766
      16A     -0.841947    17A     -0.802228    18A     -0.774340
      19A     -0.694644    20A     -0.683260    21A     -0.666887
      22A     -0.646771    23A     -0.605796    24A     -0.588215
      25A     -0.582590    26A     -0.568094    27A     -0.556733
      28A     -0.537597    29A     -0.523190    30A     -0.505663
      31A     -0.490183    32A     -0.477758    33A     -0.471109
      34A     -0.467146    35A     -0.449624    36A     -0.434574

  @DF-RHF Final Energy:  -422.97875943435594

   => Energetics <=

    Nuclear Repulsion Energy =            450.1073687492960858
    One-Electron Energy =               -1467.8118572194500757
    Two-Electron Energy =                 594.7257290358004411
    DFT Exchange-Correlation Energy =       0.0000000000000000
    Empirical Dispersion Energy =           0.0000000000000000
    PCM Polarization Energy =               0.0000000000000000
    EFP Energy =                            0.0000000000000000
    Total Energy =                       -422.9787594343536057

  Mulliken Charges: (a.u.)
   Center  Symbol    Alpha    Beta     Spin     Total
       1     O     4.28391  4.28391  0.00000 -0.56782
       2     C     2.61560  2.61560  0.00000  0.76880
       3     C     3.28809  3.28809  0.00000 -0.57618
       4     O     4.31213  4.31213  0.00000 -0.62425
       5     H     0.39733  0.39733  0.00000  0.20534
       6     H     0.39979  0.39979  0.00000  0.20043
       7     H     0.39753  0.39753  0.00000  0.20493
       8     C     2.99921  2.99921  0.00000  0.00158
       9     C     3.16401  3.16401  0.00000 -0.32802
      10     H     0.41465  0.41465  0.00000  0.17071
      11     H     0.40278  0.40278  0.00000  0.19445
      12     C     3.16024  3.16024  0.00000 -0.32049
      13     H     0.41447  0.41447  0.00000  0.17107
      14     H     0.41478  0.41478  0.00000  0.17045
      15     C     3.15138  3.15138  0.00000 -0.30276
      16     H     0.42131  0.42131  0.00000  0.15738
      17     H     0.42034  0.42034  0.00000  0.15932
      18     C     3.23987  3.23987  0.00000 -0.47974
      19     H     0.42146  0.42146  0.00000  0.15708
      20     H     0.42136  0.42136  0.00000  0.15728
      21     H     0.42100  0.42100  0.00000  0.15800
      22     H     0.41804  0.41804  0.00000  0.16392
      23     H     0.42074  0.42074  0.00000  0.15852

   Total alpha = 36.00000, Total beta = 36.00000, Total charge =  0.00000
