                              Psi4 1.0.54 Driver

  ==> Input File <==

--------------------------------------------------------------------------
set {
	reference rhf
	basis cc-pvtz
}

set_num_threads( 4 )
memory 2 gb

molecule MOL {
0 1

O	 1.525816	 0.191847	 0.968130
C	 0.860843	 0.273204	 -0.013120
C	 -0.623368	 -0.117453	 -0.005652
C	 1.483967	 0.765256	 -1.304485
C	 -0.892588	 -1.253841	 -1.002900
C	 -1.473463	 1.100646	 -0.372896
C	 -0.981836	 -0.579025	 1.418506
H	 -0.609333	 -0.970024	 -2.010649
H	 -1.950451	 -1.487353	 -1.013175
H	 -0.360848	 -2.161259	 -0.746463
H	 -1.232203	 1.461623	 -1.364827
H	 -2.524364	 0.834451	 -0.354500
H	 -1.312381	 1.914833	 0.318657
H	 -2.035706	 -0.826342	 1.468082
H	 -0.425078	 -1.458934	 1.716857
H	 -0.788494	 0.205047	 2.140903
H	 1.206579	 1.801693	 -1.461385
H	 2.557756	 0.703375	 -1.217216
H	 1.150184	 0.204372	 -2.166594

	symmetry c1
}
set optking {
	frozen_dihedral = ("
		1 2 3 5
	")
}

ee,wfn = optimize('scf', return_wfn=True)
oeprop( wfn, 'DIPOLE', 'QUADRUPOLE', 'MULLIKEN_CHARGES')
f=open( 'psi4out.xyz', 'w' )
f.write( "19  " )
f.write( str(ee) + "\n" )
f.write( MOL.save_string_xyz() )
f.close()
--------------------------------------------------------------------------

    Molecular point group: c1
  Charge       = 0
  Multiplicity = 1
  Basis Set: CC-PVTZ
  Basis Set:
  @DF-RHF Final Energy:  -309.17291473221866
    Total Energy =                       -309.1729147322189988
    Molecular point group: c1
  Basis Set: CC-PVTZ
  Basis Set:
  Basis Set: CC-PVTZ
  Basis Set:
  @DF-RHF Final Energy:  -309.17222527721856
    Total Energy =                       -309.1722252772188426
  Basis Set: CC-PVTZ
  Basis Set:
  Basis Set: CC-PVTZ
  Basis Set:
  @DF-RHF Final Energy:  -309.17138949021813
    Total Energy =                       -309.1713894902178481
  Basis Set: CC-PVTZ
  Basis Set:
  Basis Set: CC-PVTZ
  Basis Set:
  @DF-RHF Final Energy:  -309.17360722220013
    Total Energy =                       -309.1736072222003031
  Basis Set: CC-PVTZ
  Basis Set:
  @DF-RHF Final Energy:  -309.17367289786381
    Total Energy =                       -309.1736728978636393
  @DF-RHF Final Energy:  -309.17389629636017
    Total Energy =                       -309.1738962963601693
  Basis Set: CC-PVTZ
  Basis Set:
  @DF-RHF Final Energy:  -309.17387308417659
    Total Energy =                       -309.1738730841765914
  Basis Set: CC-PVTZ
  Basis Set:
  Basis Set: CC-PVTZ
  Basis Set:
  @DF-RHF Final Energy:  -309.17389754177947
    Total Energy =                       -309.1738975417791835
  Basis Set: CC-PVTZ
  Basis Set:
  Basis Set: CC-PVTZ
  Basis Set:
  @DF-RHF Final Energy:  -309.17389950629445
    Total Energy =                       -309.1738995062945605
  Basis Set: CC-PVTZ
  Basis Set:
  Charge       = 0
  Multiplicity = 1
  Basis Set: CC-PVTZ
  Basis Set:

    Orbital Energies (a.u.)
    -----------------------

    Doubly Occupied:

       1A    -20.537535     2A    -11.317743     3A    -11.245858
       4A    -11.224733     5A    -11.222672     6A    -11.222357
       7A    -11.205815     8A     -1.398523     9A     -1.110748
      10A     -1.002508    11A     -0.948081    12A     -0.935668
      13A     -0.835985    14A     -0.705401    15A     -0.666798
      16A     -0.633553    17A     -0.620417    18A     -0.600998
      19A     -0.594680    20A     -0.566035    21A     -0.546004
      22A     -0.544406    23A     -0.523270    24A     -0.514290
      25A     -0.501307    26A     -0.472256    27A     -0.469668
      28A     -0.395169

  @DF-RHF Final Energy:  -309.17389996029709

   => Energetics <=

    Nuclear Repulsion Energy =            326.7994048681021582
    One-Electron Energy =               -1066.8216477854011828
    Two-Electron Energy =                 430.8483429570021030
    DFT Exchange-Correlation Energy =       0.0000000000000000
    Empirical Dispersion Energy =           0.0000000000000000
    PCM Polarization Energy =               0.0000000000000000
    EFP Energy =                            0.0000000000000000
    Total Energy =                       -309.1738999602969784
    Molecular point group: c1
  Basis Set: CC-PVTZ
  Basis Set:

  -Total Gradient:
     Atom            X                  Y                   Z
    ------   -----------------  -----------------  -----------------
       1       -0.000177209950     0.001247706102     0.000294478097
       2        0.000210341574    -0.001591835417    -0.000552988672
       3        0.000178465016    -0.000176751033     0.000894470377
       4        0.000077312253     0.000085168881     0.000030503480
       5       -0.000234598631     0.000398333816    -0.000730461551
       6       -0.000039535235    -0.000002709628     0.000063832066
       7        0.000029847944     0.000004264554    -0.000055823958
       8       -0.000031523713    -0.000053804958     0.000157509619
       9        0.000132344369    -0.000012480260    -0.000060235553
      10       -0.000131324409     0.000120911064    -0.000059967331
      11        0.000000018391    -0.000022865737     0.000020690073
      12       -0.000068124012     0.000000367565     0.000008750765
      13        0.000007493902     0.000019394115     0.000003576038
      14        0.000005717500     0.000007641681     0.000003148375
      15       -0.000000662793    -0.000023564917    -0.000000037403
      16        0.000012506194     0.000043084253     0.000025461487
      17        0.000002982892    -0.000014954837    -0.000026826704
      18        0.000019314240    -0.000002903917    -0.000013835193
      19        0.000006634470    -0.000025001327    -0.000002244012

  **** Optimization is complete! (in 10 steps) ****
    Final optimized geometry and variables:
    Molecular point group: c1

    Geometry (in Angstrom), charge = 0, multiplicity = 1:

    O            1.617369692826     0.047126757901     0.906078520102
    C            0.892534023964     0.136312929896    -0.031209199600
    C           -0.614434675408    -0.127788840201     0.096625898111
    C            1.456916943714     0.568857380965    -1.371269478245
    C           -1.019900042479    -1.288992270637    -0.827362893170
    C           -1.382691341918     1.141952413174    -0.306848436219
    C           -0.946145773478    -0.489854989492     1.545109077056
    H           -0.894976547906    -1.046969128451    -1.874333821380
    H           -2.064740070076    -1.528950586422    -0.671709619606
    H           -0.442171856382    -2.181381949269    -0.614625887759
    H           -1.217550065172     1.406413821118    -1.343930067690
    H           -2.446468682275     0.983605576355    -0.174726185555
    H           -1.094957010094     1.987278056147     0.308334491587
    H           -2.011112950942    -0.667505551774     1.644183768686
    H           -0.420101563866    -1.382020554983     1.856927267907
    H           -0.667269875261     0.305767690396     2.222484239721
    H            1.262396473544     1.626531856943    -1.510093883723
    H            2.525213109286     0.415893747428    -1.360903699394
    H            1.017206207791     0.042016751509    -2.205653995364

  Mulliken Charges: (a.u.)
   Center  Symbol    Alpha    Beta     Spin     Total
       1     O     4.17384  4.17384  0.00000 -0.34768
       2     C     2.85462  2.85462  0.00000  0.29076
       3     C     3.00755  3.00755  0.00000 -0.01510
       4     C     3.16199  3.16199  0.00000 -0.32399
       5     C     3.16287  3.16287  0.00000 -0.32574
       6     C     3.16315  3.16315  0.00000 -0.32630
       7     C     3.14919  3.14919  0.00000 -0.29839
       8     H     0.44587  0.44587  0.00000  0.10827
       9     H     0.44393  0.44393  0.00000  0.11214
      10     H     0.44228  0.44228  0.00000  0.11544
      11     H     0.44637  0.44637  0.00000  0.10727
      12     H     0.44335  0.44335  0.00000  0.11329
      13     H     0.44223  0.44223  0.00000  0.11555
      14     H     0.45223  0.45223  0.00000  0.09554
      15     H     0.44324  0.44324  0.00000  0.11353
      16     H     0.44303  0.44303  0.00000  0.11394
      17     H     0.44584  0.44584  0.00000  0.10832
      18     H     0.43183  0.43183  0.00000  0.13634
      19     H     0.44660  0.44660  0.00000  0.10681

   Total alpha = 28.00000, Total beta = 28.00000, Total charge =  0.00000

*** Psi4 exiting successfully. Buy a developer a beer!
