  ==> Input File <==

--------------------------------------------------------------------------
set {
	reference rhf
	basis cc-pvtz
}

set_num_threads( 4 )
memory 2 gb

molecule MOL {
0 1

H	 -2.816458	 -0.841657	 -0.064679
N	 -1.878861	 -0.711874	 0.250184
C	 -1.341419	 0.551458	 -0.220231
H	 -1.333674	 -1.468530	 -0.105118
C	 -0.440196	 0.332480	 -1.413752
H	 -2.109240	 1.272727	 -0.497300
H	 -0.750442	 0.994508	 0.573811
O	 -1.206620	 -0.155765	 -2.472960
H	 0.033371	 1.271610	 -1.696492
H	 0.340887	 -0.379216	 -1.156212
C	 -0.479779	 -0.464850	 -3.615496
H	 -1.171904	 -0.826911	 -4.361994
H	 0.032620	 0.410213	 -4.009715
H	 0.260149	 -1.237281	 -3.419486

	symmetry c1
}
set optking {
	frozen_dihedral = ("
		6 3 2 4
	")
}

ee = optimize('scf')
oeprop('DIPOLE', 'QUADRUPOLE', 'MULLIKEN_CHARGES')
f=open( 'psi4out.xyz', 'w' )
f.write( "14  " )
f.write( str(ee) + "\n" )
f.write( MOL.save_string_xyz() )
f.close()
--------------------------------------------------------------------------

    Molecular point group: c1
  Charge       = 0
  Multiplicity = 1
  Basis Set: CC-PVTZ
  Basis Set:
  @DF-RHF Final Energy:  -248.22056350561266
    Total Energy =                       -248.2205635056126880
    Molecular point group: c1
  Basis Set: CC-PVTZ
  Basis Set:
  Basis Set: CC-PVTZ
  Basis Set:
  @DF-RHF Final Energy:  -248.22206842960418
    Total Energy =                       -248.2220684296044624
  Basis Set: CC-PVTZ
  Basis Set:
  Basis Set: CC-PVTZ
  Basis Set:
  @DF-RHF Final Energy:  -248.22228148245676
    Total Energy =                       -248.2222814824566512
  Basis Set: CC-PVTZ
  Basis Set:
  Basis Set: CC-PVTZ
  Basis Set:
  @DF-RHF Final Energy:  -248.22228814277247
    Total Energy =                       -248.2222881427724133
  Basis Set: CC-PVTZ
  Basis Set:
  Charge       = 0
  Multiplicity = 1
  Basis Set: CC-PVTZ
  Basis Set:

    Orbital Energies (a.u.)
    -----------------------

    Doubly Occupied:

       1A    -20.553959     2A    -15.523806     3A    -11.269006
       4A    -11.267168     5A    -11.240839     6A     -1.388521
       7A     -1.175659     8A     -1.002495     9A     -0.910791
      10A     -0.823739    11A     -0.688505    12A     -0.667971
      13A     -0.652198    14A     -0.633749    15A     -0.582134
      16A     -0.547864    17A     -0.537179    18A     -0.505902
      19A     -0.474402    20A     -0.423861    21A     -0.384628

  @DF-RHF Final Energy:  -248.22228858968748

   => Energetics <=

    Nuclear Repulsion Energy =            194.2484244057276896
    One-Electron Energy =                -722.4326800310898307
    Two-Electron Energy =                 279.9619670356744336
    DFT Exchange-Correlation Energy =       0.0000000000000000
    Empirical Dispersion Energy =           0.0000000000000000
    PCM Polarization Energy =               0.0000000000000000
    EFP Energy =                            0.0000000000000000
    Total Energy =                       -248.2222885896876505
    Molecular point group: c1
  Basis Set: CC-PVTZ
  Basis Set:

  -Total Gradient:
     Atom            X                  Y                   Z
    ------   -----------------  -----------------  -----------------
       1       -0.000021418851    -0.000014170573     0.000004693235
       2        0.002306705149     0.000073650504     0.002447594763
       3       -0.000452022480     0.001254514225     0.002605735114
       4       -0.001804745548    -0.000179961919    -0.002493517146
       5       -0.000001681946    -0.000060689383     0.000050555110
       6       -0.000035106443    -0.001102140525    -0.002579749624
       7       -0.000002625159    -0.000010996738     0.000019883905
       8        0.000020810583     0.000026373188    -0.000023210489
       9       -0.000015857456     0.000001521440    -0.000025083276
      10        0.000017457268     0.000005164901     0.000000297543
      11       -0.000014834717     0.000015534061    -0.000004666415
      12        0.000002677210    -0.000003452069    -0.000003917487
      13        0.000002401641    -0.000003182823    -0.000005454867
      14       -0.000001759250    -0.000002164288     0.000006839631

  **** Optimization is complete! (in 5 steps) ****
    Final optimized geometry and variables:
    Molecular point group: c1

    Geometry (in Angstrom), charge = 0, multiplicity = 1:

    H           -1.777804132388    -0.683039134133     1.472534537315
    N           -0.853737430444    -0.571208893633     1.829687109439
    C           -0.254538714126     0.643571051742     1.293825019941
    H           -0.352321157286    -1.378776553604     1.524177213197
    C            0.636528023221     0.427371017872     0.086501943752
    H           -1.042691289024     1.326733783748     1.001185833002
    H            0.336431060175     1.132286198410     2.061836449372
    O           -0.120557898244    -0.075592105207    -0.968724259021
    H            1.101373235276     1.371258628179    -0.196500502920
    H            1.440373850700    -0.267616150823     0.335483782855
    C            0.601358326080    -0.328635027628    -2.128093665315
    H           -0.084579783544    -0.712773280966    -2.869112020190
    H            1.063795136568     0.576504834601    -2.515643137791
    H            1.382339478608    -1.066823095045    -1.958388746729

  Mulliken Charges: (a.u.)
   Center  Symbol    Alpha    Beta     Spin     Total
       1     H     0.42740  0.42740  0.00000  0.14519
       2     N     3.68640  3.68640  0.00000 -0.37280
       3     C     3.02071  3.02071  0.00000 -0.04141
       4     H     0.43207  0.43207  0.00000  0.13586
       5     C     2.97397  2.97397  0.00000  0.05205
       6     H     0.45689  0.45689  0.00000  0.08623
       7     H     0.46089  0.46089  0.00000  0.07823
       8     O     4.17684  4.17684  0.00000 -0.35368
       9     H     0.46928  0.46928  0.00000  0.06144
      10     H     0.47484  0.47484  0.00000  0.05033
      11     C     3.03151  3.03151  0.00000 -0.06303
      12     H     0.44668  0.44668  0.00000  0.10664
      13     H     0.47082  0.47082  0.00000  0.05837
      14     H     0.47171  0.47171  0.00000  0.05659

   Total alpha = 21.00000, Total beta = 21.00000, Total charge = -0.00000
