  ==> Input File <==

--------------------------------------------------------------------------
set {
	reference rhf
	basis 6-31G*
}

set_num_threads( 4 )
memory 2 gb

molecule MOL {
0 1

O	 -2.042549	 -1.228399	 -0.269030
C	 -1.653912	 -0.146171	 0.050137
C	 -0.332303	 0.024011	 0.778412
C	 -2.438579	 1.106236	 -0.272369
C	 0.845713	 -0.001731	 -0.208243
H	 -0.323783	 0.953829	 1.340327
H	 -0.235459	 -0.796807	 1.480410
C	 2.200309	 0.136118	 0.488247
H	 0.733710	 0.800019	 -0.936072
H	 0.811185	 -0.933796	 -0.764304
C	 2.775241	 -1.207705	 0.934117
H	 2.903273	 0.626228	 -0.181872
H	 2.093825	 0.788638	 1.351640
H	 2.925263	 -1.871195	 0.087165
H	 2.108523	 -1.706974	 1.631010
H	 3.733624	 -1.079106	 1.427057
H	 -3.277823	 0.863061	 -0.908988
H	 -1.806773	 1.843019	 -0.759671
H	 -2.802853	 1.554979	 0.648059

	symmetry c1
}
set optking {
	frozen_dihedral = ("
		11 8 5 9
	")
}

ee = optimize('scf')
oeprop('DIPOLE', 'QUADRUPOLE', 'MULLIKEN_CHARGES')
f=open( 'psi4out.xyz', 'w' )
f.write( "19  " )
f.write( str(ee) + "\n" )
f.write( MOL.save_string_xyz() )
f.close()
--------------------------------------------------------------------------

    Molecular point group: c1
  Charge       = 0
  Multiplicity = 1
  Basis Set: 6-31G*
  Basis Set:
  @DF-RHF Final Energy:  -309.06192972791104
    Total Energy =                       -309.0619297279113766
    Molecular point group: c1
  Basis Set: 6-31G*
  Basis Set:
  Basis Set: 6-31G*
  Basis Set:
  @DF-RHF Final Energy:  -309.06199418591558
    Total Energy =                       -309.0619941859156370
  Basis Set: 6-31G*
  Basis Set:
  Basis Set: 6-31G*
  Basis Set:
  @DF-RHF Final Energy:  -309.06198674839442
    Total Energy =                       -309.0619867483941903
  Basis Set: 6-31G*
  Basis Set:
  Basis Set: 6-31G*
  Basis Set:
  @DF-RHF Final Energy:  -309.06139277116807
    Total Energy =                       -309.0613927711682436
  Basis Set: 6-31G*
  Basis Set:
  Basis Set: 6-31G*
  Basis Set:
  @DF-RHF Final Energy:  -309.06211257181451
    Total Energy =                       -309.0621125718145095
  Basis Set: 6-31G*
  Basis Set:
  Basis Set: 6-31G*
  Basis Set:
  @DF-RHF Final Energy:  -309.06211499354066
    Total Energy =                       -309.0621149935403764
  Basis Set: 6-31G*
  Basis Set:
  Basis Set: 6-31G*
  Basis Set:
  @DF-RHF Final Energy:  -309.06221140103543
    Total Energy =                       -309.0622114010350288
  Basis Set: 6-31G*
  Basis Set:
  Charge       = 0
  Multiplicity = 1
  Basis Set: 6-31G*
  Basis Set:

    Orbital Energies (a.u.)
    -----------------------

    Doubly Occupied:

       1A    -20.547597     2A    -11.324659     3A    -11.230342
       4A    -11.229550     5A    -11.228291     6A    -11.224592
       7A    -11.213660     8A     -1.393328     9A     -1.090159
      10A     -1.027882    11A     -0.981914    12A     -0.894869
      13A     -0.801954    14A     -0.735556    15A     -0.654963
      16A     -0.651455    17A     -0.619265    18A     -0.603512
      19A     -0.596906    20A     -0.575739    21A     -0.544664
      22A     -0.538346    23A     -0.518267    24A     -0.498309
      25A     -0.479623    26A     -0.475863    27A     -0.462174
      28A     -0.397051

  @DF-RHF Final Energy:  -309.06221159591041

   => Energetics <=

    Nuclear Repulsion Energy =            303.5604464778782585
    One-Electron Energy =               -1020.1643351961281496
    Two-Electron Energy =                 407.5416771223397063
    DFT Exchange-Correlation Energy =       0.0000000000000000
    Empirical Dispersion Energy =           0.0000000000000000
    PCM Polarization Energy =               0.0000000000000000
    EFP Energy =                            0.0000000000000000
    Total Energy =                       -309.0622115959101848
    Molecular point group: c1
  Basis Set: 6-31G*
  Basis Set:

  -Total Gradient:
     Atom            X                  Y                   Z
    ------   -----------------  -----------------  -----------------
       1       -0.000017527237    -0.000007385834    -0.000011485743
       2        0.000012523502    -0.000006676400     0.000004002875
       3        0.000016201658    -0.000017784660    -0.000010312889
       4        0.000004765297    -0.000000460062    -0.000004327617
       5       -0.001208622246     0.002331849936     0.002102020293
       6        0.000025942079     0.000007328342    -0.000010255876
       7        0.000004511567    -0.000007311415    -0.000002250776
       8       -0.001230771304    -0.000149356626     0.002410336018
       9        0.001343876991    -0.001916981491    -0.002349039301
      10       -0.000014216416    -0.000000275678     0.000037510404
      11        0.001076892202    -0.000239060128    -0.002143650615
      12       -0.000007851322     0.000000943879    -0.000027248520
      13       -0.000006715928    -0.000010636332     0.000004954996
      14        0.000025681728     0.000001906235    -0.000006290977
      15       -0.000014930896     0.000001355135    -0.000008826469
      16       -0.000011100034     0.000015714587     0.000012159264
      17        0.000003778211    -0.000003596184     0.000001460354
      18       -0.000000946943     0.000000648337    -0.000000158758
      19       -0.000001490914    -0.000000221639     0.000001403340

  **** Optimization is complete! (in 8 steps) ****
    Final optimized geometry and variables:
    Molecular point group: c1

    Geometry (in Angstrom), charge = 0, multiplicity = 1:

    O           -1.940063968463    -1.038909801427    -0.482638161233
    C           -1.565301321282     0.048663309025    -0.165009851871
    C           -0.248799368850     0.236778649262     0.568225971525
    C           -2.363051867246     1.290989775709    -0.494275585419
    C            0.933077457094     0.223410612268    -0.414258659565
    H           -0.252647092721     1.169577431583     1.124949035664
    H           -0.148763662971    -0.579175765943     1.275013385615
    C            2.301797950807     0.326124976456     0.277829491345
    H            0.828178568999     1.027859817770    -1.138284390971
    H            0.888686750319    -0.696404600989    -0.990216388057
    C            2.863172990303    -1.025975807521     0.720123198980
    H            3.009612552740     0.781282837018    -0.409675291792
    H            2.235064131011     0.998404492254     1.129835570881
    H            3.018069292665    -1.676641968609    -0.134989515311
    H            2.193448002371    -1.536924444977     1.405649121783
    H            3.817438069956    -0.905158111444     1.223329867545
    H           -3.197274231597     1.036151395437    -1.132931840278
    H           -1.737813514241     2.033131886212    -0.981919367369
    H           -2.735553513212     1.738738973617     0.423342303878

  Mulliken Charges: (a.u.)
   Center  Symbol    Alpha    Beta     Spin     Total
       1     O     4.26197  4.26197  0.00000 -0.52394
       2     C     2.73754  2.73754  0.00000  0.52492
       3     C     3.20050  3.20050  0.00000 -0.40100
       4     C     3.28952  3.28952  0.00000 -0.57905
       5     C     3.16536  3.16536  0.00000 -0.33072
       6     H     0.41666  0.41666  0.00000  0.16669
       7     H     0.40042  0.40042  0.00000  0.19917
       8     C     3.15425  3.15425  0.00000 -0.30850
       9     H     0.41839  0.41839  0.00000  0.16323
      10     H     0.40590  0.40590  0.00000  0.18819
      11     C     3.24063  3.24063  0.00000 -0.48127
      12     H     0.41788  0.41788  0.00000  0.16424
      13     H     0.42139  0.42139  0.00000  0.15722
      14     H     0.41834  0.41834  0.00000  0.16333
      15     H     0.41950  0.41950  0.00000  0.16101
      16     H     0.41824  0.41824  0.00000  0.16353
      17     H     0.39701  0.39701  0.00000  0.20597
      18     H     0.40972  0.40972  0.00000  0.18055
      19     H     0.40678  0.40678  0.00000  0.18644

   Total alpha = 28.00000, Total beta = 28.00000, Total charge = -0.00000
