  ==> Input File <==

--------------------------------------------------------------------------
set {
	reference rhf
	basis 6-31G*
}

set_num_threads( 4 )
memory 2 gb

molecule MOL {
0 1

H	 -2.798360	 -0.862255	 -0.071053
N	 -1.863561	 -0.715187	 0.256814
C	 -1.344686	 0.554728	 -0.219830
H	 -1.300452	 -1.461917	 -0.101532
C	 -1.103341	 0.486837	 -1.713242
H	 -2.001355	 1.401587	 -0.015822
H	 -0.398009	 0.750231	 0.274500
O	 -2.337117	 0.313237	 -2.349439
H	 -0.629109	 1.404640	 -2.060199
H	 -0.441735	 -0.346487	 -1.939257
C	 -2.253674	 0.148757	 -3.729132
H	 -3.259833	 0.026002	 -4.106323
H	 -1.802891	 1.016813	 -4.206893
H	 -1.669179	 -0.731086	 -3.989996

	symmetry c1
}
set optking {
	frozen_dihedral = ("
		6 3 2 4
	")
}

ee = optimize('scf')
oeprop('DIPOLE', 'QUADRUPOLE', 'MULLIKEN_CHARGES')
f=open( 'psi4out.xyz', 'w' )
f.write( "14  " )
f.write( str(ee) + "\n" )
f.write( MOL.save_string_xyz() )
f.close()
--------------------------------------------------------------------------

    Molecular point group: c1
  Charge       = 0
  Multiplicity = 1
  Basis Set: 6-31G*
  Basis Set:
  @DF-RHF Final Energy:  -248.12169843123175
    Total Energy =                       -248.1216984312317777
    Molecular point group: c1
  Basis Set: 6-31G*
  Basis Set:
  Basis Set: 6-31G*
  Basis Set:
  @DF-RHF Final Energy:  -248.12408727923588
    Total Energy =                       -248.1240872792359937
  Basis Set: 6-31G*
  Basis Set:
  Basis Set: 6-31G*
  Basis Set:
  @DF-RHF Final Energy:  -248.12439758834529
    Total Energy =                       -248.1243975883452322
  Basis Set: 6-31G*
  Basis Set:
  Basis Set: 6-31G*
  Basis Set:
  @DF-RHF Final Energy:  -248.12440322852532
    Total Energy =                       -248.1244032285252388
  Basis Set: 6-31G*
  Basis Set:
  Charge       = 0
  Multiplicity = 1
  Basis Set: 6-31G*
  Basis Set:

    Orbital Energies (a.u.)
    -----------------------

    Doubly Occupied:

       1A    -20.561650     2A    -15.530321     3A    -11.270392
       4A    -11.269975     5A    -11.241691     6A     -1.385987
       7A     -1.175537     8A     -1.000677     9A     -0.910364
      10A     -0.823888    11A     -0.686149    12A     -0.670389
      13A     -0.645154    14A     -0.637654    15A     -0.582843
      16A     -0.548275    17A     -0.526446    18A     -0.507286
      19A     -0.478251    20A     -0.422104    21A     -0.381750

  @DF-RHF Final Energy:  -248.12440361548744

   => Energetics <=

    Nuclear Repulsion Energy =            194.2811096670311031
    One-Electron Energy =                -722.2974631188675403
    Two-Electron Energy =                 279.8919498363489993
    DFT Exchange-Correlation Energy =       0.0000000000000000
    Empirical Dispersion Energy =           0.0000000000000000
    PCM Polarization Energy =               0.0000000000000000
    EFP Energy =                            0.0000000000000000
    Total Energy =                       -248.1244036154874948
    Molecular point group: c1
  Basis Set: 6-31G*
  Basis Set:

  -Total Gradient:
     Atom            X                  Y                   Z
    ------   -----------------  -----------------  -----------------
       1       -0.000042692266    -0.000035404341     0.000011863492
       2        0.001481823025     0.000184337262     0.001793839136
       3        0.000935267390     0.000367940895     0.001773584819
       4       -0.001378793620    -0.000201567065    -0.001799940711
       5        0.000046117949     0.000032574748     0.000040849225
       6       -0.000991940370    -0.000361289910    -0.001815943948
       7        0.000007874298     0.000010672748    -0.000013565024
       8       -0.000032019353    -0.000018120919    -0.000018178006
       9        0.000001907664     0.000011724058    -0.000006369678
      10       -0.000025089623     0.000012326590     0.000019676710
      11       -0.000002564559    -0.000000574615     0.000008864500
      12       -0.000000996465    -0.000002222233    -0.000000395712
      13        0.000000526215     0.000001378517     0.000003743557
      14        0.000000579714    -0.000001775735     0.000001971647

  **** Optimization is complete! (in 5 steps) ****
    Final optimized geometry and variables:
    Molecular point group: c1

    Geometry (in Angstrom), charge = 0, multiplicity = 1:

    H           -1.029722092974    -0.943264673719     1.571928564239
    N           -0.097762234363    -0.815481929489     1.917188552005
    C            0.461421024995     0.393245774238     1.338154764546
    H            0.418541434021    -1.620249650638     1.613207428058
    C            0.691390417377     0.342269911245    -0.164788798081
    H           -0.222649079304     1.209079431695     1.543234641803
    H            1.402215773708     0.621391011626     1.829936924303
    O           -0.536671549314     0.125862197268    -0.793969733695
    H            1.134995978599     1.276961366604    -0.509316446725
    H            1.387118607812    -0.461004483797    -0.414871998278
    C           -0.466902526478     0.038141880751    -2.181579210909
    H           -1.469714348406    -0.128506235593    -2.550417755145
    H           -0.078718911802     0.955741604715    -2.619387894932
    H            0.166642351989    -0.788889312668    -2.496904513711

  Mulliken Charges: (a.u.)
   Center  Symbol    Alpha    Beta     Spin     Total
       1     H     0.32615  0.32615  0.00000  0.34771
       2     N     3.91569  3.91569  0.00000 -0.83139
       3     C     3.07177  3.07177  0.00000 -0.14355
       4     H     0.33722  0.33722  0.00000  0.32556
       5     C     2.99685  2.99685  0.00000  0.00629
       6     H     0.41215  0.41215  0.00000  0.17571
       7     H     0.41847  0.41847  0.00000  0.16306
       8     O     4.30640  4.30640  0.00000 -0.61281
       9     H     0.43090  0.43090  0.00000  0.13821
      10     H     0.43559  0.43559  0.00000  0.12883
      11     C     3.07922  3.07922  0.00000 -0.15844
      12     H     0.41144  0.41144  0.00000  0.17713
      13     H     0.42862  0.42862  0.00000  0.14276
      14     H     0.42954  0.42954  0.00000  0.14093

   Total alpha = 21.00000, Total beta = 21.00000, Total charge = -0.00000
