                              Psi4 1.0.54 Driver

  ==> Input File <==

--------------------------------------------------------------------------
set {
	reference rhf
	basis cc-pvtz
}

set_num_threads( 4 )
memory 2 gb

molecule MOL {
0 1

H	 -3.852109	 0.974088	 0.263745
O	 -3.003836	 1.281448	 0.002974
C	 -2.021813	 0.336996	 0.342658
C	 -0.669613	 0.837286	 -0.127252
H	 -1.999794	 0.187170	 1.419130
H	 -2.242549	 -0.623376	 -0.119233
C	 0.490865	 -0.082543	 0.241244
H	 -0.708709	 0.967192	 -1.204587
H	 -0.507562	 1.822272	 0.303070
C	 1.839800	 0.429565	 -0.255472
H	 0.305636	 -1.070211	 -0.165276
H	 0.527397	 -0.195943	 1.322876
C	 3.001144	 -0.485193	 0.119072
H	 1.804373	 0.541073	 -1.335756
H	 2.020437	 1.423114	 0.146921
H	 2.866892	 -1.477297	 -0.298806
H	 3.943543	 -0.095749	 -0.249061
H	 3.085064	 -0.590459	 1.195790

	symmetry c1
}
set optking {
	frozen_dihedral = ("
		2 3 4 8
	")
}

ee,wfn = optimize('scf', return_wfn=True)
oeprop( wfn, 'DIPOLE', 'QUADRUPOLE', 'MULLIKEN_CHARGES')
f=open( 'psi4out.xyz', 'w' )
f.write( "18  " )
f.write( str(ee) + "\n" )
f.write( MOL.save_string_xyz() )
f.close()
--------------------------------------------------------------------------

    Molecular point group: c1
  Charge       = 0
  Multiplicity = 1
  Basis Set: CC-PVTZ
  Basis Set:
  @DF-RHF Final Energy:  -271.28685605895566
    Total Energy =                       -271.2868560589556068
    Molecular point group: c1
  Basis Set: CC-PVTZ
  Basis Set:
  Basis Set: CC-PVTZ
  Basis Set:
  @DF-RHF Final Energy:  -271.28695228579863
    Total Energy =                       -271.2869522857986340
  Basis Set: CC-PVTZ
  Basis Set:
  Basis Set: CC-PVTZ
  Basis Set:
  @DF-RHF Final Energy:  -271.28696781955466
    Total Energy =                       -271.2869678195544338
  Basis Set: CC-PVTZ
  Basis Set:
  Charge       = 0
  Multiplicity = 1
  Basis Set: CC-PVTZ
  Basis Set:

    Orbital Energies (a.u.)
    -----------------------

    Doubly Occupied:

       1A    -20.545510     2A    -11.265186     3A    -11.213995
       4A    -11.213329     5A    -11.209182     6A    -11.206744
       7A     -1.363370     8A     -1.081790     9A     -1.012524
      10A     -0.914252    11A     -0.820399    12A     -0.792735
      13A     -0.696278    14A     -0.664034    15A     -0.622354
      16A     -0.589620    17A     -0.573328    18A     -0.556432
      19A     -0.533087    20A     -0.493851    21A     -0.491354
      22A     -0.469210    23A     -0.464665    24A     -0.452387
      25A     -0.437581

  @DF-RHF Final Energy:  -271.28696827677584

   => Energetics <=

    Nuclear Repulsion Energy =            245.6728849369492309
    One-Electron Energy =                -854.5533182505370178
    Two-Electron Energy =                 337.5934650368119492
    DFT Exchange-Correlation Energy =       0.0000000000000000
    Empirical Dispersion Energy =           0.0000000000000000
    PCM Polarization Energy =               0.0000000000000000
    EFP Energy =                            0.0000000000000000
    Total Energy =                       -271.2869682767758377
    Molecular point group: c1
  Basis Set: CC-PVTZ
  Basis Set:

  -Total Gradient:
     Atom            X                  Y                   Z
    ------   -----------------  -----------------  -----------------
       1        0.000008507938    -0.000007453114    -0.000008970821
       2        0.000043697390     0.000194998472     0.000311122438
       3       -0.000001403880    -0.000342092237    -0.000414286048
       4       -0.000158082766     0.000580161008     0.000157582710
       5       -0.000003787769    -0.000003997194     0.000005530821
       6        0.000000995738     0.000007180089     0.000009614687
       7       -0.000031894996     0.000028716044     0.000017276978
       8        0.000148782973    -0.000438199259    -0.000048005995
       9        0.000002987512    -0.000017399853    -0.000002472912
      10        0.000026452820     0.000018062704    -0.000022191633
      11       -0.000021846252    -0.000022642561    -0.000009176670
      12       -0.000004271119    -0.000006940946    -0.000008011482
      13       -0.000006917547     0.000008666478     0.000015893290
      14       -0.000001576718    -0.000005600467    -0.000001467097
      15        0.000010401092     0.000002123176    -0.000002598493
      16       -0.000001857263     0.000001707678    -0.000005578428
      17       -0.000012968727     0.000007668382     0.000000064836
      18        0.000002781577    -0.000004958399     0.000005673820

  **** Optimization is complete! (in 4 steps) ****
    Final optimized geometry and variables:
    Molecular point group: c1

    Geometry (in Angstrom), charge = 0, multiplicity = 1:

    H           -3.717899548690     0.563244681430     0.243842619778
    O           -2.876163090476     0.868207605057    -0.040039474021
    C           -1.884750400735    -0.064622875190     0.299542969141
    C           -0.547234973139     0.453181982918    -0.189355023676
    H           -1.853448458782    -0.209843810541     1.377415483983
    H           -2.097141459582    -1.030049403192    -0.154794294474
    C            0.612757587342    -0.467975747458     0.175076208242
    H           -0.597674880425     0.575818249853    -1.266629398992
    H           -0.386135921161     1.440225488118     0.231889860322
    C            1.962584157793     0.040976387842    -0.323091019783
    H            0.432929997511    -1.459129822531    -0.235446069832
    H            0.654914379585    -0.589300962255     1.255042413848
    C            3.122283706396    -0.878253716704     0.044750356183
    H            1.924409582204     0.158996340095    -1.402334922035
    H            2.144185554347     1.031327284706     0.084845168497
    H            2.986861580455    -1.868111059807    -0.378493223969
    H            4.064311548760    -0.488086978605    -0.322985081508
    H            3.208066104491    -0.989256702874     1.120666142429

  Mulliken Charges: (a.u.)
   Center  Symbol    Alpha    Beta     Spin     Total
       1     H     0.39755  0.39755  0.00000  0.20489
       2     O     4.19445  4.19445  0.00000 -0.38890
       3     C     2.96349  2.96349  0.00000  0.07303
       4     C     3.08389  3.08389  0.00000 -0.16779
       5     H     0.47520  0.47520  0.00000  0.04960
       6     H     0.47449  0.47449  0.00000  0.05102
       7     C     3.09747  3.09747  0.00000 -0.19494
       8     H     0.45152  0.45152  0.00000  0.09695
       9     H     0.45070  0.45070  0.00000  0.09860
      10     C     3.08345  3.08345  0.00000 -0.16690
      11     H     0.45614  0.45614  0.00000  0.08772
      12     H     0.45580  0.45580  0.00000  0.08840
      13     C     3.14952  3.14952  0.00000 -0.29905
      14     H     0.45367  0.45367  0.00000  0.09266
      15     H     0.45361  0.45361  0.00000  0.09277
      16     H     0.45544  0.45544  0.00000  0.08912
      17     H     0.44821  0.44821  0.00000  0.10358
      18     H     0.45539  0.45539  0.00000  0.08922

   Total alpha = 25.00000, Total beta = 25.00000, Total charge = -0.00000

*** Psi4 exiting successfully. Buy a developer a beer!
