  ==> Input File <==

--------------------------------------------------------------------------
set {
	reference rhf
	basis 6-31G*
}

set_num_threads( 1 )
memory 2 gb

molecule MOL {
0 1

H	 -0.695789	 -0.035871	 -2.283248
C	 -0.772275	 -0.794760	 -1.507119
O	 -1.392607	 -0.295399	 -0.366433
H	 -1.376374	 -1.612427	 -1.875398
H	 0.227815	 -1.167121	 -1.288955
C	 -0.719715	 0.768384	 0.229244
C	 0.719720	 0.768376	 -0.229267
H	 -1.185038	 1.714362	 -0.050570
H	 -0.750528	 0.687237	 1.313896
O	 1.392611	 -0.295398	 0.366430
H	 0.750534	 0.687200	 -1.313918
H	 1.185043	 1.714359	 0.050526
C	 2.706965	 -0.449871	 -0.062409
H	 2.756559	 -0.644779	 -1.131878
H	 3.305899	 0.433456	 0.155466
H	 3.125548	 -1.294566	 0.467107

	symmetry c1
}
set optking {
	frozen_dihedral = ("
		3 6 7 11,
		7 10 13 14
	")
}

ee = energy('scf')
oeprop('DIPOLE', 'QUADRUPOLE', 'MULLIKEN_CHARGES')
f=open( 'psi4out.xyz', 'w' )
f.write( "16  " )
f.write( str(ee) + "\n" )
f.write( MOL.save_string_xyz() )
f.close()
--------------------------------------------------------------------------

    Molecular point group: c1

    Geometry (in Angstrom), charge = 0, multiplicity = 1:

       Center              X                  Y                   Z               Mass
    ------------   -----------------  -----------------  -----------------  -----------------
           H         -1.035726717943     0.024734034630    -2.007476099421     1.007825032070
           C         -1.112212717943    -0.734154965370    -1.231347099421    12.000000000000
           O         -1.732544717943    -0.234793965370    -0.090661099421    15.994914619560
           H         -1.716311717943    -1.551821965370    -1.599626099421     1.007825032070
           H         -0.112122717943    -1.106515965370    -1.013183099421     1.007825032070
           C         -1.059652717943     0.828989034630     0.505015900579    12.000000000000
           C          0.379782282057     0.828981034630     0.046504900579    12.000000000000
           H         -1.524975717943     1.774967034630     0.225201900579     1.007825032070
           H         -1.090465717943     0.747842034630     1.589667900579     1.007825032070
           O          1.052673282057    -0.234792965370     0.642201900579    15.994914619560
           H          0.410596282057     0.747805034630    -1.038146099421     1.007825032070
           H          0.845105282057     1.774964034630     0.326297900579     1.007825032070
           C          2.367027282057    -0.389265965370     0.213362900579    12.000000000000
           H          2.416621282057    -0.584173965370    -0.856106099421     1.007825032070
           H          2.965961282057     0.494061034630     0.431237900579     1.007825032070
           H          2.785610282057    -1.233960965370     0.742878900579     1.007825032070

  Charge       = 0
  Multiplicity = 1
  Basis Set: 6-31G*
  Basis Set:

    Orbital Energies (a.u.)
    -----------------------

    Doubly Occupied:

       1A    -20.565165     2A    -20.549743     3A    -11.272890
       4A    -11.271525     5A    -11.268415     6A    -11.257464
       7A     -1.399019     8A     -1.371865     9A     -1.027221
      10A     -0.955072    11A     -0.906701    12A     -0.807185
      13A     -0.711118    14A     -0.688863    15A     -0.658582
      16A     -0.637031    17A     -0.623869    18A     -0.594016
      19A     -0.553456    20A     -0.537893    21A     -0.525505
      22A     -0.496925    23A     -0.444363    24A     -0.427699
      25A     -0.406756

  @DF-RHF Final Energy:  -306.95503708017623

   => Energetics <=

    Nuclear Repulsion Energy =            270.8497278394365821
    One-Electron Energy =                -955.6927055063536045
    Two-Electron Energy =                 377.8879405867404557
    DFT Exchange-Correlation Energy =       0.0000000000000000
    Empirical Dispersion Energy =           0.0000000000000000
    PCM Polarization Energy =               0.0000000000000000
    EFP Energy =                            0.0000000000000000
    Total Energy =                       -306.9550370801765666

  Mulliken Charges: (a.u.)
   Center  Symbol    Alpha    Beta     Spin     Total
       1     H     0.43112  0.43112  0.00000  0.13777
       2     C     3.09898  3.09898  0.00000 -0.19796
       3     O     4.30420  4.30420  0.00000 -0.60840
       4     H     0.41036  0.41036  0.00000  0.17927
       5     H     0.41071  0.41071  0.00000  0.17858
       6     C     2.97938  2.97938  0.00000  0.04124
       7     C     3.03409  3.03409  0.00000 -0.06818
       8     H     0.42831  0.42831  0.00000  0.14339
       9     H     0.41067  0.41067  0.00000  0.17867
      10     O     4.29975  4.29975  0.00000 -0.59949
      11     H     0.42084  0.42084  0.00000  0.15832
      12     H     0.42280  0.42280  0.00000  0.15439
      13     C     3.08159  3.08159  0.00000 -0.16319
      14     H     0.43096  0.43096  0.00000  0.13808
      15     H     0.42737  0.42737  0.00000  0.14527
      16     H     0.40887  0.40887  0.00000  0.18226

   Total alpha = 25.00000, Total beta = 25.00000, Total charge =  0.00000
