                              Psi4 1.0.54 Driver

  ==> Input File <==

--------------------------------------------------------------------------
set {
	reference rhf
	basis cc-pvtz
}

set_num_threads( 4 )
memory 2 gb

molecule MOL {
0 1

O	 -2.081319	 -0.951530	 -0.502732
N	 -1.613558	 0.006676	 0.014756
C	 -0.329345	 -0.171618	 0.743966
O	 -2.068523	 1.100482	 -0.024385
C	 0.835904	 0.041968	 -0.213982
H	 -0.346048	 -1.174374	 1.137184
H	 -0.333613	 0.555559	 1.538590
C	 2.177039	 -0.130175	 0.494460
H	 0.754456	 -0.665923	 -1.030569
H	 0.765464	 1.037260	 -0.637266
C	 3.122170	 -1.054126	 -0.265488
H	 2.010130	 -0.525068	 1.492276
H	 2.645621	 0.841307	 0.621190
H	 2.694079	 -2.043914	 -0.378427
H	 3.332454	 -0.668473	 -1.256836
H	 4.065186	 -1.158061	 0.257082

	symmetry c1
}
set optking {
	frozen_dihedral = ("
		11 8 5 9
	")
}

ee,wfn = optimize('scf', return_wfn=True)
oeprop( wfn, 'DIPOLE', 'QUADRUPOLE', 'MULLIKEN_CHARGES')
f=open( 'psi4out.xyz', 'w' )
f.write( "16  " )
f.write( str(ee) + "\n" )
f.write( MOL.save_string_xyz() )
f.close()
--------------------------------------------------------------------------

    Molecular point group: c1
  Charge       = 0
  Multiplicity = 1
  Basis Set: CC-PVTZ
  Basis Set:
  @DF-RHF Final Energy:  -360.90425244984743
    Total Energy =                       -360.9042524498477178
    Molecular point group: c1
  Basis Set: CC-PVTZ
  Basis Set:
  Basis Set: CC-PVTZ
  Basis Set:
  @DF-RHF Final Energy:  -360.90450284623370
    Total Energy =                       -360.9045028462336404
  Basis Set: CC-PVTZ
  Basis Set:
  Basis Set: CC-PVTZ
  Basis Set:
  @DF-RHF Final Energy:  -360.90393778018557
    Total Energy =                       -360.9039377801855153
  Basis Set: CC-PVTZ
  Basis Set:
  Basis Set: CC-PVTZ
  Basis Set:
  @DF-RHF Final Energy:  -360.90446437939460
    Total Energy =                       -360.9044643793948239
  Basis Set: CC-PVTZ
  Basis Set:
  Basis Set: CC-PVTZ
  Basis Set:
  @DF-RHF Final Energy:  -360.90455977840713
    Total Energy =                       -360.9045597784073607
  Basis Set: CC-PVTZ
  Basis Set:
  Basis Set: CC-PVTZ
  Basis Set:
  @DF-RHF Final Energy:  -360.90456759504980
    Total Energy =                       -360.9045675950498548
  Basis Set: CC-PVTZ
  Basis Set:
  Charge       = 0
  Multiplicity = 1
  Basis Set: CC-PVTZ
  Basis Set:

    Orbital Energies (a.u.)
    -----------------------

    Doubly Occupied:

       1A    -20.589722     2A    -20.589631     3A    -15.836016
       4A    -11.296939     5A    -11.250366     6A    -11.241969
       7A    -11.226298     8A     -1.635136     9A     -1.419497
      10A     -1.135512    11A     -1.058432    12A     -0.948682
      13A     -0.845065    14A     -0.829290    15A     -0.759330
      16A     -0.737531    17A     -0.728114    18A     -0.670845
      19A     -0.623828    20A     -0.606077    21A     -0.562818
      22A     -0.549540    23A     -0.515620    24A     -0.503728
      25A     -0.492855    26A     -0.485548    27A     -0.469071
      28A     -0.451901

  @DF-RHF Final Energy:  -360.90456786127936

   => Energetics <=

    Nuclear Repulsion Energy =            313.2564677080964657
    One-Electron Energy =               -1112.2033493660169370
    Two-Electron Energy =                 438.0423137966412241
    DFT Exchange-Correlation Energy =       0.0000000000000000
    Empirical Dispersion Energy =           0.0000000000000000
    PCM Polarization Energy =               0.0000000000000000
    EFP Energy =                            0.0000000000000000
    Total Energy =                       -360.9045678612792472
    Molecular point group: c1
  Basis Set: CC-PVTZ
  Basis Set:

  -Total Gradient:
     Atom            X                  Y                   Z
    ------   -----------------  -----------------  -----------------
       1       -0.000009279955    -0.000040011162    -0.000002007272
       2        0.000040760301     0.000021090668    -0.000009000349
       3       -0.000021117856    -0.000013607839     0.000011499092
       4       -0.000011940457     0.000034052031     0.000011769897
       5       -0.001579289148    -0.002758957510     0.002353473911
       6       -0.000002943079    -0.000003747983    -0.000000917098
       7       -0.000003622515    -0.000003928722     0.000004040573
       8        0.001203275422     0.002526230030    -0.001688319225
       9        0.001044560660     0.001750838317    -0.001611906788
      10        0.000002286177    -0.000009425578    -0.000007095438
      11       -0.000661408879    -0.001499958735     0.000940025787
      12        0.000008937116     0.000009268038    -0.000004852545
      13       -0.000006319880    -0.000011196072     0.000007002683
      14       -0.000000472826    -0.000000894985    -0.000010159066
      15        0.000003453415     0.000001303480     0.000005553184
      16       -0.000006878496    -0.000001053973     0.000000892654

  **** Optimization is complete! (in 7 steps) ****
    Final optimized geometry and variables:
    Molecular point group: c1

    Geometry (in Angstrom), charge = 0, multiplicity = 1:

    O           -2.070884788661    -0.771256986371    -0.523626381981
    N           -1.586972658907     0.179673415635    -0.007261345500
    C           -0.300520739215    -0.017660637906     0.713646437727
    O           -2.027483591546     1.279574851516    -0.040967834807
    C            0.862868456971     0.185488508443    -0.247765810883
    H           -0.326586787227    -1.021705759663     1.103044225723
    H           -0.290475800899     0.706517803095     1.511195833522
    C            2.221941766400     0.027148522772     0.462092554415
    H            0.778739618083    -0.518182654562    -1.066316937375
    H            0.780951980253     1.173151612197    -0.683859094709
    C            3.187790987692    -0.881909559845    -0.291067616602
    H            2.070777955343    -0.382811592317     1.456342920187
    H            2.670927574336     1.002036949419     0.608105430098
    H            2.778874087621    -1.880874987527    -0.394146070938
    H            3.388246232929    -0.502369061302    -1.287086413671
    H            4.134040371693    -0.960385546044     0.230606275261

  Mulliken Charges: (a.u.)
   Center  Symbol    Alpha    Beta     Spin     Total
       1     O     4.17403  4.17403  0.00000 -0.34805
       2     N     3.27640  3.27640  0.00000  0.44721
       3     C     3.04173  3.04173  0.00000 -0.08346
       4     O     4.17405  4.17405  0.00000 -0.34809
       5     C     3.10553  3.10553  0.00000 -0.21106
       6     H     0.43389  0.43389  0.00000  0.13222
       7     H     0.43289  0.43289  0.00000  0.13422
       8     C     3.09449  3.09449  0.00000 -0.18898
       9     H     0.43763  0.43763  0.00000  0.12475
      10     H     0.43463  0.43463  0.00000  0.13073
      11     C     3.14652  3.14652  0.00000 -0.29305
      12     H     0.45392  0.45392  0.00000  0.09217
      13     H     0.44453  0.44453  0.00000  0.11093
      14     H     0.45245  0.45245  0.00000  0.09510
      15     H     0.45089  0.45089  0.00000  0.09822
      16     H     0.44643  0.44643  0.00000  0.10714

   Total alpha = 28.00000, Total beta = 28.00000, Total charge = -0.00000

*** Psi4 exiting successfully. Buy a developer a beer!
