                              Psi4 1.0.54 Driver

  ==> Input File <==

--------------------------------------------------------------------------
set {
	reference rhf
	basis cc-pvtz
}

set_num_threads( 4 )
memory 2 gb

molecule MOL {
0 1

H	 3.195578	 -0.112865	 2.399256
O	 3.900279	 -0.287165	 1.803566
C	 3.727849	 -1.542962	 1.201475
C	 2.607952	 -1.573377	 0.172111
H	 4.668821	 -1.771037	 0.719260
H	 3.560309	 -2.306866	 1.958332
C	 1.214206	 -1.350256	 0.754811
H	 2.813108	 -0.821270	 -0.583802
H	 2.638849	 -2.539084	 -0.326743
C	 0.113298	 -1.420414	 -0.302504
H	 1.181679	 -0.383830	 1.246709
H	 1.020416	 -2.098448	 1.521584
C	 -1.311023	 -1.277304	 0.237018
H	 0.290899	 -0.654958	 -1.054010
H	 0.190695	 -2.373471	 -0.818413
C	 -2.041121	 -0.006551	 -0.194127
H	 -1.888548	 -2.136293	 -0.093331
H	 -1.289731	 -1.328757	 1.323321
C	 -3.489218	 0.042606	 0.286507
H	 -2.022185	 0.066287	 -1.279394
H	 -1.518764	 0.869305	 0.178730
C	 -4.219984	 1.311773	 -0.139038
H	 -4.022855	 -0.824300	 -0.093339
H	 -3.510372	 -0.038577	 1.370031
H	 -4.244251	 1.405725	 -1.219696
H	 -5.244345	 1.313233	 0.215630
H	 -3.732090	 2.196311	 0.257073

	symmetry c1
}
set optking {
	frozen_dihedral = ("
		14 10 13 16
	")
}

ee,wfn = optimize('scf', return_wfn=True)
oeprop( wfn, 'DIPOLE', 'QUADRUPOLE', 'MULLIKEN_CHARGES')
f=open( 'psi4out.xyz', 'w' )
f.write( "27  " )
f.write( str(ee) + "\n" )
f.write( MOL.save_string_xyz() )
f.close()
--------------------------------------------------------------------------

    Molecular point group: c1
  Charge       = 0
  Multiplicity = 1
  Basis Set: CC-PVTZ
  Basis Set:
  @DF-RHF Final Energy:  -388.42376032022787
    Total Energy =                       -388.4237603202278706
    Molecular point group: c1
  Basis Set: CC-PVTZ
  Basis Set:
  Basis Set: CC-PVTZ
  Basis Set:
  @DF-RHF Final Energy:  -388.42399389212835
    Total Energy =                       -388.4239938921284647
  Basis Set: CC-PVTZ
  Basis Set:
  Basis Set: CC-PVTZ
  Basis Set:
  @DF-RHF Final Energy:  -388.42440422614135
    Total Energy =                       -388.4244042261414052
  Basis Set: CC-PVTZ
  Basis Set:
  Basis Set: CC-PVTZ
  Basis Set:
  @DF-RHF Final Energy:  -388.42442372761030
    Total Energy =                       -388.4244237276108151
  Basis Set: CC-PVTZ
  Basis Set:
  Basis Set: CC-PVTZ
  Basis Set:
  @DF-RHF Final Energy:  -388.42443066762439
    Total Energy =                       -388.4244306676240512
  Basis Set: CC-PVTZ
  Basis Set:
  Charge       = 0
  Multiplicity = 1
  Basis Set: CC-PVTZ
  Basis Set:

    Orbital Energies (a.u.)
    -----------------------

    Doubly Occupied:

       1A    -20.545297     2A    -11.265058     3A    -11.217736
       4A    -11.214137     5A    -11.213437     6A    -11.213158
       7A    -11.212712     8A    -11.212030     9A    -11.206914
      10A     -1.363223    11A     -1.094870    12A     -1.063198
      13A     -1.011609    14A     -0.950788    15A     -0.883905
      16A     -0.821282    17A     -0.793998    18A     -0.789187
      19A     -0.696589    20A     -0.649211    21A     -0.642471
      22A     -0.614650    23A     -0.601595    24A     -0.586436
      25A     -0.577038    26A     -0.552747    27A     -0.544412
      28A     -0.524843    29A     -0.508607    30A     -0.490140
      31A     -0.485257    32A     -0.476489    33A     -0.470312
      34A     -0.462963    35A     -0.452091    36A     -0.443285
      37A     -0.423535

  @DF-RHF Final Energy:  -388.42443088544337

   => Energetics <=

    Nuclear Repulsion Energy =            455.6919943622036726
    One-Electron Energy =               -1429.6824233840575289
    Two-Electron Energy =                 585.5659981364098030
    DFT Exchange-Correlation Energy =       0.0000000000000000
    Empirical Dispersion Energy =           0.0000000000000000
    PCM Polarization Energy =               0.0000000000000000
    EFP Energy =                            0.0000000000000000
    Total Energy =                       -388.4244308854440533
    Molecular point group: c1
  Basis Set: CC-PVTZ
  Basis Set:

  -Total Gradient:
     Atom            X                  Y                   Z
    ------   -----------------  -----------------  -----------------
       1       -0.000005147654    -0.000010423235     0.000012402622
       2        0.000045159942     0.000036398902    -0.000026706671
       3       -0.000052903851    -0.000049261953     0.000035411143
       4        0.000015879720     0.000024812314    -0.000002865237
       5        0.000017187215     0.000012292648     0.000000815722
       6        0.000008557579    -0.000016815511     0.000015135867
       7        0.000013136806     0.000010071434     0.000002914488
       8       -0.000007286506     0.000018005044    -0.000013984605
       9        0.000001824359    -0.000011854385    -0.000014933368
      10       -0.000868384902    -0.001433832344    -0.001793793934
      11       -0.000002542459     0.000014246786    -0.000011358498
      12       -0.000009165520    -0.000010001035     0.000009826792
      13        0.000737153442     0.000978700460     0.001581525945
      14        0.000550349344     0.000984912780     0.001162231114
      15       -0.000012911290    -0.000002906328    -0.000003073427
      16       -0.000442345112    -0.000551172670    -0.000958139156
      17        0.000001459086    -0.000015044577    -0.000005554762
      18        0.000007034511     0.000000076663    -0.000008418984
      19        0.000000209065     0.000026195416     0.000024670259
      20        0.000005481756    -0.000010775375    -0.000021668599
      21        0.000011471576     0.000020196941     0.000011472204
      22        0.000010129534    -0.000017904615    -0.000009731231
      23       -0.000007775066    -0.000018151945    -0.000006470238
      24       -0.000001868030     0.000001670489     0.000027072847
      25       -0.000001824096     0.000004713666    -0.000026184466
      26       -0.000026228271    -0.000004172513     0.000008112231
      27        0.000013348830     0.000020022941     0.000011291944

  **** Optimization is complete! (in 6 steps) ****
    Final optimized geometry and variables:
    Molecular point group: c1

    Geometry (in Angstrom), charge = 0, multiplicity = 1:

    H            2.954350144929     0.537750849932     1.989808833463
    O            3.679600774542     0.444771159126     1.400690027396
    C            3.605517562975    -0.785496621272     0.729830904661
    C            2.501792427886    -0.840147470096    -0.315881146960
    H            4.565852885717    -0.918466107253     0.250220439031
    H            3.485708580069    -1.599489900531     1.442194029782
    C            1.090183628468    -0.745528913931     0.256493022102
    H            2.661991408099    -0.038072770393    -1.030053873710
    H            2.605262527384    -1.774676262174    -0.862402913818
    C           -0.000650889672    -0.857617448418    -0.808125501549
    H            0.968995980403     0.200153044661     0.779225846373
    H            0.947453866939    -1.529825599712     0.997227593727
    C           -1.427704209344    -0.712973438765    -0.243566487005
    H            0.173536117073    -0.088141398959    -1.554201814416
    H            0.105249770425    -1.808577531384    -1.319402995490
    C           -2.128148392080     0.574843506315    -0.671998886298
    H           -2.034342158437    -1.556414016760    -0.558025821027
    H           -1.397560911009    -0.758073202464     0.841283955727
    C           -3.526435296133     0.732421458964    -0.082694264956
    H           -2.190918403813     0.600652662876    -1.757171790538
    H           -1.519458275155     1.429554415684    -0.383931879400
    C           -4.223381197754     2.014760925632    -0.525358788984
    H           -4.133313046897    -0.123291729409    -0.366413598577
    H           -3.463132476632     0.713249505465     1.002026916545
    H           -4.333376188113     2.047969565756    -1.604254211600
    H           -5.212881380626     2.094929333719    -0.089970474690
    H           -3.658261325939     2.891042296620    -0.225297258813

  Mulliken Charges: (a.u.)
   Center  Symbol    Alpha    Beta     Spin     Total
       1     H     0.39242  0.39242  0.00000  0.21517
       2     O     4.20566  4.20566  0.00000 -0.41132
       3     C     2.97986  2.97986  0.00000  0.04028
       4     C     3.09045  3.09045  0.00000 -0.18091
       5     H     0.44857  0.44857  0.00000  0.10287
       6     H     0.46990  0.46990  0.00000  0.06019
       7     C     3.10002  3.10002  0.00000 -0.20004
       8     H     0.45034  0.45034  0.00000  0.09932
       9     H     0.45610  0.45610  0.00000  0.08780
      10     C     3.09935  3.09935  0.00000 -0.19871
      11     H     0.45706  0.45706  0.00000  0.08587
      12     H     0.45274  0.45274  0.00000  0.09453
      13     C     3.09920  3.09920  0.00000 -0.19839
      14     H     0.45239  0.45239  0.00000  0.09522
      15     H     0.44697  0.44697  0.00000  0.10607
      16     C     3.08476  3.08476  0.00000 -0.16953
      17     H     0.44768  0.44768  0.00000  0.10463
      18     H     0.45499  0.45499  0.00000  0.09002
      19     C     3.08533  3.08533  0.00000 -0.17066
      20     H     0.45361  0.45361  0.00000  0.09278
      21     H     0.45460  0.45460  0.00000  0.09080
      22     C     3.14989  3.14989  0.00000 -0.29977
      23     H     0.45477  0.45477  0.00000  0.09045
      24     H     0.45458  0.45458  0.00000  0.09084
      25     H     0.45512  0.45512  0.00000  0.08975
      26     H     0.44850  0.44850  0.00000  0.10300
      27     H     0.45514  0.45514  0.00000  0.08972

   Total alpha = 37.00000, Total beta = 37.00000, Total charge =  0.00000

*** Psi4 exiting successfully. Buy a developer a beer!
