  ==> Input File <==

--------------------------------------------------------------------------
set {
	reference rhf
	basis 6-31G*
}

set_num_threads( 1 )
memory 2 gb

molecule MOL {
0 1

O	 2.862325	 1.357334	 0.000267
C	 2.843464	 0.164689	 -0.000222
C	 1.546494	 -0.624492	 -0.000609
C	 4.124123	 -0.644674	 -0.000428
C	 0.291004	 0.242674	 0.000989
H	 1.557904	 -1.283758	 -0.867573
H	 1.558622	 -1.285963	 0.864672
C	 -0.134194	 0.656099	 1.410971
H	 -0.515422	 -0.298046	 -0.484222
H	 0.467670	 1.125561	 -0.605185
C	 -1.393009	 1.524960	 1.424967
H	 -0.306339	 -0.234002	 2.014405
H	 0.679660	 1.196430	 1.892376
C	 -1.824798	 1.942486	 2.831822
H	 -2.207432	 0.985530	 0.944602
H	 -1.221783	 2.415477	 0.822756
C	 -3.083028	 2.809959	 2.837592
H	 -1.997406	 1.053139	 3.434394
H	 -1.012049	 2.483113	 3.312467
H	 -3.923640	 2.284169	 2.393671
H	 -3.364225	 3.089184	 3.848365
H	 -2.930954	 3.724819	 2.271862
H	 4.165367	 -1.288615	 -0.874074
H	 4.976217	 0.020734	 -0.001915
H	 4.166763	 -1.286207	 0.874930

	symmetry c1
}
set optking {
	frozen_dihedral = ("
		9 5 8 12,
		15 11 8 12,
		15 11 14 18,
		1 2 3 6
	")
}

ee = energy('scf')
oeprop('DIPOLE', 'QUADRUPOLE', 'MULLIKEN_CHARGES')
f=open( 'psi4out.xyz', 'w' )
f.write( "25  " )
f.write( str(ee) + "\n" )
f.write( MOL.save_string_xyz() )
f.close()
--------------------------------------------------------------------------

    Molecular point group: c1

    Geometry (in Angstrom), charge = 0, multiplicity = 1:

       Center              X                  Y                   Z               Mass
    ------------   -----------------  -----------------  -----------------  -----------------
           O          2.282267791406     0.519278176506    -0.952448708476    15.994914619560
           C          2.263406791406    -0.673366823494    -0.952937708476    12.000000000000
           C          0.966436791406    -1.462547823494    -0.953324708476    12.000000000000
           C          3.544065791406    -1.482729823494    -0.953143708476    12.000000000000
           C         -0.289053208594    -0.595381823494    -0.951726708476    12.000000000000
           H          0.977846791406    -2.121813823494    -1.820288708476     1.007825032070
           H          0.978564791406    -2.124018823494    -0.088043708476     1.007825032070
           C         -0.714251208594    -0.181956823494     0.458255291524    12.000000000000
           H         -1.095479208594    -1.136101823494    -1.436937708476     1.007825032070
           H         -0.112387208594     0.287505176506    -1.557900708476     1.007825032070
           C         -1.973066208594     0.686904176506     0.472251291524    12.000000000000
           H         -0.886396208594    -1.072057823494     1.061689291524     1.007825032070
           H          0.099602791406     0.358374176506     0.939660291524     1.007825032070
           C         -2.404855208594     1.104430176506     1.879106291524    12.000000000000
           H         -2.787489208594     0.147474176506    -0.008113708476     1.007825032070
           H         -1.801840208594     1.577421176506    -0.129959708476     1.007825032070
           C         -3.663085208594     1.971903176506     1.884876291524    12.000000000000
           H         -2.577463208594     0.215083176506     2.481678291524     1.007825032070
           H         -1.592106208594     1.645057176506     2.359751291524     1.007825032070
           H         -4.503697208594     1.446113176506     1.440955291524     1.007825032070
           H         -3.944282208594     2.251128176506     2.895649291524     1.007825032070
           H         -3.511011208594     2.886763176506     1.319146291524     1.007825032070
           H          3.585309791406    -2.126670823494    -1.826789708476     1.007825032070
           H          4.396159791406    -0.817321823494    -0.954630708476     1.007825032070
           H          3.586705791406    -2.124262823494    -0.077785708476     1.007825032070

  Charge       = 0
  Multiplicity = 1
  Basis Set: 6-31G*
  Basis Set:

    Orbital Energies (a.u.)
    -----------------------

    Doubly Occupied:

       1A    -20.551528     2A    -11.327229     3A    -11.231357
       4A    -11.229010     5A    -11.215403     6A    -11.211799
       7A    -11.211392     8A    -11.209487     9A    -11.205573
      10A     -1.397114    11A     -1.090802    12A     -1.054554
      13A     -1.013632    14A     -0.967077    15A     -0.888188
      16A     -0.814700    17A     -0.787671    18A     -0.728885
      19A     -0.668760    20A     -0.636987    21A     -0.633400
      22A     -0.622018    23A     -0.589970    24A     -0.584185
      25A     -0.574735    26A     -0.556104    27A     -0.532542
      28A     -0.524975    29A     -0.514521    30A     -0.497737
      31A     -0.482837    32A     -0.472514    33A     -0.461061
      34A     -0.457633    35A     -0.439359    36A     -0.401992

  @DF-RHF Final Energy:  -387.13498253375934

   => Energetics <=

    Nuclear Repulsion Energy =            446.6859890706105602
    One-Electron Energy =               -1410.0687679939067039
    Two-Electron Energy =                 576.2477963895356652
    DFT Exchange-Correlation Energy =       0.0000000000000000
    Empirical Dispersion Energy =           0.0000000000000000
    PCM Polarization Energy =               0.0000000000000000
    EFP Energy =                            0.0000000000000000
    Total Energy =                       -387.1349825337605353

  Mulliken Charges: (a.u.)
   Center  Symbol    Alpha    Beta     Spin     Total
       1     O     4.26159  4.26159  0.00000 -0.52318
       2     C     2.73649  2.73649  0.00000  0.52702
       3     C     3.21312  3.21312  0.00000 -0.42624
       4     C     3.28678  3.28678  0.00000 -0.57356
       5     C     3.15281  3.15281  0.00000 -0.30561
       6     H     0.40706  0.40706  0.00000  0.18588
       7     H     0.40895  0.40895  0.00000  0.18210
       8     C     3.15570  3.15570  0.00000 -0.31140
       9     H     0.42107  0.42107  0.00000  0.15786
      10     H     0.40360  0.40360  0.00000  0.19280
      11     C     3.15153  3.15153  0.00000 -0.30307
      12     H     0.42747  0.42747  0.00000  0.14506
      13     H     0.41352  0.41352  0.00000  0.17295
      14     C     3.15165  3.15165  0.00000 -0.30330
      15     H     0.42577  0.42577  0.00000  0.14847
      16     H     0.42046  0.42046  0.00000  0.15909
      17     C     3.23927  3.23927  0.00000 -0.47854
      18     H     0.42458  0.42458  0.00000  0.15084
      19     H     0.42170  0.42170  0.00000  0.15659
      20     H     0.42258  0.42258  0.00000  0.15484
      21     H     0.41990  0.41990  0.00000  0.16020
      22     H     0.42109  0.42109  0.00000  0.15782
      23     H     0.40854  0.40854  0.00000  0.18291
      24     H     0.39644  0.39644  0.00000  0.20712
      25     H     0.40834  0.40834  0.00000  0.18333

   Total alpha = 36.00000, Total beta = 36.00000, Total charge = -0.00000
