  ==> Input File <==

--------------------------------------------------------------------------
set {
	reference rhf
	basis cc-pvtz
}

set_num_threads( 4 )
memory 2 gb

molecule MOL {
0 1

H	 -2.831826	 0.439977	 0.215074
O	 -2.041679	 -0.058866	 0.103463
C	 -0.959304	 0.780994	 -0.094939
C	 0.354905	 0.037902	 -0.006215
H	 -0.985899	 1.279578	 -1.057596
H	 -0.969809	 1.529522	 0.682889
F	 0.412060	 -0.931028	 -0.902708
F	 1.359641	 0.856111	 -0.239961
F	 0.545380	 -0.506387	 1.171682

	symmetry c1
}
set optking {
	frozen_dihedral = ("
		1 2 3 5
	")
}

ee = optimize('scf')
oeprop('DIPOLE', 'QUADRUPOLE', 'MULLIKEN_CHARGES')
f=open( 'psi4out.xyz', 'w' )
f.write( "9  " )
f.write( str(ee) + "\n" )
f.write( MOL.save_string_xyz() )
f.close()
--------------------------------------------------------------------------

    Molecular point group: c1
  Charge       = 0
  Multiplicity = 1
  Basis Set: CC-PVTZ
  Basis Set:
  @DF-RHF Final Energy:  -450.84295629811595
    Total Energy =                       -450.8429562981160075
    Molecular point group: c1
  Basis Set: CC-PVTZ
  Basis Set:
  Basis Set: CC-PVTZ
  Basis Set:
  @DF-RHF Final Energy:  -450.84432215536191
    Total Energy =                       -450.8443221553618514
  Basis Set: CC-PVTZ
  Basis Set:
  Basis Set: CC-PVTZ
  Basis Set:
  @DF-RHF Final Energy:  -450.84458437863987
    Total Energy =                       -450.8445843786399223
  Basis Set: CC-PVTZ
  Basis Set:
  Basis Set: CC-PVTZ
  Basis Set:
  @DF-RHF Final Energy:  -450.84459623122819
    Total Energy =                       -450.8445962312278539
  Basis Set: CC-PVTZ
  Basis Set:
  Basis Set: CC-PVTZ
  Basis Set:
  @DF-RHF Final Energy:  -450.84459840015131
    Total Energy =                       -450.8445984001514262
  Basis Set: CC-PVTZ
  Basis Set:
  Charge       = 0
  Multiplicity = 1
  Basis Set: CC-PVTZ
  Basis Set:

    Orbital Energies (a.u.)
    -----------------------

    Doubly Occupied:

       1A    -26.333635     2A    -26.330125     3A    -26.330045
       4A    -20.582682     5A    -11.490923     6A    -11.310028
       7A     -1.741958     8A     -1.638122     9A     -1.636614
      10A     -1.406456    11A     -1.050861    12A     -0.923370
      13A     -0.833323    14A     -0.831607    15A     -0.788131
      16A     -0.738261    17A     -0.714297    18A     -0.703996
      19A     -0.673226    20A     -0.657295    21A     -0.643267
      22A     -0.641855    23A     -0.600487    24A     -0.530480
      25A     -0.483750

  @DF-RHF Final Energy:  -450.84459854826184

   => Energetics <=

    Nuclear Repulsion Energy =            277.8421419159668631
    One-Electron Energy =               -1178.1438948562863516
    Two-Electron Energy =                 449.4571543920577597
    DFT Exchange-Correlation Energy =       0.0000000000000000
    Empirical Dispersion Energy =           0.0000000000000000
    PCM Polarization Energy =               0.0000000000000000
    EFP Energy =                            0.0000000000000000
    Total Energy =                       -450.8445985482617289
    Molecular point group: c1
  Basis Set: CC-PVTZ
  Basis Set:

  -Total Gradient:
     Atom            X                  Y                   Z
    ------   -----------------  -----------------  -----------------
       1        0.000019116543     0.000001592645     0.000163568709
       2       -0.000015934962    -0.000034925531    -0.000199666434
       3       -0.000098117370     0.000124124394     0.000094029985
       4        0.000048375500    -0.000002280328     0.000017166089
       5        0.000094761301    -0.000097008960    -0.000057519453
       6       -0.000001987030    -0.000017729447    -0.000005691471
       7       -0.000032647042    -0.000005706894    -0.000012829995
       8       -0.000000079100     0.000015046340     0.000010044359
       9       -0.000013487837     0.000016887780    -0.000009101784

  **** Optimization is complete! (in 6 steps) ****
    Final optimized geometry and variables:
    Molecular point group: c1

    Geometry (in Angstrom), charge = 0, multiplicity = 1:

    H           -2.802838437405     0.380601116087     0.190965573824
    O           -1.992019989032    -0.086302786798     0.108227432316
    C           -0.943789160612     0.797192868891    -0.099512504537
    C            0.350131486524     0.022809122897    -0.021868152122
    H           -0.981311000777     1.261147243763    -1.078990243729
    H           -0.896583149304     1.572536735455     0.656700436196
    F            0.413229714794    -0.925853345706    -0.926415960805
    F            1.363207249125     0.842516680486    -0.230388166418
    F            0.523937477495    -0.532454832440     1.154625717504

  Mulliken Charges: (a.u.)
   Center  Symbol    Alpha    Beta     Spin     Total
       1     H     0.39036  0.39036  0.00000  0.21927
       2     O     4.18472  4.18472  0.00000 -0.36943
       3     C     2.98604  2.98604  0.00000  0.02793
       4     C     2.67635  2.67635  0.00000  0.64731
       5     H     0.46536  0.46536  0.00000  0.06928
       6     H     0.46514  0.46514  0.00000  0.06972
       7     F     4.60882  4.60882  0.00000 -0.21764
       8     F     4.61430  4.61430  0.00000 -0.22860
       9     F     4.60892  4.60892  0.00000 -0.21784

   Total alpha = 25.00000, Total beta = 25.00000, Total charge =  0.00000
