  ==> Input File <==

--------------------------------------------------------------------------
set {
	reference rhf
	basis 6-31G*
}

set_num_threads( 1 )
memory 2 gb

molecule MOL {
0 1

H	 2.632365	 0.069098	 -0.983718
O	 1.782959	 -0.358424	 -1.033936
C	 1.050492	 0.053836	 0.000068
C	 -0.318135	 -0.576402	 0.000164
O	 1.465953	 0.826024	 0.801388
C	 -1.454360	 0.441875	 -0.000474
H	 -0.374042	 -1.230163	 -0.866135
H	 -0.374274	 -1.229227	 0.867154
C	 -2.826123	 -0.230780	 0.000056
H	 -1.357605	 1.085198	 -0.868380
H	 -1.357504	 1.086451	 0.866496
H	 -2.959731	 -0.858053	 -0.876869
H	 -3.619374	 0.509403	 -0.000080
H	 -2.959371	 -0.857318	 0.877556

	symmetry c1
}
set optking {
	frozen_dihedral = ("
		7 4 6 10,
		1 2 3 5
	")
}

ee = energy('scf')
oeprop('DIPOLE', 'QUADRUPOLE', 'MULLIKEN_CHARGES')
f=open( 'psi4out.xyz', 'w' )
f.write( "14  " )
f.write( str(ee) + "\n" )
f.write( MOL.save_string_xyz() )
f.close()
--------------------------------------------------------------------------

    Molecular point group: c1

    Geometry (in Angstrom), charge = 0, multiplicity = 1:

       Center              X                  Y                   Z               Mass
    ------------   -----------------  -----------------  -----------------  -----------------
           H          2.644427357749     0.042911198993    -0.930187471931     1.007825032070
           O          1.795021357749    -0.384610801007    -0.980405471931    15.994914619560
           C          1.062554357749     0.027649198993     0.053598528069    12.000000000000
           C         -0.306072642251    -0.602588801007     0.053694528069    12.000000000000
           O          1.478015357749     0.799837198993     0.854918528069    15.994914619560
           C         -1.442297642251     0.415688198993     0.053056528069    12.000000000000
           H         -0.361979642251    -1.256349801007    -0.812604471931     1.007825032070
           H         -0.362211642251    -1.255413801007     0.920684528069     1.007825032070
           C         -2.814060642251    -0.256966801007     0.053586528069    12.000000000000
           H         -1.345542642251     1.059011198993    -0.814849471931     1.007825032070
           H         -1.345441642251     1.060264198993     0.920026528069     1.007825032070
           H         -2.947668642251    -0.884239801007    -0.823338471931     1.007825032070
           H         -3.607311642251     0.483216198993     0.053450528069     1.007825032070
           H         -2.947308642251    -0.883504801007     0.931086528069     1.007825032070

  Charge       = 0
  Multiplicity = 1
  Basis Set: 6-31G*
  Basis Set:

    Orbital Energies (a.u.)
    -----------------------

    Doubly Occupied:

       1A    -20.614272     2A    -20.550037     3A    -11.381149
       4A    -11.239528     5A    -11.232639     6A    -11.220130
       7A     -1.474902     8A     -1.365343     9A     -1.085714
      10A     -0.980310    11A     -0.856837    12A     -0.800218
      13A     -0.702448    14A     -0.686292    15A     -0.651933
      16A     -0.626129    17A     -0.594652    18A     -0.571758
      19A     -0.547886    20A     -0.513518    21A     -0.497389
      22A     -0.486136    23A     -0.472820    24A     -0.440858

  @DF-RHF Final Energy:  -305.87864438983348

   => Energetics <=

    Nuclear Repulsion Energy =            239.7983199863978712
    One-Electron Energy =                -892.1680112453284437
    Two-Electron Energy =                 346.4910468690968628
    DFT Exchange-Correlation Energy =       0.0000000000000000
    Empirical Dispersion Energy =           0.0000000000000000
    PCM Polarization Energy =               0.0000000000000000
    EFP Energy =                            0.0000000000000000
    Total Energy =                       -305.8786443898336529

  Mulliken Charges: (a.u.)
   Center  Symbol    Alpha    Beta     Spin     Total
       1     H     0.26863  0.26863  0.00000  0.46275
       2     O     4.34817  4.34817  0.00000 -0.69633
       3     C     2.62588  2.62588  0.00000  0.74823
       4     C     3.20763  3.20763  0.00000 -0.41526
       5     O     4.27900  4.27900  0.00000 -0.55800
       6     C     3.16002  3.16002  0.00000 -0.32004
       7     H     0.39915  0.39915  0.00000  0.20170
       8     H     0.39910  0.39910  0.00000  0.20180
       9     C     3.24226  3.24226  0.00000 -0.48452
      10     H     0.41419  0.41419  0.00000  0.17163
      11     H     0.40396  0.40396  0.00000  0.19209
      12     H     0.41918  0.41918  0.00000  0.16163
      13     H     0.41425  0.41425  0.00000  0.17151
      14     H     0.41859  0.41859  0.00000  0.16282

   Total alpha = 24.00000, Total beta = 24.00000, Total charge = -0.00000
