                              Psi4 1.0.54 Driver

  ==> Input File <==

--------------------------------------------------------------------------
set {
	reference rhf
	basis cc-pvtz
}

set_num_threads( 4 )
memory 2 gb

molecule MOL {
0 1

H	 3.662455	 0.368326	 0.829247
O	 2.762145	 0.206877	 1.068146
C	 2.076458	 -0.067370	 -0.038225
C	 0.626018	 -0.337582	 0.258241
O	 2.586237	 -0.085463	 -1.104827
C	 -0.267326	 0.883135	 0.076490
H	 0.325620	 -1.161483	 -0.378003
H	 0.574537	 -0.713685	 1.275261
C	 -1.726822	 0.642622	 0.463839
H	 -0.210803	 1.217591	 -0.953497
H	 0.129920	 1.693110	 0.675679
C	 -2.480891	 -0.340606	 -0.429852
H	 -2.243098	 1.597649	 0.438609
H	 -1.776542	 0.301208	 1.495542
C	 -3.955933	 -0.460128	 -0.060472
H	 -2.393755	 -0.020485	 -1.464726
H	 -2.024244	 -1.323637	 -0.374360
H	 -4.467673	 -1.160944	 -0.709827
H	 -4.458917	 0.497287	 -0.144505
H	 -4.076458	 -0.806900	 0.960497

	symmetry c1
}
set optking {
	frozen_dihedral = ("
		5 3 4 7
	")
}

ee,wfn = optimize('scf', return_wfn=True)
oeprop( wfn, 'DIPOLE', 'QUADRUPOLE', 'MULLIKEN_CHARGES')
f=open( 'psi4out.xyz', 'w' )
f.write( "20  " )
f.write( str(ee) + "\n" )
f.write( MOL.save_string_xyz() )
f.close()
--------------------------------------------------------------------------

    Molecular point group: c1
  Charge       = 0
  Multiplicity = 1
  Basis Set: CC-PVTZ
  Basis Set:
  @DF-RHF Final Energy:  -384.09276146986679
    Total Energy =                       -384.0927614698663888
    Molecular point group: c1
  Basis Set: CC-PVTZ
  Basis Set:
  Basis Set: CC-PVTZ
  Basis Set:
  @DF-RHF Final Energy:  -384.09280832316205
    Total Energy =                       -384.0928083231620462
  Basis Set: CC-PVTZ
  Basis Set:
  Basis Set: CC-PVTZ
  Basis Set:
  @DF-RHF Final Energy:  -384.09348012082904
    Total Energy =                       -384.0934801208290423
  Basis Set: CC-PVTZ
  Basis Set:
  Basis Set: CC-PVTZ
  Basis Set:
  @DF-RHF Final Energy:  -384.09358547660685
    Total Energy =                       -384.0935854766066200
  Basis Set: CC-PVTZ
  Basis Set:
  Basis Set: CC-PVTZ
  Basis Set:
  @DF-RHF Final Energy:  -384.09358988744225
    Total Energy =                       -384.0935898874419081
  Basis Set: CC-PVTZ
  Basis Set:
  Basis Set: CC-PVTZ
  Basis Set:
  @DF-RHF Final Energy:  -384.09359391556927
    Total Energy =                       -384.0935939155698406
  Basis Set: CC-PVTZ
  Basis Set:
  Charge       = 0
  Multiplicity = 1
  Basis Set: CC-PVTZ
  Basis Set:

    Orbital Energies (a.u.)
    -----------------------

    Doubly Occupied:

       1A    -20.605243     2A    -20.537517     3A    -11.372124
       4A    -11.236594     5A    -11.230882     6A    -11.222037
       7A    -11.219556     8A    -11.211521     9A     -1.477026
      10A     -1.367374    11A     -1.100367    12A     -1.043072
      13A     -0.961955    14A     -0.867023    15A     -0.824025
      16A     -0.787359    17A     -0.705330    18A     -0.690245
      19A     -0.650427    20A     -0.632491    21A     -0.622665
      22A     -0.595374    23A     -0.579726    24A     -0.556694
      25A     -0.541080    26A     -0.521501    27A     -0.497738
      28A     -0.486935    29A     -0.475211    30A     -0.470674
      31A     -0.459469    32A     -0.439084

  @DF-RHF Final Energy:  -384.09359404217150

   => Energetics <=

    Nuclear Repulsion Energy =            377.1266081119309774
    One-Electron Energy =               -1270.4637688605180301
    Two-Electron Energy =                 509.2435667064162317
    DFT Exchange-Correlation Energy =       0.0000000000000000
    Empirical Dispersion Energy =           0.0000000000000000
    PCM Polarization Energy =               0.0000000000000000
    EFP Energy =                            0.0000000000000000
    Total Energy =                       -384.0935940421708210
    Molecular point group: c1
  Basis Set: CC-PVTZ
  Basis Set:

  -Total Gradient:
     Atom            X                  Y                   Z
    ------   -----------------  -----------------  -----------------
       1       -0.000042772049    -0.000007908824    -0.000003796444
       2        0.000011681489     0.000010081700     0.000034055640
       3        0.000252331283    -0.000813762500     0.000042170905
       4       -0.000216998100     0.000618430233    -0.000390238577
       5       -0.000151904547     0.000503948870    -0.000000815191
       6       -0.000011037424     0.000013562961    -0.000019158387
       7        0.000165140299    -0.000310026610     0.000337736332
       8        0.000002992004    -0.000004721595    -0.000004735811
       9        0.000005504084    -0.000015287708     0.000003949378
      10        0.000001101991     0.000003670287    -0.000001262440
      11       -0.000000364541    -0.000004713692     0.000001004405
      12       -0.000006341322    -0.000003212415     0.000006812605
      13        0.000005616117     0.000001024313    -0.000001905115
      14       -0.000002727478    -0.000000308581     0.000000035700
      15       -0.000000005733     0.000000120881    -0.000002622025
      16        0.000000687395     0.000000640278    -0.000002204639
      17       -0.000012623102     0.000007195521     0.000001751118
      18       -0.000000203622     0.000001191806    -0.000000325359
      19       -0.000000874143    -0.000000004830     0.000000611574
      20        0.000000797403     0.000000079906    -0.000001063670

  **** Optimization is complete! (in 7 steps) ****
    Final optimized geometry and variables:
    Molecular point group: c1

    Geometry (in Angstrom), charge = 0, multiplicity = 1:

    H            3.672664557160     0.387820847999     0.708947133497
    O            2.799576050867     0.162462308345     0.993902217397
    C            2.067537593421    -0.116585066724    -0.079845708262
    C            0.636209287121    -0.438118215348     0.253682130533
    O            2.514996552606    -0.076045243770    -1.174472726286
    C           -0.249315522847     0.801183305621     0.062408454562
    H            0.328809361929    -1.235238135474    -0.407224872856
    H            0.574124435682    -0.787688292087     1.275568109884
    C           -1.713942673425     0.578297550028     0.439528464638
    H           -0.180121925729     1.125376780864    -0.970165389916
    H            0.147230498222     1.607384857973     0.671002040878
    C           -2.466809301336    -0.408216013780    -0.451035746533
    H           -2.220007548219     1.538434651547     0.398590475908
    H           -1.773731138344     0.249440000220     1.474271014241
    C           -3.945596388977    -0.512805553547    -0.091948426586
    H           -2.368253903576    -0.100029903915    -1.488302144492
    H           -2.017318643018    -1.393248727954    -0.381058381461
    H           -4.455930898936    -1.219510164841    -0.735831546514
    H           -4.442080819424     0.446297988568    -0.193783405725
    H           -4.076963784076    -0.844580683590     0.932674100794

  Mulliken Charges: (a.u.)
   Center  Symbol    Alpha    Beta     Spin     Total
       1     H     0.38037  0.38037  0.00000  0.23925
       2     O     4.16180  4.16180  0.00000 -0.32360
       3     C     2.80397  2.80397  0.00000  0.39205
       4     C     3.09102  3.09102  0.00000 -0.18203
       5     O     4.19903  4.19903  0.00000 -0.39806
       6     C     3.10927  3.10927  0.00000 -0.21853
       7     H     0.43817  0.43817  0.00000  0.12367
       8     H     0.44114  0.44114  0.00000  0.11772
       9     C     3.09808  3.09808  0.00000 -0.19616
      10     H     0.44100  0.44100  0.00000  0.11800
      11     H     0.44135  0.44135  0.00000  0.11730
      12     C     3.08674  3.08674  0.00000 -0.17349
      13     H     0.44627  0.44627  0.00000  0.10747
      14     H     0.45216  0.45216  0.00000  0.09568
      15     C     3.14961  3.14961  0.00000 -0.29921
      16     H     0.45093  0.45093  0.00000  0.09813
      17     H     0.45331  0.45331  0.00000  0.09338
      18     H     0.44713  0.44713  0.00000  0.10574
      19     H     0.45384  0.45384  0.00000  0.09233
      20     H     0.45482  0.45482  0.00000  0.09037

   Total alpha = 32.00000, Total beta = 32.00000, Total charge = -0.00000

*** Psi4 exiting successfully. Buy a developer a beer!
