                              Psi4 1.0.54 Driver

  ==> Input File <==

--------------------------------------------------------------------------
set {
	reference rhf
	basis cc-pvtz
}

set_num_threads( 4 )
memory 2 gb

molecule MOL {
0 1

H	 -0.498090	 -1.633182	 -0.153307
N	 -0.625934	 -0.663929	 -0.000707
C	 -1.967309	 -0.173908	 0.213045
C	 0.468494	 0.129045	 -0.002160
H	 -2.598110	 -0.384001	 -0.642489
H	 -1.920101	 0.891933	 0.357434
H	 -2.411173	 -0.627042	 1.091505
C	 1.785715	 -0.615093	 0.000603
O	 0.413285	 1.323206	 0.000532
H	 1.866994	 -1.243310	 -0.878792
H	 2.591506	 0.100263	 0.006422
H	 1.860358	 -1.250360	 0.875522

	symmetry c1
}
set optking {
	frozen_dihedral = ("
		3 2 4 9
	")
}

ee,wfn = optimize('scf', return_wfn=True)
oeprop( wfn, 'DIPOLE', 'QUADRUPOLE', 'MULLIKEN_CHARGES')
f=open( 'psi4out.xyz', 'w' )
f.write( "12  " )
f.write( str(ee) + "\n" )
f.write( MOL.save_string_xyz() )
f.close()
--------------------------------------------------------------------------

    Molecular point group: c1
  Charge       = 0
  Multiplicity = 1
  Basis Set: CC-PVTZ
  Basis Set:
  @DF-RHF Final Energy:  -247.09985881039484
    Total Energy =                       -247.0998588103947782
    Molecular point group: c1
  Basis Set: CC-PVTZ
  Basis Set:
  Basis Set: CC-PVTZ
  Basis Set:
  @DF-RHF Final Energy:  -247.09998954333506
    Total Energy =                       -247.0999895433350275
  Basis Set: CC-PVTZ
  Basis Set:
  Basis Set: CC-PVTZ
  Basis Set:
  @DF-RHF Final Energy:  -247.10050029278418
    Total Energy =                       -247.1005002927840337
  Basis Set: CC-PVTZ
  Basis Set:
  Basis Set: CC-PVTZ
  Basis Set:
  @DF-RHF Final Energy:  -247.10066244663474
    Total Energy =                       -247.1006624466347148
  Basis Set: CC-PVTZ
  Basis Set:
  @DF-RHF Final Energy:  -247.10071861241022
    Total Energy =                       -247.1007186124103328
  @DF-RHF Final Energy:  -247.10074461498809
    Total Energy =                       -247.1007446149880025
  @DF-RHF Final Energy:  -247.10086142838870
    Total Energy =                       -247.1008614283886686
  @DF-RHF Final Energy:  -247.09641152170835
    Total Energy =                       -247.0964115217080916
  @DF-RHF Final Energy:  -247.10108143181088
    Total Energy =                       -247.1010814318109396
  @DF-RHF Final Energy:  -247.10118152448044
    Total Energy =                       -247.1011815244804097
  @DF-RHF Final Energy:  -247.10128140162138
    Total Energy =                       -247.1012814016214634
  Basis Set: CC-PVTZ
  Basis Set:
  @DF-RHF Final Energy:  -247.10126786399533
    Total Energy =                       -247.1012678639953037
  Basis Set: CC-PVTZ
  Basis Set:
  Basis Set: CC-PVTZ
  Basis Set:
  @DF-RHF Final Energy:  -247.10131611244694
    Total Energy =                       -247.1013161124471367
  Basis Set: CC-PVTZ
  Basis Set:
  Basis Set: CC-PVTZ
  Basis Set:
  @DF-RHF Final Energy:  -247.10132008129267
    Total Energy =                       -247.1013200812926698
  Basis Set: CC-PVTZ
  Basis Set:
  Charge       = 0
  Multiplicity = 1
  Basis Set: CC-PVTZ
  Basis Set:

    Orbital Energies (a.u.)
    -----------------------

    Doubly Occupied:

       1A    -20.506842     2A    -15.575870     3A    -11.335808
       4A    -11.253815     5A    -11.228719     6A     -1.389182
       7A     -1.231257     8A     -1.016354     9A     -0.933382
      10A     -0.788326    11A     -0.690798    12A     -0.651866
      13A     -0.636104    14A     -0.586253    15A     -0.582846
      16A     -0.556163    17A     -0.547692    18A     -0.506602
      19A     -0.418232    20A     -0.392007

  @DF-RHF Final Energy:  -247.10132096718038

   => Energetics <=

    Nuclear Repulsion Energy =            181.8758523316787148
    One-Electron Energy =                -696.2981107741919686
    Two-Electron Energy =                 267.3209374753329257
    DFT Exchange-Correlation Energy =       0.0000000000000000
    Empirical Dispersion Energy =           0.0000000000000000
    PCM Polarization Energy =               0.0000000000000000
    EFP Energy =                            0.0000000000000000
    Total Energy =                       -247.1013209671802997
    Molecular point group: c1
  Basis Set: CC-PVTZ
  Basis Set:

  -Total Gradient:
     Atom            X                  Y                   Z
    ------   -----------------  -----------------  -----------------
       1        0.000005242580     0.000013064292    -0.000021867201
       2        0.000213169308     0.001219255368    -0.001990668544
       3       -0.000098951875    -0.000606407447     0.000961300958
       4       -0.000364846867    -0.001225514310     0.002226705259
       5        0.000016256979    -0.000019768977     0.000005480982
       6        0.000025618680    -0.000000697287    -0.000010675476
       7       -0.000005683038     0.000019792951    -0.000000329088
       8        0.000047799623     0.000052477179     0.000065425938
       9        0.000206927510     0.000606379664    -0.001201638967
      10       -0.000020700032    -0.000013861371    -0.000017594428
      11       -0.000021265876    -0.000006079961     0.000005973229
      12       -0.000003566992    -0.000038640098    -0.000022112661

  **** Optimization is complete! (in 15 steps) ****
    Final optimized geometry and variables:
    Molecular point group: c1

    Geometry (in Angstrom), charge = 0, multiplicity = 1:

    H           -0.323918926589    -1.572089450747    -0.632432487222
    N           -0.536447817537    -0.630020910601    -0.417704999622
    C           -1.927765088165    -0.259867994579    -0.286244006347
    C            0.449356506671     0.142223607104     0.091071234261
    H           -2.524751426081    -0.931760103883    -0.886730205432
    H           -2.074208560807     0.748897313896    -0.639886971278
    H           -2.266205124524    -0.310515606990     0.742193254262
    C            1.830193779637    -0.472963922770     0.087524890381
    O            0.248282559078     1.241489516204     0.515573859659
    H            1.956286324017    -1.207289253530    -0.697502431309
    H            2.560907140849     0.312598886487    -0.025809281224
    H            1.996413976151    -0.957178156621     1.043121285900

  Mulliken Charges: (a.u.)
   Center  Symbol    Alpha    Beta     Spin     Total
       1     H     0.41371  0.41371  0.00000  0.17258
       2     N     3.61379  3.61379  0.00000 -0.22758
       3     C     3.07804  3.07804  0.00000 -0.15607
       4     C     2.84066  2.84066  0.00000  0.31867
       5     H     0.45515  0.45515  0.00000  0.08969
       6     H     0.44050  0.44050  0.00000  0.11900
       7     H     0.45661  0.45661  0.00000  0.08677
       8     C     3.14819  3.14819  0.00000 -0.29638
       9     O     4.21672  4.21672  0.00000 -0.43345
      10     H     0.45607  0.45607  0.00000  0.08785
      11     H     0.43547  0.43547  0.00000  0.12906
      12     H     0.44507  0.44507  0.00000  0.10987

   Total alpha = 20.00000, Total beta = 20.00000, Total charge = -0.00000

*** Psi4 exiting successfully. Buy a developer a beer!
