  ==> Input File <==

--------------------------------------------------------------------------
set {
	reference rhf
	basis 6-31G*
}

set_num_threads( 4 )
memory 2 gb

molecule MOL {
0 1

H	 -2.499100	 -0.730091	 -0.745082
O	 -2.347518	 -0.290803	 0.079804
C	 -1.184022	 0.487508	 -0.006784
C	 0.062599	 -0.378592	 0.031606
H	 -1.176523	 1.099369	 -0.904519
H	 -1.187323	 1.153111	 0.844927
O	 1.087029	 0.313212	 -0.610057
H	 -0.127610	 -1.331206	 -0.466718
H	 0.323330	 -0.597962	 1.065279
C	 2.311285	 -0.350226	 -0.623904
H	 2.241452	 -1.303345	 -1.144785
H	 3.019262	 0.281297	 -1.142411
H	 2.674812	 -0.534066	 0.384978

	symmetry c1
}
set optking {
	frozen_dihedral = ("
		8 4 3 5
	")
}

ee = optimize('scf')
oeprop('DIPOLE', 'QUADRUPOLE', 'MULLIKEN_CHARGES')
f=open( 'psi4out.xyz', 'w' )
f.write( "13  " )
f.write( str(ee) + "\n" )
f.write( MOL.save_string_xyz() )
f.close()
--------------------------------------------------------------------------

    Molecular point group: c1
  Charge       = 0
  Multiplicity = 1
  Basis Set: 6-31G*
  Basis Set:
  @DF-RHF Final Energy:  -267.94812427056536
    Total Energy =                       -267.9481242705651312
    Molecular point group: c1
  Basis Set: 6-31G*
  Basis Set:
  Basis Set: 6-31G*
  Basis Set:
  @DF-RHF Final Energy:  -267.94841745829740
    Total Energy =                       -267.9484174582975129
  Basis Set: 6-31G*
  Basis Set:
  Basis Set: 6-31G*
  Basis Set:
  @DF-RHF Final Energy:  -267.94851973867503
    Total Energy =                       -267.9485197386749178
  Basis Set: 6-31G*
  Basis Set:
  Basis Set: 6-31G*
  Basis Set:
  @DF-RHF Final Energy:  -267.94852227335116
    Total Energy =                       -267.9485222733511591
  Basis Set: 6-31G*
  Basis Set:
  Charge       = 0
  Multiplicity = 1
  Basis Set: 6-31G*
  Basis Set:

    Orbital Energies (a.u.)
    -----------------------

    Doubly Occupied:

       1A    -20.563567     2A    -20.559939     3A    -11.271633
       4A    -11.270897     5A    -11.268884     6A     -1.389813
       7A     -1.365414     8A     -1.017570     9A     -0.914430
      10A     -0.842974    11A     -0.707900    12A     -0.676698
      13A     -0.660001    14A     -0.632431    15A     -0.604960
      16A     -0.567479    17A     -0.541946    18A     -0.490926
      19A     -0.482308    20A     -0.438085    21A     -0.421492

  @DF-RHF Final Energy:  -267.94852251252257

   => Energetics <=

    Nuclear Repulsion Energy =            190.1486983377754996
    One-Electron Energy =                -742.8157444941030008
    Two-Electron Energy =                 284.7185236438047014
    DFT Exchange-Correlation Energy =       0.0000000000000000
    Empirical Dispersion Energy =           0.0000000000000000
    PCM Polarization Energy =               0.0000000000000000
    EFP Energy =                            0.0000000000000000
    Total Energy =                       -267.9485225125227998
    Molecular point group: c1
  Basis Set: 6-31G*
  Basis Set:

  -Total Gradient:
     Atom            X                  Y                   Z
    ------   -----------------  -----------------  -----------------
       1       -0.000008886392    -0.000006368624    -0.000002818164
       2       -0.000004460517     0.000001749168    -0.000018099072
       3       -0.002884829450    -0.004191405408    -0.001644169486
       4        0.001952876061     0.002865137932    -0.004148109162
       5        0.002127412162     0.003038982831     0.002093843683
       6        0.000007024741     0.000003753300     0.000005801471
       7        0.000018419107    -0.000009971976     0.000007333163
       8       -0.001222943331    -0.001727898938     0.003710014188
       9        0.000007783454     0.000023509254    -0.000005956378
      10        0.000003110401     0.000001091214     0.000009839404
      11       -0.000000482527     0.000000609784    -0.000005263183
      12       -0.000001176447     0.000000410055    -0.000002616710
      13        0.000006152740     0.000000401407     0.000000200246

  **** Optimization is complete! (in 5 steps) ****
    Final optimized geometry and variables:
    Molecular point group: c1

    Geometry (in Angstrom), charge = 0, multiplicity = 1:

    H           -2.493245687059    -0.685622470861    -0.445689645672
    O           -2.326542121360    -0.209820734237     0.355998285008
    C           -1.153701821071     0.542522567857     0.218742930445
    C            0.094685949937    -0.332838608303     0.224427387211
    H           -1.149236737130     1.156965859951    -0.677043139008
    H           -1.130791717682     1.222159078785     1.059919446221
    O            1.127650273122     0.364660890764    -0.395368683038
    H           -0.114472131615    -1.278039479663    -0.279566033670
    H            0.365810224559    -0.590236336005     1.247481070372
    C            2.358180444131    -0.287331162265    -0.372678145358
    H            2.308892204043    -1.246265361129    -0.885025060218
    H            3.072285987982     0.345562514495    -0.881038624832
    H            2.699111500226    -0.457417513934     0.646460554848

  Mulliken Charges: (a.u.)
   Center  Symbol    Alpha    Beta     Spin     Total
       1     H     0.28121  0.28121  0.00000  0.43759
       2     O     4.37044  4.37044  0.00000 -0.74088
       3     C     3.00642  3.00642  0.00000 -0.01285
       4     C     2.99869  2.99869  0.00000  0.00263
       5     H     0.41779  0.41779  0.00000  0.16441
       6     H     0.41101  0.41101  0.00000  0.17798
       7     O     4.30697  4.30697  0.00000 -0.61393
       8     H     0.43426  0.43426  0.00000  0.13149
       9     H     0.42549  0.42549  0.00000  0.14902
      10     C     3.08059  3.08059  0.00000 -0.16118
      11     H     0.42882  0.42882  0.00000  0.14236
      12     H     0.41066  0.41066  0.00000  0.17869
      13     H     0.42766  0.42766  0.00000  0.14468

   Total alpha = 21.00000, Total beta = 21.00000, Total charge = -0.00000
