  ==> Input File <==

--------------------------------------------------------------------------
set {
	reference rhf
	basis 6-31G*
}

set_num_threads( 4 )
memory 2 gb

molecule MOL {
0 1

H	 -2.045051	 1.590807	 1.135667
C	 -2.271960	 0.536507	 1.034131
C	 -1.001900	 -0.303985	 1.091414
H	 -2.784455	 0.402056	 0.089380
H	 -2.948240	 0.253262	 1.833939
C	 -0.000005	 0.033229	 -0.000001
H	 -1.236750	 -1.363864	 1.014618
H	 -0.503829	 -0.185597	 2.051781
C	 1.290528	 -0.768786	 0.000276
O	 -0.214741	 0.880414	 -0.812005
C	 2.545731	 0.095645	 -0.000061
H	 1.275672	 -1.427874	 -0.865626
H	 1.275566	 -1.427086	 0.866768
H	 2.577157	 0.734767	 -0.874036
H	 3.433520	 -0.528139	 0.000137
H	 2.577172	 0.735117	 0.873581

	symmetry c1
}
set optking {
	frozen_dihedral = ("
		3 6 9 12
	")
}

ee = optimize('scf')
oeprop('DIPOLE', 'QUADRUPOLE', 'MULLIKEN_CHARGES')
f=open( 'psi4out.xyz', 'w' )
f.write( "16  " )
f.write( str(ee) + "\n" )
f.write( MOL.save_string_xyz() )
f.close()
--------------------------------------------------------------------------

    Molecular point group: c1
  Charge       = 0
  Multiplicity = 1
  Basis Set: 6-31G*
  Basis Set:
  @DF-RHF Final Energy:  -270.03114702907249
    Total Energy =                       -270.0311470290724856
    Molecular point group: c1
  Basis Set: 6-31G*
  Basis Set:
  Basis Set: 6-31G*
  Basis Set:
  @DF-RHF Final Energy:  -270.03173429985702
    Total Energy =                       -270.0317342998569643
  Basis Set: 6-31G*
  Basis Set:
  Basis Set: 6-31G*
  Basis Set:
  @DF-RHF Final Energy:  -270.03032801830955
    Total Energy =                       -270.0303280183094330
  Basis Set: 6-31G*
  Basis Set:
  Basis Set: 6-31G*
  Basis Set:
  @DF-RHF Final Energy:  -270.03177272497567
    Total Energy =                       -270.0317727249758377
  Basis Set: 6-31G*
  Basis Set:
  Basis Set: 6-31G*
  Basis Set:
  @DF-RHF Final Energy:  -270.03178742800469
    Total Energy =                       -270.0317874280046340
  Basis Set: 6-31G*
  Basis Set:
  Charge       = 0
  Multiplicity = 1
  Basis Set: 6-31G*
  Basis Set:

    Orbital Energies (a.u.)
    -----------------------

    Doubly Occupied:

       1A    -20.548961     2A    -11.323696     3A    -11.234523
       4A    -11.232714     5A    -11.219663     6A    -11.213362
       7A     -1.395088     8A     -1.068391     9A     -1.036806
      10A     -0.914193    11A     -0.849762    12A     -0.725427
      13A     -0.666223    14A     -0.642587    15A     -0.622610
      16A     -0.602310    17A     -0.563912    18A     -0.534648
      19A     -0.526840    20A     -0.511614    21A     -0.502093
      22A     -0.496783    23A     -0.477345    24A     -0.397054

  @DF-RHF Final Energy:  -270.03178773888851

   => Energetics <=

    Nuclear Repulsion Energy =            240.0300458453522765
    One-Electron Energy =                -841.5104588578158200
    Two-Electron Energy =                 331.4486252735749758
    DFT Exchange-Correlation Energy =       0.0000000000000000
    Empirical Dispersion Energy =           0.0000000000000000
    PCM Polarization Energy =               0.0000000000000000
    EFP Energy =                            0.0000000000000000
    Total Energy =                       -270.0317877388885108
    Molecular point group: c1
  Basis Set: 6-31G*
  Basis Set:

  -Total Gradient:
     Atom            X                  Y                   Z
    ------   -----------------  -----------------  -----------------
       1        0.000009055218    -0.000000264892     0.000004065260
       2       -0.000023292192    -0.000039752817    -0.000040072445
       3        0.000369884894     0.000558890427     0.000533496887
       4       -0.000000290538     0.000008123847     0.000006722585
       5       -0.000001916419     0.000002965852     0.000001387577
       6       -0.000379046857    -0.000585792412    -0.000818661418
       7        0.000004008197     0.000002541971    -0.000023291581
       8       -0.000017206754    -0.000016622858     0.000001904920
       9       -0.000352342887    -0.000615667975     0.000825612001
      10       -0.000021410327     0.000026483306     0.000003906179
      11       -0.000038066261    -0.000005380231    -0.000005217570
      12        0.000442817355     0.000683603541    -0.000488971189
      13        0.000006631335    -0.000019303416     0.000001570980
      14        0.000006252659     0.000011274829     0.000003510805
      15       -0.000003728087    -0.000009342209    -0.000001637091
      16       -0.000001349335    -0.000001756965    -0.000004325897

  **** Optimization is complete! (in 6 steps) ****
    Final optimized geometry and variables:
    Molecular point group: c1

    Geometry (in Angstrom), charge = 0, multiplicity = 1:

    H           -2.132822528326     1.494982245905     0.880172558084
    C           -2.353140305434     0.439338039727     0.779321695330
    C           -1.081418972531    -0.393920751913     0.870982001090
    H           -2.841784826780     0.297602120426    -0.177134700383
    H           -3.047954129765     0.157506560398     1.563599534972
    C           -0.051506412399    -0.058919264225    -0.189529121738
    H           -1.303977038857    -1.457212710591     0.795697036861
    H           -0.601733254800    -0.268272068617     1.840749080720
    C            1.227997267265    -0.883558812583    -0.201055962902
    O           -0.222358225649     0.812900174725    -0.986599672717
    C            2.478766379271    -0.003238502973    -0.252974798301
    H            1.190807177859    -1.506815524620    -1.091287020958
    H            1.260541970989    -1.549272585970     0.655296715711
    H            2.441059469989     0.656099222085    -1.110178769537
    H            3.371456495915    -0.615071331725    -0.325465231372
    H            2.565580311225     0.608847826211     0.639477444206

  Mulliken Charges: (a.u.)
   Center  Symbol    Alpha    Beta     Spin     Total
       1     H     0.40984  0.40984  0.00000  0.18031
       2     C     3.23538  3.23538  0.00000 -0.47076
       3     C     3.20908  3.20908  0.00000 -0.41817
       4     H     0.41101  0.41101  0.00000  0.17798
       5     H     0.42000  0.42000  0.00000  0.16000
       6     C     2.73322  2.73322  0.00000  0.53355
       7     H     0.40887  0.40887  0.00000  0.18226
       8     H     0.40830  0.40830  0.00000  0.18341
       9     C     3.20114  3.20114  0.00000 -0.40229
      10     O     4.26690  4.26690  0.00000 -0.53379
      11     C     3.24282  3.24282  0.00000 -0.48563
      12     H     0.40239  0.40239  0.00000  0.19522
      13     H     0.41457  0.41457  0.00000  0.17085
      14     H     0.40138  0.40138  0.00000  0.19725
      15     H     0.41639  0.41639  0.00000  0.16721
      16     H     0.41870  0.41870  0.00000  0.16261

   Total alpha = 24.00000, Total beta = 24.00000, Total charge =  0.00000
