  ==> Input File <==

--------------------------------------------------------------------------
set {
	reference rhf
	basis cc-pvtz
}

set_num_threads( 4 )
memory 2 gb

molecule MOL {
0 1

H	 3.289346	 -0.454484	 -0.039362
C	 2.232486	 -0.267601	 -0.030022
C	 1.600641	 0.056383	 1.161254
C	 1.510304	 -0.351106	 -1.203477
H	 2.168670	 0.119354	 2.069093
C	 0.245025	 0.296877	 1.177608
H	 2.001709	 -0.601887	 -2.123317
C	 0.148916	 -0.109303	 -1.185462
H	 -0.261195	 0.548586	 2.088125
C	 -0.486398	 0.214248	 0.000000
H	 -0.419267	 -0.172559	 -2.095045
C	 -1.946525	 0.470130	 0.000000
O	 -2.779618	 -0.371226	 0.000000
H	 -2.227127	 1.528393	 0.000000

	symmetry c1
}
set optking {
	frozen_dihedral = ("
		8 10 12 14
	")
}

ee = optimize('scf')
oeprop('DIPOLE', 'QUADRUPOLE', 'MULLIKEN_CHARGES')
f=open( 'psi4out.xyz', 'w' )
f.write( "14  " )
f.write( str(ee) + "\n" )
f.write( MOL.save_string_xyz() )
f.close()
--------------------------------------------------------------------------

    Molecular point group: c1
  Charge       = 0
  Multiplicity = 1
  Basis Set: CC-PVTZ
  Basis Set:
  @DF-RHF Final Energy:  -343.53705328410592
    Total Energy =                       -343.5370532841062072
    Molecular point group: c1
  Basis Set: CC-PVTZ
  Basis Set:
  Basis Set: CC-PVTZ
  Basis Set:
  @DF-RHF Final Energy:  -343.53698324100640
    Total Energy =                       -343.5369832410069080
  Basis Set: CC-PVTZ
  Basis Set:
  Basis Set: CC-PVTZ
  Basis Set:
  @DF-RHF Final Energy:  -343.53704866377262
    Total Energy =                       -343.5370486637725662
  Basis Set: CC-PVTZ
  Basis Set:
  Basis Set: CC-PVTZ
  Basis Set:
  @DF-RHF Final Energy:  -343.53759832128497
    Total Energy =                       -343.5375983212850315
  Basis Set: CC-PVTZ
  Basis Set:
  Charge       = 0
  Multiplicity = 1
  Basis Set: CC-PVTZ
  Basis Set:

    Orbital Energies (a.u.)
    -----------------------

    Doubly Occupied:

       1A    -20.563694     2A    -11.332794     3A    -11.251304
       4A    -11.246011     5A    -11.245188     6A    -11.243005
       7A    -11.242343     8A    -11.240811     9A     -1.417854
      10A     -1.174929    11A     -1.049364    12A     -1.033441
      13A     -0.890406    14A     -0.845122    15A     -0.798192
      16A     -0.725628    17A     -0.681398    18A     -0.657057
      19A     -0.645868    20A     -0.620789    21A     -0.604167
      22A     -0.540535    23A     -0.532357    24A     -0.518132
      25A     -0.506000    26A     -0.426255    27A     -0.352327
      28A     -0.351457

  @DF-RHF Final Energy:  -343.53760417324332

   => Energetics <=

    Nuclear Repulsion Energy =            323.0344791198215830
    One-Electron Energy =               -1105.6713105490437101
    Two-Electron Energy =                 439.0992272559786898
    DFT Exchange-Correlation Energy =       0.0000000000000000
    Empirical Dispersion Energy =           0.0000000000000000
    PCM Polarization Energy =               0.0000000000000000
    EFP Energy =                            0.0000000000000000
    Total Energy =                       -343.5376041732434942
    Molecular point group: c1
  Basis Set: CC-PVTZ
  Basis Set:

  -Total Gradient:
     Atom            X                  Y                   Z
    ------   -----------------  -----------------  -----------------
       1        0.000008744203     0.000001270176     0.000039316928
       2       -0.000011005725    -0.000058887051    -0.000297038331
       3       -0.000277500291     0.000086642799     0.000152731408
       4        0.000277152549     0.000010570609     0.000181200248
       5        0.000043320923    -0.000006572330    -0.000026893916
       6        0.000352704031    -0.000061681275     0.000155011924
       7       -0.000014575139     0.000018339251     0.000006956175
       8        0.000210479533     0.002649432755    -0.000225963277
       9       -0.000031688956    -0.000001420279    -0.000007417185
      10       -0.000845938820    -0.003795735283    -0.000811935352
      11       -0.000012787515    -0.000010724049     0.000009912036
      12        0.000393212784     0.001228216342     0.004075550153
      13       -0.000115930675    -0.000101143862     0.000005628305
      14        0.000023813093     0.000041692199    -0.003257059116

  **** Optimization is complete! (in 5 steps) ****
    Final optimized geometry and variables:
    Molecular point group: c1

    Geometry (in Angstrom), charge = 0, multiplicity = 1:

    H            3.303955734260    -0.429571655058    -0.023802957689
    C            2.245961492816    -0.251057169607    -0.012147740957
    C            1.611545559257     0.068880142777     1.174023841273
    C            1.516290661027    -0.338023298144    -1.181789217569
    H            2.175673380323     0.137408727719     2.084172979838
    C            0.251110785906     0.305522648719     1.189052432005
    H            2.005931401608    -0.582562143666    -2.104685752766
    C            0.152285528874    -0.113306810751    -1.167317894742
    H           -0.237250094119     0.562025492466     2.110725418161
    C           -0.484212600939     0.197907950143     0.020629205498
    H           -0.415233861032    -0.190962434790    -2.075063988216
    C           -1.954334888641     0.490494539657     0.025051335071
    O           -2.795159927474    -0.336423373397    -0.038196055535
    H           -2.224552481407     1.551509671782     0.049255713443

  Mulliken Charges: (a.u.)
   Center  Symbol    Alpha    Beta     Spin     Total
       1     H     0.42083  0.42083  0.00000  0.15835
       2     C     3.08423  3.08423  0.00000 -0.16846
       3     C     3.06345  3.06345  0.00000 -0.12690
       4     C     3.06299  3.06299  0.00000 -0.12598
       5     H     0.42086  0.42086  0.00000  0.15829
       6     C     3.09924  3.09924  0.00000 -0.19847
       7     H     0.42094  0.42094  0.00000  0.15812
       8     C     3.09942  3.09942  0.00000 -0.19884
       9     H     0.42388  0.42388  0.00000  0.15224
      10     C     2.93740  2.93740  0.00000  0.12519
      11     H     0.42041  0.42041  0.00000  0.15917
      12     C     2.93163  2.93163  0.00000  0.13675
      13     O     4.15619  4.15619  0.00000 -0.31238
      14     H     0.45853  0.45853  0.00000  0.08293

   Total alpha = 28.00000, Total beta = 28.00000, Total charge = -0.00000
