  ==> Input File <==

--------------------------------------------------------------------------
set {
	reference rhf
	basis 6-31G*
}

set_num_threads( 1 )
memory 2 gb

molecule MOL {
0 1

H	 2.591676	 2.013956	 0.335017
O	 3.341076	 1.666752	 -0.126416
C	 3.569581	 0.339145	 0.272707
C	 2.826294	 -0.681805	 -0.581643
H	 4.636978	 0.184041	 0.181700
H	 3.312316	 0.207359	 1.323053
C	 1.301928	 -0.580011	 -0.487767
H	 3.137349	 -0.557930	 -1.615696
H	 3.142030	 -1.676806	 -0.272371
C	 0.585705	 -1.652221	 -1.313726
H	 0.988570	 0.405059	 -0.822145
H	 0.996607	 -0.669207	 0.554905
C	 -0.942141	 -1.648748	 -1.187168
H	 0.860276	 -1.540101	 -2.361050
H	 0.954279	 -2.628867	 -1.007106
C	 -1.633709	 -0.410049	 -1.763220
H	 -1.329109	 -2.529576	 -1.695316
H	 -1.216216	 -1.760334	 -0.139185
C	 -3.160261	 -0.500262	 -1.709018
H	 -1.319492	 -0.271493	 -2.796748
H	 -1.315382	 0.480132	 -1.226054
C	 -3.853020	 0.737688	 -2.277548
H	 -3.488444	 -1.380748	 -2.257223
H	 -3.475549	 -0.648455	 -0.678233
H	 -3.583330	 0.894710	 -3.318142
H	 -4.933304	 0.642531	 -2.226879
H	 -3.573885	 1.631473	 -1.726552

	symmetry c1
}
set optking {
	frozen_dihedral = ("
		14 10 7 4,
		14 10 13 16,
		10 7 4 8,
		8 4 3 2,
		10 13 16 20,
		20 16 19 22
	")
}

ee = energy('scf')
oeprop('DIPOLE', 'QUADRUPOLE', 'MULLIKEN_CHARGES')
f=open( 'psi4out.xyz', 'w' )
f.write( "27  " )
f.write( str(ee) + "\n" )
f.write( MOL.save_string_xyz() )
f.close()
--------------------------------------------------------------------------

    Molecular point group: c1

    Geometry (in Angstrom), charge = 0, multiplicity = 1:

       Center              X                  Y                   Z               Mass
    ------------   -----------------  -----------------  -----------------  -----------------
           H          2.329412703587     2.270274695724     1.337763346157     1.007825032070
           O          3.078812703587     1.923070695724     0.876330346157    15.994914619560
           C          3.307317703587     0.595463695724     1.275453346157    12.000000000000
           C          2.564030703587    -0.425486304276     0.421103346157    12.000000000000
           H          4.374714703587     0.440359695724     1.184446346157     1.007825032070
           H          3.050052703587     0.463677695724     2.325799346157     1.007825032070
           C          1.039664703587    -0.323692304276     0.514979346157    12.000000000000
           H          2.875085703587    -0.301611304276    -0.612949653843     1.007825032070
           H          2.879766703587    -1.420487304276     0.730375346157     1.007825032070
           C          0.323441703587    -1.395902304276    -0.310979653843    12.000000000000
           H          0.726306703587     0.661377695724     0.180601346157     1.007825032070
           H          0.734343703587    -0.412888304276     1.557651346157     1.007825032070
           C         -1.204404296413    -1.392429304276    -0.184421653843    12.000000000000
           H          0.598012703587    -1.283782304276    -1.358303653843     1.007825032070
           H          0.692015703587    -2.372548304276    -0.004359653843     1.007825032070
           C         -1.895972296413    -0.153730304276    -0.760473653843    12.000000000000
           H         -1.591372296413    -2.273257304276    -0.692569653843     1.007825032070
           H         -1.478479296413    -1.504015304276     0.863561346157     1.007825032070
           C         -3.422524296413    -0.243943304276    -0.706271653843    12.000000000000
           H         -1.581755296413    -0.015174304276    -1.794001653843     1.007825032070
           H         -1.577645296413     0.736450695724    -0.223307653843     1.007825032070
           C         -4.115283296413     0.994006695724    -1.274801653843    12.000000000000
           H         -3.750707296413    -1.124429304276    -1.254476653843     1.007825032070
           H         -3.737812296413    -0.392136304276     0.324513346157     1.007825032070
           H         -3.845593296413     1.151028695724    -2.315395653843     1.007825032070
           H         -5.195567296413     0.898849695724    -1.224132653843     1.007825032070
           H         -3.836148296413     1.887791695724    -0.723805653843     1.007825032070

  Charge       = 0
  Multiplicity = 1
  Basis Set: 6-31G*
  Basis Set:

    Orbital Energies (a.u.)
    -----------------------

    Doubly Occupied:

       1A    -20.552643     2A    -11.267362     3A    -11.216310
       4A    -11.215074     5A    -11.215018     6A    -11.214115
       7A    -11.213439     8A    -11.212828     9A    -11.208510
      10A     -1.359368    11A     -1.093310    12A     -1.059980
      13A     -1.010464    14A     -0.947170    15A     -0.886017
      16A     -0.817830    17A     -0.799714    18A     -0.776192
      19A     -0.699088    20A     -0.649512    21A     -0.634423
      22A     -0.616524    23A     -0.595335    24A     -0.582371
      25A     -0.579591    26A     -0.548977    27A     -0.541228
      28A     -0.529729    29A     -0.505644    30A     -0.490010
      31A     -0.483505    32A     -0.472461    33A     -0.468382
      34A     -0.459882    35A     -0.452506    36A     -0.441701
      37A     -0.420127

  @DF-RHF Final Energy:  -388.28134983088898

   => Energetics <=

    Nuclear Repulsion Energy =            459.4318909344427766
    One-Electron Energy =               -1436.9538026893480946
    Two-Electron Energy =                 589.2405619240158785
    DFT Exchange-Correlation Energy =       0.0000000000000000
    Empirical Dispersion Energy =           0.0000000000000000
    PCM Polarization Energy =               0.0000000000000000
    EFP Energy =                            0.0000000000000000
    Total Energy =                       -388.2813498308894395

  Mulliken Charges: (a.u.)
   Center  Symbol    Alpha    Beta     Spin     Total
       1     H     0.28014  0.28014  0.00000  0.43972
       2     O     4.37019  4.37019  0.00000 -0.74039
       3     C     2.99982  2.99982  0.00000  0.00037
       4     C     3.15797  3.15797  0.00000 -0.31594
       5     H     0.41561  0.41561  0.00000  0.16878
       6     H     0.43222  0.43222  0.00000  0.13556
       7     C     3.16191  3.16191  0.00000 -0.32381
       8     H     0.41519  0.41519  0.00000  0.16962
       9     H     0.42533  0.42533  0.00000  0.14934
      10     C     3.15227  3.15227  0.00000 -0.30454
      11     H     0.41826  0.41826  0.00000  0.16349
      12     H     0.42777  0.42777  0.00000  0.14446
      13     C     3.15333  3.15333  0.00000 -0.30666
      14     H     0.42191  0.42191  0.00000  0.15617
      15     H     0.42233  0.42233  0.00000  0.15535
      16     C     3.15231  3.15231  0.00000 -0.30461
      17     H     0.42163  0.42163  0.00000  0.15674
      18     H     0.42468  0.42468  0.00000  0.15065
      19     C     3.15118  3.15118  0.00000 -0.30237
      20     H     0.42360  0.42360  0.00000  0.15280
      21     H     0.42347  0.42347  0.00000  0.15306
      22     C     3.23909  3.23909  0.00000 -0.47819
      23     H     0.42301  0.42301  0.00000  0.15397
      24     H     0.42355  0.42355  0.00000  0.15289
      25     H     0.42145  0.42145  0.00000  0.15711
      26     H     0.41946  0.41946  0.00000  0.16108
      27     H     0.42233  0.42233  0.00000  0.15535

   Total alpha = 37.00000, Total beta = 37.00000, Total charge = -0.00000
