                              Psi4 1.0.54 Driver

  ==> Input File <==

--------------------------------------------------------------------------
set {
	reference rhf
	basis cc-pvtz
}

set_num_threads( 4 )
memory 2 gb

molecule MOL {
0 1

H	 1.101435	 -1.591338	 -3.891192
O	 2.010213	 -1.354883	 -3.897574
C	 2.148621	 0.039980	 -3.964471
C	 1.785573	 0.748335	 -2.667893
H	 3.188927	 0.222735	 -4.197589
H	 1.559046	 0.440802	 -4.786780
C	 0.312813	 0.632911	 -2.281235
H	 2.405433	 0.348860	 -1.870803
H	 2.047852	 1.798065	 -2.775939
C	 -0.020596	 1.383439	 -0.992677
H	 0.053057	 -0.414217	 -2.166991
H	 -0.303444	 1.021846	 -3.090089
C	 -1.498167	 1.363381	 -0.596901
H	 0.574450	 0.976728	 -0.178593
H	 0.290321	 2.418319	 -1.105910
C	 -2.041121	 -0.006551	 -0.194127
H	 -1.637523	 2.048247	 0.235005
H	 -2.094098	 1.759698	 -1.416019
C	 -3.489218	 0.042606	 0.286507
H	 -1.416806	 -0.421182	 0.594403
H	 -1.973154	 -0.696017	 -1.030201
C	 -4.219984	 1.311773	 -0.139038
H	 -4.022855	 -0.824300	 -0.093339
H	 -3.510372	 -0.038577	 1.370031
H	 -4.244251	 1.405725	 -1.219696
H	 -5.244345	 1.313233	 0.215630
H	 -3.732090	 2.196311	 0.257073

	symmetry c1
}
set optking {
	frozen_dihedral = ("
		20 16 19 22
	")
}

ee,wfn = optimize('scf', return_wfn=True)
oeprop( wfn, 'DIPOLE', 'QUADRUPOLE', 'MULLIKEN_CHARGES')
f=open( 'psi4out.xyz', 'w' )
f.write( "27  " )
f.write( str(ee) + "\n" )
f.write( MOL.save_string_xyz() )
f.close()
--------------------------------------------------------------------------

    Molecular point group: c1
  Charge       = 0
  Multiplicity = 1
  Basis Set: CC-PVTZ
  Basis Set:
  @DF-RHF Final Energy:  -388.41556699938803
    Total Energy =                       -388.4155669993881475
    Molecular point group: c1
  Basis Set: CC-PVTZ
  Basis Set:
  Basis Set: CC-PVTZ
  Basis Set:
  @DF-RHF Final Energy:  -388.41350383693214
    Total Energy =                       -388.4135038369324775
  Basis Set: CC-PVTZ
  Basis Set:
  Basis Set: CC-PVTZ
  Basis Set:
  @DF-RHF Final Energy:  -388.41877651568569
    Total Energy =                       -388.4187765156852947
  Basis Set: CC-PVTZ
  Basis Set:
  Basis Set: CC-PVTZ
  Basis Set:
  @DF-RHF Final Energy:  -388.41913900668749
    Total Energy =                       -388.4191390066874874
  Basis Set: CC-PVTZ
  Basis Set:
  @DF-RHF Final Energy:  -388.41916056271168
    Total Energy =                       -388.4191605627111130
  Basis Set: CC-PVTZ
  Basis Set:
  @DF-RHF Final Energy:  -388.41916702707601
    Total Energy =                       -388.4191670270765826
  Basis Set: CC-PVTZ
  Basis Set:
  Basis Set: CC-PVTZ
  Basis Set:
  @DF-RHF Final Energy:  -388.41917666694366
    Total Energy =                       -388.4191766669440540
  Basis Set: CC-PVTZ
  Basis Set:
  Basis Set: CC-PVTZ
  Basis Set:
  @DF-RHF Final Energy:  -388.41917706039470
    Total Energy =                       -388.4191770603945315
  Basis Set: CC-PVTZ
  Basis Set:
  Charge       = 0
  Multiplicity = 1
  Basis Set: CC-PVTZ
  Basis Set:

    Orbital Energies (a.u.)
    -----------------------

    Doubly Occupied:

       1A    -20.545265     2A    -11.264885     3A    -11.216559
       4A    -11.214595     5A    -11.214364     6A    -11.213119
       7A    -11.212765     8A    -11.212169     9A    -11.206889
      10A     -1.363165    11A     -1.094841    12A     -1.059525
      13A     -1.009686    14A     -0.946992    15A     -0.895397
      16A     -0.831084    17A     -0.798833    18A     -0.763265
      19A     -0.695980    20A     -0.651732    21A     -0.637946
      22A     -0.615260    23A     -0.603952    24A     -0.590115
      25A     -0.580092    26A     -0.555392    27A     -0.537747
      28A     -0.525880    29A     -0.513740    30A     -0.500038
      31A     -0.483496    32A     -0.475830    33A     -0.469159
      34A     -0.451916    35A     -0.447209    36A     -0.441440
      37A     -0.425539

  @DF-RHF Final Energy:  -388.41917859457726

   => Energetics <=

    Nuclear Repulsion Energy =            463.2630371511774001
    One-Electron Energy =               -1444.8327108596688504
    Two-Electron Energy =                 593.1504951139136210
    DFT Exchange-Correlation Energy =       0.0000000000000000
    Empirical Dispersion Energy =           0.0000000000000000
    PCM Polarization Energy =               0.0000000000000000
    EFP Energy =                            0.0000000000000000
    Total Energy =                       -388.4191785945778292
    Molecular point group: c1
  Basis Set: CC-PVTZ
  Basis Set:

  -Total Gradient:
     Atom            X                  Y                   Z
    ------   -----------------  -----------------  -----------------
       1        0.000003788588     0.000007658421    -0.000001504555
       2        0.000017613066     0.000003229353     0.000001199925
       3       -0.000020658607     0.000006022151    -0.000007628960
       4        0.000004735839    -0.000013132382     0.000007256718
       5       -0.000001413865    -0.000011156762    -0.000002762456
       6        0.000001247970    -0.000000335751    -0.000005415335
       7       -0.000000398174     0.000004307424    -0.000000409758
       8        0.000000667120     0.000000403289     0.000006041797
       9       -0.000000846672    -0.000002929414    -0.000000812243
      10        0.000001340964    -0.000000935926    -0.000002290345
      11        0.000000749332     0.000003364951     0.000003420107
      12       -0.000001567254     0.000000307185    -0.000001213763
      13       -0.000006114859    -0.000009062341     0.000002722661
      14        0.000000304982     0.000000656886    -0.000000387065
      15       -0.000001057893     0.000000458342     0.000000614551
      16       -0.000406999665    -0.005327132127    -0.001322873192
      17       -0.000004618381     0.000000577568     0.000001928830
      18        0.000002077284    -0.000000125906    -0.000000214334
      19       -0.001730779524    -0.001274348647    -0.004828957022
      20        0.000828975245     0.004980490237     0.002448737295
      21        0.000005135866     0.000001658203    -0.000003481229
      22        0.001314169583     0.001624180259     0.003704526361
      23       -0.000000378153     0.000000940639    -0.000001141442
      24       -0.000004108907     0.000001109481     0.000001412705
      25       -0.000000333557     0.000000864095    -0.000000264271
      26       -0.000004286035     0.000002202629     0.000001202904
      27        0.000002755713     0.000000728141     0.000000292107

  **** Optimization is complete! (in 9 steps) ****
    Final optimized geometry and variables:
    Molecular point group: c1

    Geometry (in Angstrom), charge = 0, multiplicity = 1:

    H            1.528695013531    -1.803739365536    -2.499574643190
    O            2.449492879056    -1.620627769274    -2.486473534154
    C            2.668468802379    -0.238212570650    -2.386036202670
    C            2.349680114086     0.328142311963    -1.010490013582
    H            3.717155901602    -0.088714726306    -2.604808031386
    H            2.101544883870     0.292045902900    -3.148800902947
    C            0.874082059263     0.248289333357    -0.625594013792
    H            2.948926563367    -0.197646340128    -0.273267408227
    H            2.669844237883     1.367170186578    -0.994742169185
    C            0.586806998743     0.863482820405     0.743498917044
    H            0.558208271214    -0.789413209526    -0.630584987834
    H            0.277763733724     0.760697577712    -1.378572882475
    C           -0.890064390505     0.894023431946     1.144922486540
    H            1.155568424820     0.329806151928     1.501074682783
    H            0.962468508390     1.882967142836     0.747003760546
    C           -1.495204082988    -0.488964728643     1.405176968169
    H           -0.979400615610     1.493228636366     2.045953700329
    H           -1.453130919894     1.415240214899     0.376999380266
    C           -2.951741873139    -0.505388974039     1.929616698266
    H           -0.862089724278    -0.960550746367     2.150299793681
    H           -1.430819155788    -1.085513080581     0.503435077181
    C           -3.796616997662     0.743135181179     1.678995045081
    H           -3.463592751416    -1.366731032065     1.514941914375
    H           -2.928289308439    -0.668379200601     3.002763913117
    H           -3.899162868500     0.960771471573     0.621142864687
    H           -4.794074639220     0.598673700703     2.078406980491
    H           -3.377104247014     1.618398935384     2.157731479204

  Mulliken Charges: (a.u.)
   Center  Symbol    Alpha    Beta     Spin     Total
       1     H     0.39232  0.39232  0.00000  0.21536
       2     O     4.20550  4.20550  0.00000 -0.41099
       3     C     2.97993  2.97993  0.00000  0.04015
       4     C     3.08957  3.08957  0.00000 -0.17913
       5     H     0.44856  0.44856  0.00000  0.10287
       6     H     0.46974  0.46974  0.00000  0.06052
       7     C     3.10212  3.10212  0.00000 -0.20424
       8     H     0.45075  0.45075  0.00000  0.09849
       9     H     0.45523  0.45523  0.00000  0.08954
      10     C     3.09957  3.09957  0.00000 -0.19913
      11     H     0.45592  0.45592  0.00000  0.08816
      12     H     0.45404  0.45404  0.00000  0.09191
      13     C     3.10031  3.10031  0.00000 -0.20062
      14     H     0.45223  0.45223  0.00000  0.09553
      15     H     0.44793  0.44793  0.00000  0.10414
      16     C     3.09792  3.09792  0.00000 -0.19584
      17     H     0.44640  0.44640  0.00000  0.10720
      18     H     0.45055  0.45055  0.00000  0.09891
      19     C     3.08772  3.08772  0.00000 -0.17545
      20     H     0.45123  0.45123  0.00000  0.09753
      21     H     0.45193  0.45193  0.00000  0.09614
      22     C     3.15695  3.15695  0.00000 -0.31390
      23     H     0.44995  0.44995  0.00000  0.10011
      24     H     0.45271  0.45271  0.00000  0.09457
      25     H     0.45430  0.45430  0.00000  0.09140
      26     H     0.44466  0.44466  0.00000  0.11068
      27     H     0.45195  0.45195  0.00000  0.09610

   Total alpha = 37.00000, Total beta = 37.00000, Total charge = -0.00000

*** Psi4 exiting successfully. Buy a developer a beer!
