                              Psi4 1.0.54 Driver

  ==> Input File <==

--------------------------------------------------------------------------
set {
	reference rhf
	basis cc-pvtz
}

set_num_threads( 4 )
memory 2 gb

molecule MOL {
0 1

H	 -3.436473	 1.252944	 -1.023892
O	 -3.458596	 0.315260	 -0.960865
C	 -3.176635	 -0.080824	 0.355601
C	 -1.763371	 0.265266	 0.799691
H	 -3.321825	 -1.153438	 0.379502
H	 -3.895468	 0.357385	 1.043382
C	 -0.739968	 -0.829389	 0.512116
H	 -1.457351	 1.191019	 0.314719
H	 -1.786817	 0.475536	 1.866286
C	 0.677814	 -0.452475	 0.933779
H	 -0.754737	 -1.063273	 -0.546654
H	 -1.039816	 -1.738051	 1.028769
C	 1.696301	 -1.554278	 0.647838
H	 0.966202	 0.460872	 0.422389
H	 0.689389	 -0.223281	 1.997355
C	 3.118403	 -1.256296	 1.126043
H	 1.713658	 -1.757810	 -0.420396
H	 1.358453	 -2.470653	 1.124006
C	 3.807171	 -0.102688	 0.400831
H	 3.717561	 -2.152826	 0.999480
H	 3.102207	 -1.052074	 2.193494
H	 3.832885	 -0.276465	 -0.670251
H	 4.830502	 0.008806	 0.740839
H	 3.304052	 0.841613	 0.570454

	symmetry c1
}
set optking {
	frozen_dihedral = ("
		7 4 3 2
	")
}

ee,wfn = optimize('scf', return_wfn=True)
oeprop( wfn, 'DIPOLE', 'QUADRUPOLE', 'MULLIKEN_CHARGES')
f=open( 'psi4out.xyz', 'w' )
f.write( "24  " )
f.write( str(ee) + "\n" )
f.write( MOL.save_string_xyz() )
f.close()
--------------------------------------------------------------------------

    Molecular point group: c1
  Charge       = 0
  Multiplicity = 1
  Basis Set: CC-PVTZ
  Basis Set:
  @DF-RHF Final Energy:  -349.37728682375007
    Total Energy =                       -349.3772868237501257
    Molecular point group: c1
  Basis Set: CC-PVTZ
  Basis Set:
  Basis Set: CC-PVTZ
  Basis Set:
  @DF-RHF Final Energy:  -349.37741850734517
    Total Energy =                       -349.3774185073448280
  Basis Set: CC-PVTZ
  Basis Set:
  Basis Set: CC-PVTZ
  Basis Set:
  @DF-RHF Final Energy:  -349.37744672779957
    Total Energy =                       -349.3774467277999065
  Basis Set: CC-PVTZ
  Basis Set:
  Charge       = 0
  Multiplicity = 1
  Basis Set: CC-PVTZ
  Basis Set:

    Orbital Energies (a.u.)
    -----------------------

    Doubly Occupied:

       1A    -20.544817     2A    -11.265208     3A    -11.215040
       4A    -11.212671     5A    -11.211921     6A    -11.210941
       7A    -11.210266     8A    -11.205576     9A     -1.362783
      10A     -1.090877    11A     -1.049785    12A     -0.986078
      13A     -0.915136    14A     -0.851543    15A     -0.804466
      16A     -0.777350    17A     -0.684145    18A     -0.650939
      19A     -0.625208    20A     -0.622183    21A     -0.597767
      22A     -0.584675    23A     -0.563639    24A     -0.536781
      25A     -0.518624    26A     -0.515825    27A     -0.494277
      28A     -0.478642    29A     -0.466780    30A     -0.461604
      31A     -0.456973    32A     -0.452418    33A     -0.418832

  @DF-RHF Final Energy:  -349.37744742005572

   => Energetics <=

    Nuclear Repulsion Energy =            382.9498241040021753
    One-Electron Energy =               -1232.5670035085934160
    Two-Electron Energy =                 500.2397319845351831
    DFT Exchange-Correlation Energy =       0.0000000000000000
    Empirical Dispersion Energy =           0.0000000000000000
    PCM Polarization Energy =               0.0000000000000000
    EFP Energy =                            0.0000000000000000
    Total Energy =                       -349.3774474200561144
    Molecular point group: c1
  Basis Set: CC-PVTZ
  Basis Set:

  -Total Gradient:
     Atom            X                  Y                   Z
    ------   -----------------  -----------------  -----------------
       1        0.000005235431    -0.000024440804     0.000000079917
       2       -0.001292743937     0.003500569813     0.001327976277
       3        0.001464950399    -0.005322479997    -0.000572827292
       4        0.000550421182     0.003396725489    -0.004032664450
       5        0.000030291608     0.000026441684     0.000014342790
       6        0.000016595396    -0.000000248607     0.000026959150
       7       -0.000741526642    -0.001545283017     0.003284900010
       8       -0.000038505454    -0.000028355129     0.000010349380
       9       -0.000005635479    -0.000018048463    -0.000007054515
      10        0.000002203901     0.000016138295    -0.000004356151
      11        0.000011707600    -0.000037995474    -0.000028924963
      12       -0.000011295017     0.000020094573     0.000001455167
      13        0.000001099682     0.000013964645    -0.000027886449
      14        0.000013730821    -0.000002622665     0.000009325596
      15       -0.000010213981    -0.000005436112     0.000002935798
      16       -0.000004675103     0.000009649488    -0.000002135850
      17        0.000002851308    -0.000006490924    -0.000002967997
      18        0.000000477679     0.000011704206     0.000000819517
      19        0.000007377853     0.000001215887     0.000000543174
      20       -0.000002887790    -0.000001279576     0.000001870161
      21       -0.000002241468     0.000002026890    -0.000002361198
      22       -0.000000558372     0.000000905024     0.000000531137
      23       -0.000000672733    -0.000001679449    -0.000002488997
      24        0.000004013108    -0.000005075774     0.000001579790

  **** Optimization is complete! (in 4 steps) ****
    Final optimized geometry and variables:
    Molecular point group: c1

    Geometry (in Angstrom), charge = 0, multiplicity = 1:

    H           -3.367399807084     1.700816997562    -1.485718771785
    O           -3.402487787620     0.763263840966    -1.436991462118
    C           -3.147784999767     0.349055803270    -0.119728483666
    C           -1.736862211103     0.694617346689     0.357760653248
    H           -3.303430314785    -0.721164372551    -0.104970618667
    H           -3.882469854273     0.789354570780     0.549399734592
    C           -0.707674315412    -0.396411797954     0.073470565155
    H           -1.431421785744     1.630937738021    -0.101316917358
    H           -1.764404014754     0.875042964649     1.429347887983
    C            0.709997973512    -0.017380629123     0.492014108110
    H           -0.720809684362    -0.633006682509    -0.987111715188
    H           -1.007161463555    -1.302686833412     0.593456154742
    C            1.728403695554    -1.122270098934     0.217741532672
    H            0.998666424235     0.890947968646    -0.027627076415
    H            0.719620902592     0.221679473170     1.553521985239
    C            3.150405754527    -0.819415651142     0.693307127236
    H            1.746203201945    -1.336793568552    -0.848318626449
    H            1.390439088380    -2.033640747072     0.703463988107
    C            3.839474917700     0.326689917750    -0.043435650180
    H            3.749473704516    -1.717249426317     0.575986224379
    H            3.133908427317    -0.604502902912     1.758655381921
    H            3.863849902905     0.142968668291    -1.112848352676
    H            4.863247822772     0.440303930337     0.294470717275
    H            3.337509502270     1.273038020703     0.117850444292

  Mulliken Charges: (a.u.)
   Center  Symbol    Alpha    Beta     Spin     Total
       1     H     0.39485  0.39485  0.00000  0.21031
       2     O     4.20496  4.20496  0.00000 -0.40992
       3     C     2.97354  2.97354  0.00000  0.05293
       4     C     3.09168  3.09168  0.00000 -0.18335
       5     H     0.45878  0.45878  0.00000  0.08245
       6     H     0.46464  0.46464  0.00000  0.07072
       7     C     3.09249  3.09249  0.00000 -0.18498
       8     H     0.46062  0.46062  0.00000  0.07876
       9     H     0.45519  0.45519  0.00000  0.08963
      10     C     3.09332  3.09332  0.00000 -0.18664
      11     H     0.44770  0.44770  0.00000  0.10459
      12     H     0.45441  0.45441  0.00000  0.09119
      13     C     3.09464  3.09464  0.00000 -0.18927
      14     H     0.45215  0.45215  0.00000  0.09570
      15     H     0.45585  0.45585  0.00000  0.08830
      16     C     3.09031  3.09031  0.00000 -0.18063
      17     H     0.45328  0.45328  0.00000  0.09344
      18     H     0.45003  0.45003  0.00000  0.09994
      19     C     3.15240  3.15240  0.00000 -0.30481
      20     H     0.44855  0.44855  0.00000  0.10290
      21     H     0.45521  0.45521  0.00000  0.08958
      22     H     0.45459  0.45459  0.00000  0.09083
      23     H     0.44661  0.44661  0.00000  0.10677
      24     H     0.45422  0.45422  0.00000  0.09157

   Total alpha = 33.00000, Total beta = 33.00000, Total charge =  0.00000

*** Psi4 exiting successfully. Buy a developer a beer!
