                              Psi4 1.0.54 Driver

  ==> Input File <==

--------------------------------------------------------------------------
set {
	reference rhf
	basis cc-pvtz
}

set_num_threads( 4 )
memory 2 gb

molecule MOL {
0 1

H	 2.867672	 -0.456275	 0.875795
C	 2.403497	 -0.020426	 0.000000
N	 0.989899	 -0.304564	 0.000000
H	 2.867672	 -0.456275	 -0.875795
H	 2.620366	 1.051270	 0.000000
C	 0.218958	 0.722753	 0.669205
C	 0.687781	 -1.609662	 0.550465
H	 0.508546	 0.818944	 1.720218
H	 0.403989	 1.676845	 0.189413
C	 -1.260410	 0.398211	 0.589283
H	 1.216804	 -2.366940	 -0.016449
H	 1.012632	 -1.688904	 1.592548
C	 -0.803632	 -1.874275	 0.473595
H	 -1.836446	 1.109793	 1.164140
H	 -1.587767	 0.446510	 -0.447348
O	 -1.528538	 -0.867574	 1.115630
H	 -1.049493	 -2.805333	 0.964828
H	 -1.107352	 -1.943571	 -0.569023

	symmetry c1
}
set optking {
	frozen_dihedral = ("
		6 3 2 5
	")
}

ee,wfn = optimize('scf', return_wfn=True)
oeprop( wfn, 'DIPOLE', 'QUADRUPOLE', 'MULLIKEN_CHARGES')
f=open( 'psi4out.xyz', 'w' )
f.write( "18  " )
f.write( str(ee) + "\n" )
f.write( MOL.save_string_xyz() )
f.close()
--------------------------------------------------------------------------

    Molecular point group: c1
  Charge       = 0
  Multiplicity = 1
  Basis Set: CC-PVTZ
  Basis Set:
  @DF-RHF Final Energy:  -325.14248045318669
    Total Energy =                       -325.1424804531867494
    Molecular point group: c1
  Basis Set: CC-PVTZ
  Basis Set:
  Basis Set: CC-PVTZ
  Basis Set:
  @DF-RHF Final Energy:  -325.14334354781641
    Total Energy =                       -325.1433435478164142
  Basis Set: CC-PVTZ
  Basis Set:
  Basis Set: CC-PVTZ
  Basis Set:
  @DF-RHF Final Energy:  -325.14345245971106
    Total Energy =                       -325.1434524597107725
  Basis Set: CC-PVTZ
  Basis Set:
  Basis Set: CC-PVTZ
  Basis Set:
  @DF-RHF Final Energy:  -325.14345809729627
    Total Energy =                       -325.1434580972963317
  Basis Set: CC-PVTZ
  Basis Set:
  Charge       = 0
  Multiplicity = 1
  Basis Set: CC-PVTZ
  Basis Set:

    Orbital Energies (a.u.)
    -----------------------

    Doubly Occupied:

       1A    -20.547426     2A    -15.541987     3A    -11.264100
       4A    -11.264040     5A    -11.242793     6A    -11.242473
       7A    -11.239201     8A     -1.386249     9A     -1.232092
      10A     -1.039393    11A     -0.981820    12A     -0.884461
      13A     -0.869835    14A     -0.773534    15A     -0.684927
      16A     -0.646600    17A     -0.645295    18A     -0.634828
      19A     -0.629166    20A     -0.573459    21A     -0.558107
      22A     -0.543427    23A     -0.527292    24A     -0.500753
      25A     -0.486625    26A     -0.453965    27A     -0.410695
      28A     -0.349994

  @DF-RHF Final Energy:  -325.14345883786837

   => Energetics <=

    Nuclear Repulsion Energy =            341.6836035346823337
    One-Electron Energy =               -1119.3450462812045316
    Two-Electron Energy =                 452.5179839086537186
    DFT Exchange-Correlation Energy =       0.0000000000000000
    Empirical Dispersion Energy =           0.0000000000000000
    PCM Polarization Energy =               0.0000000000000000
    EFP Energy =                            0.0000000000000000
    Total Energy =                       -325.1434588378684793
    Molecular point group: c1
  Basis Set: CC-PVTZ
  Basis Set:

  -Total Gradient:
     Atom            X                  Y                   Z
    ------   -----------------  -----------------  -----------------
       1        0.000012817338    -0.000003018121     0.000006432802
       2       -0.000308593011     0.000515745132    -0.006663847049
       3        0.000607260064    -0.002172876748     0.005203179845
       4       -0.000023310367    -0.000007612347     0.000037419508
       5        0.000145278177     0.000109955681     0.004328614541
       6       -0.000432509422     0.001573536036    -0.002875956085
       7        0.000007464104    -0.000011059855    -0.000019422503
       8        0.000011004314    -0.000011024098    -0.000016043887
       9       -0.000005537565    -0.000003894906    -0.000002016146
      10       -0.000016625924    -0.000004129986    -0.000018576984
      11        0.000004939546     0.000001193195     0.000001456626
      12       -0.000007589950     0.000010976993    -0.000014704346
      13        0.000003256588    -0.000010367226     0.000026204335
      14       -0.000008033129    -0.000005900299     0.000004134189
      15        0.000002351558     0.000010499703    -0.000003128354
      16        0.000015270939     0.000011443057    -0.000003742453
      17       -0.000015574169    -0.000010162029     0.000000936220
      18        0.000008130914     0.000006695818     0.000009059742

  **** Optimization is complete! (in 5 steps) ****
    Final optimized geometry and variables:
    Molecular point group: c1

    Geometry (in Angstrom), charge = 0, multiplicity = 1:

    H            2.832727295007     0.139955785718     0.365241193917
    C            2.301879884039     0.505857366930    -0.517149015924
    N            0.887312413360     0.220411818656    -0.462366835534
    H            2.753875182436     0.051925818425    -1.390688133288
    H            2.465105702058     1.574927815063    -0.548687022664
    C            0.102125820464     1.238872245359     0.199596325857
    C            0.594738688182    -1.099976914215     0.046233660220
    H            0.377045657803     1.345472233739     1.254110866427
    H            0.275284224292     2.193009567838    -0.283313518774
    C           -1.372139395962     0.892746501653     0.106505059158
    H            1.130844429656    -1.836537245883    -0.542079951935
    H            0.921083348592    -1.208167645990     1.085450740861
    C           -0.894548570468    -1.374058335455    -0.038826852315
    H           -1.962867821031     1.590524469358     0.683534446595
    H           -1.691802526225     0.946364713367    -0.932404696479
    O           -1.626575446895    -0.382034124362     0.617744761374
    H           -1.135498073003    -2.314556127779     0.436825566660
    H           -1.195964623518    -1.428301977376    -1.083043982783

  Mulliken Charges: (a.u.)
   Center  Symbol    Alpha    Beta     Spin     Total
       1     H     0.46823  0.46823  0.00000  0.06353
       2     C     3.09334  3.09334  0.00000 -0.18668
       3     N     3.61752  3.61752  0.00000 -0.23503
       4     H     0.44931  0.44931  0.00000  0.10138
       5     H     0.45422  0.45422  0.00000  0.09156
       6     C     3.03893  3.03893  0.00000 -0.07786
       7     C     3.04064  3.04064  0.00000 -0.08128
       8     H     0.47033  0.47033  0.00000  0.05933
       9     H     0.45414  0.45414  0.00000  0.09172
      10     C     2.98409  2.98409  0.00000  0.03182
      11     H     0.45448  0.45448  0.00000  0.09103
      12     H     0.46863  0.46863  0.00000  0.06274
      13     C     2.98359  2.98359  0.00000  0.03282
      14     H     0.44992  0.44992  0.00000  0.10015
      15     H     0.46813  0.46813  0.00000  0.06373
      16     O     4.18649  4.18649  0.00000 -0.37299
      17     H     0.45001  0.45001  0.00000  0.09998
      18     H     0.46798  0.46798  0.00000  0.06403

   Total alpha = 28.00000, Total beta = 28.00000, Total charge = -0.00000

*** Psi4 exiting successfully. Buy a developer a beer!
