  ==> Input File <==

--------------------------------------------------------------------------
set {
	reference rhf
	basis 6-31G*
}

set_num_threads( 1 )
memory 2 gb

molecule MOL {
0 1

O	 -0.988096	 -1.408613	 0.050699
C	 -0.676749	 -0.249230	 -0.009274
C	 -1.746085	 0.827156	 -0.009539
N	 0.623947	 0.147590	 -0.102813
H	 -1.701500	 1.431508	 -0.908902
H	 -2.703425	 0.330732	 0.036390
H	 -1.647323	 1.487769	 0.845106
C	 1.356676	 0.419594	 1.118251
C	 1.232298	 0.650186	 -1.315064
H	 2.377770	 0.070115	 1.012186
H	 0.887218	 -0.092918	 1.939763
H	 1.380175	 1.485199	 1.335860
H	 2.282860	 0.384993	 -1.320558
H	 0.782146	 0.217282	 -2.194207
H	 1.159609	 1.733859	 -1.387053

	symmetry c1
}
set optking {
	frozen_dihedral = ("
		2 4 8 10
	")
}

ee = energy('scf')
oeprop('DIPOLE', 'QUADRUPOLE', 'MULLIKEN_CHARGES')
f=open( 'psi4out.xyz', 'w' )
f.write( "15  " )
f.write( str(ee) + "\n" )
f.write( MOL.save_string_xyz() )
f.close()
--------------------------------------------------------------------------

    Molecular point group: c1

    Geometry (in Angstrom), charge = 0, multiplicity = 1:

       Center              X                  Y                   Z               Mass
    ------------   -----------------  -----------------  -----------------  -----------------
           O         -0.962437121230    -1.482258938647     0.095063170549    15.994914619560
           C         -0.651090121230    -0.322875938647     0.035090170549    12.000000000000
           C         -1.720426121230     0.753510061353     0.034825170549    12.000000000000
           N          0.649605878770     0.073944061353    -0.058448829451    14.003074004780
           H         -1.675841121230     1.357862061353    -0.864537829451     1.007825032070
           H         -2.677766121230     0.257086061353     0.080754170549     1.007825032070
           H         -1.621664121230     1.414123061353     0.889470170549     1.007825032070
           C          1.382334878770     0.345948061353     1.162615170549    12.000000000000
           C          1.257956878770     0.576540061353    -1.270699829451    12.000000000000
           H          2.403428878770    -0.003530938647     1.056550170549     1.007825032070
           H          0.912876878770    -0.166563938647     1.984127170549     1.007825032070
           H          1.405833878770     1.411553061353     1.380224170549     1.007825032070
           H          2.308518878770     0.311347061353    -1.276193829451     1.007825032070
           H          0.807804878770     0.143636061353    -2.149842829451     1.007825032070
           H          1.185267878770     1.660213061353    -1.342688829451     1.007825032070

  Charge       = 0
  Multiplicity = 1
  Basis Set: 6-31G*
  Basis Set:

    Orbital Energies (a.u.)
    -----------------------

    Doubly Occupied:

       1A    -20.547098     2A    -15.548437     3A    -11.348073
       4A    -11.260486     5A    -11.258339     6A    -11.225048
       7A     -1.397547     8A     -1.236638     9A     -1.006428
      10A     -0.973908    11A     -0.917344    12A     -0.739905
      13A     -0.675549    14A     -0.659966    15A     -0.644171
      16A     -0.601502    17A     -0.581790    18A     -0.580697
      19A     -0.558032    20A     -0.546985    21A     -0.536245
      22A     -0.484033    23A     -0.424312    24A     -0.350660

  @DF-RHF Final Energy:  -285.99323766922049

   => Energetics <=

    Nuclear Repulsion Energy =            251.0660311117288188
    One-Electron Energy =                -885.9119821648167772
    Two-Electron Energy =                 348.8527133838675809
    DFT Exchange-Correlation Energy =       0.0000000000000000
    Empirical Dispersion Energy =           0.0000000000000000
    PCM Polarization Energy =               0.0000000000000000
    EFP Energy =                            0.0000000000000000
    Total Energy =                       -285.9932376692203206

  Mulliken Charges: (a.u.)
   Center  Symbol    Alpha    Beta     Spin     Total
       1     O     4.24946  4.24946  0.00000 -0.49893
       2     C     2.65908  2.65908  0.00000  0.68185
       3     C     3.28512  3.28512  0.00000 -0.57024
       4     N     3.82592  3.82592  0.00000 -0.65183
       5     H     0.40870  0.40870  0.00000  0.18259
       6     H     0.39863  0.39863  0.00000  0.20274
       7     H     0.40854  0.40854  0.00000  0.18293
       8     C     3.13718  3.13718  0.00000 -0.27436
       9     C     3.13612  3.13612  0.00000 -0.27224
      10     H     0.41211  0.41211  0.00000  0.17578
      11     H     0.40665  0.40665  0.00000  0.18669
      12     H     0.42637  0.42637  0.00000  0.14726
      13     H     0.41098  0.41098  0.00000  0.17804
      14     H     0.40835  0.40835  0.00000  0.18330
      15     H     0.42679  0.42679  0.00000  0.14641

   Total alpha = 24.00000, Total beta = 24.00000, Total charge = -0.00000
