  ==> Input File <==

--------------------------------------------------------------------------
set {
	reference rhf
	basis 6-31G*
}

set_num_threads( 4 )
memory 2 gb

molecule MOL {
0 1

H	 -2.798360	 -0.862255	 -0.071053
N	 -1.863561	 -0.715187	 0.256814
C	 -1.344686	 0.554728	 -0.219830
H	 -1.300452	 -1.461917	 -0.101532
C	 0.081427	 0.741154	 0.254071
H	 -1.362155	 0.656231	 -1.305829
H	 -1.952773	 1.354456	 0.191809
O	 0.282132	 2.100496	 0.516739
H	 0.258169	 0.155526	 1.155980
H	 0.770133	 0.399913	 -0.515651
C	 1.584679	 2.428627	 0.881803
H	 1.616930	 3.495039	 1.059064
H	 1.885125	 1.912050	 1.791672
H	 2.292895	 2.180225	 0.094062

	symmetry c1
}
set optking {
	frozen_dihedral = ("
		8 5 3 6
	")
}

ee = optimize('scf')
oeprop('DIPOLE', 'QUADRUPOLE', 'MULLIKEN_CHARGES')
f=open( 'psi4out.xyz', 'w' )
f.write( "14  " )
f.write( str(ee) + "\n" )
f.write( MOL.save_string_xyz() )
f.close()
--------------------------------------------------------------------------

    Molecular point group: c1
  Charge       = 0
  Multiplicity = 1
  Basis Set: 6-31G*
  Basis Set:
  @DF-RHF Final Energy:  -248.11842173120613
    Total Energy =                       -248.1184217312061264
    Molecular point group: c1
  Basis Set: 6-31G*
  Basis Set:
  Basis Set: 6-31G*
  Basis Set:
  @DF-RHF Final Energy:  -248.11903124994268
    Total Energy =                       -248.1190312499426227
  Basis Set: 6-31G*
  Basis Set:
  Basis Set: 6-31G*
  Basis Set:
  @DF-RHF Final Energy:  -248.11915568289817
    Total Energy =                       -248.1191556828982243
  Basis Set: 6-31G*
  Basis Set:
  Basis Set: 6-31G*
  Basis Set:
  @DF-RHF Final Energy:  -248.11916687330736
    Total Energy =                       -248.1191668733074494
  Basis Set: 6-31G*
  Basis Set:
  Basis Set: 6-31G*
  Basis Set:
  @DF-RHF Final Energy:  -248.11916859306612
    Total Energy =                       -248.1191685930658650
  Basis Set: 6-31G*
  Basis Set:
  Basis Set: 6-31G*
  Basis Set:
  @DF-RHF Final Energy:  -248.11916722764823
    Total Energy =                       -248.1191672276479494
  Basis Set: 6-31G*
  Basis Set:
  Charge       = 0
  Multiplicity = 1
  Basis Set: 6-31G*
  Basis Set:

    Orbital Energies (a.u.)
    -----------------------

    Doubly Occupied:

       1A    -20.554129     2A    -15.537519     3A    -11.263949
       4A    -11.263679     5A    -11.241060     6A     -1.378545
       7A     -1.179334     8A     -0.997199     9A     -0.899243
      10A     -0.823682    11A     -0.677857    12A     -0.671631
      13A     -0.644673    14A     -0.620379    15A     -0.605381
      16A     -0.543842    17A     -0.520772    18A     -0.499345
      19A     -0.468367    20A     -0.413172    21A     -0.386937

  @DF-RHF Final Energy:  -248.11916695030911

   => Energetics <=

    Nuclear Repulsion Energy =            190.7405574600333296
    One-Electron Energy =                -715.3380567873075506
    Two-Electron Energy =                 276.4783323769652839
    DFT Exchange-Correlation Energy =       0.0000000000000000
    Empirical Dispersion Energy =           0.0000000000000000
    PCM Polarization Energy =               0.0000000000000000
    EFP Energy =                            0.0000000000000000
    Total Energy =                       -248.1191669503089656
    Molecular point group: c1
  Basis Set: 6-31G*
  Basis Set:

  -Total Gradient:
     Atom            X                  Y                   Z
    ------   -----------------  -----------------  -----------------
       1        0.000108955159    -0.000018767704    -0.000125021397
       2       -0.000107906455     0.000135036955    -0.000090347027
       3       -0.001189134448     0.006041540867     0.001997096302
       4        0.000039399178    -0.000077955690     0.000096209384
       5        0.002053599461    -0.000500028692    -0.005460432553
       6        0.000545474278    -0.004974010139    -0.000410734372
       7        0.000011727575     0.000066869555    -0.000199689143
       8       -0.001331748760    -0.000461599089     0.004108138783
       9        0.000021403344     0.000197626312     0.000135430904
      10       -0.000044627901    -0.000229676367    -0.000010973760
      11       -0.000040101783    -0.000146050910    -0.000004649023
      12       -0.000078979639    -0.000028007742    -0.000025768931
      13        0.000004712823    -0.000001111692     0.000005799647
      14        0.000007227165    -0.000003865666    -0.000015058815

  **** Optimization is complete! (in 7 steps) ****
    Final optimized geometry and variables:
    Molecular point group: c1

    Geometry (in Angstrom), charge = 0, multiplicity = 1:

    H           -2.579323214049    -1.853713472710    -0.302061312189
    N           -1.608694548367    -1.755176261898    -0.075388201624
    C           -1.106882837751    -0.469255169145    -0.549326327632
    H           -1.133846279823    -2.511316493919    -0.532095346484
    C            0.332150249400    -0.260622254032    -0.086466004895
    H           -1.160547562625    -0.389822658891    -1.635246189289
    H           -1.713322920832     0.315677725652    -0.118562171848
    O            0.531606620934     1.100785628813     0.155408468087
    H            0.489135330477    -0.825017256513     0.830029542232
    H            1.043336924766    -0.624119570048    -0.828574835845
    C            1.822033279800     1.422059868897     0.563777291242
    H            1.854717267512     2.489496547074     0.734088909987
    H            2.086575232701     0.909573690732     1.486951058101
    H            2.558027986592     1.164310705326    -0.196033981658

  Mulliken Charges: (a.u.)
   Center  Symbol    Alpha    Beta     Spin     Total
       1     H     0.33045  0.33045  0.00000  0.33910
       2     N     3.92451  3.92451  0.00000 -0.84901
       3     C     3.07713  3.07713  0.00000 -0.15426
       4     H     0.33562  0.33562  0.00000  0.32876
       5     C     2.98751  2.98751  0.00000  0.02499
       6     H     0.42866  0.42866  0.00000  0.14268
       7     H     0.40407  0.40407  0.00000  0.19186
       8     O     4.30711  4.30711  0.00000 -0.61422
       9     H     0.41883  0.41883  0.00000  0.16233
      10     H     0.43445  0.43445  0.00000  0.13110
      11     C     3.07976  3.07976  0.00000 -0.15952
      12     H     0.41217  0.41217  0.00000  0.17565
      13     H     0.42896  0.42896  0.00000  0.14208
      14     H     0.43077  0.43077  0.00000  0.13845

   Total alpha = 21.00000, Total beta = 21.00000, Total charge = -0.00000
