  ==> Input File <==

--------------------------------------------------------------------------
set {
	reference rhf
	basis 6-31G*
}

set_num_threads( 4 )
memory 2 gb

molecule MOL {
0 1

H	 3.155912	 0.966558	 -1.147972
O	 2.223730	 0.831975	 -1.007684
C	 2.077727	 -0.067559	 -0.035091
C	 0.624473	 -0.343591	 0.253101
O	 3.008669	 -0.564869	 0.509928
C	 -0.265902	 0.883932	 0.072916
H	 0.324016	 -1.163849	 -0.390541
H	 0.565024	 -0.726111	 1.268924
C	 -1.728698	 0.646073	 0.462102
H	 -0.209144	 1.219470	 -0.958188
H	 0.135059	 1.692851	 0.673903
C	 -2.482460	 -0.343073	 -0.431425
H	 -2.245265	 1.602650	 0.432430
H	 -1.779332	 0.308348	 1.496285
C	 -3.960546	 -0.461025	 -0.060175
H	 -2.395034	 -0.026811	 -1.468912
H	 -2.024850	 -1.327147	 -0.371646
H	 -4.472726	 -1.168004	 -0.705284
H	 -4.465146	 0.496508	 -0.151489
H	 -4.081218	 -0.800940	 0.964585

	symmetry c1
}
set optking {
	frozen_dihedral = ("
		5 3 4 7
	")
}

ee = optimize('scf')
oeprop('DIPOLE', 'QUADRUPOLE', 'MULLIKEN_CHARGES')
f=open( 'psi4out.xyz', 'w' )
f.write( "20  " )
f.write( str(ee) + "\n" )
f.write( MOL.save_string_xyz() )
f.close()
--------------------------------------------------------------------------

    Molecular point group: c1
  Charge       = 0
  Multiplicity = 1
  Basis Set: 6-31G*
  Basis Set:
  @DF-RHF Final Energy:  -383.94600804132756
    Total Energy =                       -383.9460080413275023
    Molecular point group: c1
  Basis Set: 6-31G*
  Basis Set:
  Basis Set: 6-31G*
  Basis Set:
  @DF-RHF Final Energy:  -383.94497027597328
    Total Energy =                       -383.9449702759732190
  Basis Set: 6-31G*
  Basis Set:
  Basis Set: 6-31G*
  Basis Set:
  @DF-RHF Final Energy:  -383.94631567525965
    Total Energy =                       -383.9463156752592567
  Basis Set: 6-31G*
  Basis Set:
  Basis Set: 6-31G*
  Basis Set:
  @DF-RHF Final Energy:  -383.94668409478675
    Total Energy =                       -383.9466840947866331
  Basis Set: 6-31G*
  Basis Set:
  Basis Set: 6-31G*
  Basis Set:
  @DF-RHF Final Energy:  -383.94667609646427
    Total Energy =                       -383.9466760964641026
  Basis Set: 6-31G*
  Basis Set:
  Basis Set: 6-31G*
  Basis Set:
  @DF-RHF Final Energy:  -383.94668044216496
    Total Energy =                       -383.9466804421652455
  Basis Set: 6-31G*
  Basis Set:
  Basis Set: 6-31G*
  Basis Set:
  @DF-RHF Final Energy:  -383.94669200535355
    Total Energy =                       -383.9466920053534977
  Basis Set: 6-31G*
  Basis Set:
  Charge       = 0
  Multiplicity = 1
  Basis Set: 6-31G*
  Basis Set:

    Orbital Energies (a.u.)
    -----------------------

    Doubly Occupied:

       1A    -20.613907     2A    -20.548192     3A    -11.380614
       4A    -11.239879     5A    -11.228779     6A    -11.223161
       7A    -11.222049     8A    -11.213685     9A     -1.474674
      10A     -1.363910    11A     -1.098660    12A     -1.041809
      13A     -0.960230    14A     -0.862804    15A     -0.825075
      16A     -0.791681    17A     -0.698831    18A     -0.681815
      19A     -0.661030    20A     -0.630856    21A     -0.607973
      22A     -0.591621    23A     -0.575732    24A     -0.551310
      25A     -0.549563    26A     -0.518916    27A     -0.499779
      28A     -0.481767    29A     -0.475880    30A     -0.470406
      31A     -0.457952    32A     -0.434043

  @DF-RHF Final Energy:  -383.94669205923759

   => Energetics <=

    Nuclear Repulsion Energy =            376.5743932393718865
    One-Electron Energy =               -1269.0890038500194805
    Two-Electron Energy =                 508.5679185514102301
    DFT Exchange-Correlation Energy =       0.0000000000000000
    Empirical Dispersion Energy =           0.0000000000000000
    PCM Polarization Energy =               0.0000000000000000
    EFP Energy =                            0.0000000000000000
    Total Energy =                       -383.9466920592374208
    Molecular point group: c1
  Basis Set: 6-31G*
  Basis Set:

  -Total Gradient:
     Atom            X                  Y                   Z
    ------   -----------------  -----------------  -----------------
       1       -0.000003189799    -0.000003278402     0.000005142459
       2       -0.000001975723     0.000026399976    -0.000031363185
       3        0.000066486576     0.000905643427     0.001216470125
       4       -0.000273406198     0.000459025448    -0.001129442424
       5       -0.000020082185    -0.000732591493    -0.000731934356
       6       -0.000005322499     0.000003599514     0.000000543679
       7        0.000228537377    -0.000663097034     0.000670267507
       8        0.000000724330     0.000001008822    -0.000001475113
       9        0.000002224374     0.000000802264    -0.000002294787
      10       -0.000002356679    -0.000000300919     0.000001750775
      11       -0.000003360122     0.000003430681     0.000002585705
      12        0.000003637656    -0.000002298632    -0.000000384859
      13        0.000001554844     0.000000887589    -0.000000765207
      14        0.000003743445    -0.000000978736    -0.000000527338
      15        0.000000095377     0.000002275935     0.000000770525
      16        0.000002528200     0.000000497084     0.000001583888
      17        0.000001835608    -0.000001804079    -0.000000456203
      18        0.000000353092     0.000000160547    -0.000000129960
      19       -0.000001678037     0.000000234492    -0.000000022207
      20       -0.000000349640     0.000000383516    -0.000000319022

  **** Optimization is complete! (in 8 steps) ****
    Final optimized geometry and variables:
    Molecular point group: c1

    Geometry (in Angstrom), charge = 0, multiplicity = 1:

    H            3.275610012879     0.816903146154    -1.072471102660
    O            2.332877574954     0.744397353257    -0.957988076149
    C            2.106207109053    -0.139263243385     0.012266006809
    C            0.639707799315    -0.385801698976     0.264938344460
    O            2.993133477953    -0.694145437426     0.576082861756
    C           -0.265608440076     0.839233919538     0.100391855525
    H            0.348393175938    -1.179967261265    -0.417200719299
    H            0.567014163591    -0.795811576098     1.265032248170
    C           -1.720634286468     0.579263480888     0.505299720123
    H           -0.226364157001     1.185057976297    -0.926835407115
    H            0.125542843207     1.648510610093     0.710955876289
    C           -2.467936700281    -0.418264994245    -0.384154700326
    H           -2.251036467737     1.528526146083     0.483771511234
    H           -1.754365451881     0.237622473101     1.538474796809
    C           -3.941074613251    -0.556482811095    -0.000371081295
    H           -2.393402618697    -0.099275040511    -1.421816665608
    H           -1.996781455466    -1.396075712319    -0.329314922696
    H           -4.448694880554    -1.269967698743    -0.641802568970
    H           -4.459591643188     0.394068857504    -0.086661514930
    H           -4.048270704371    -0.898918382089     1.024973421853

  Mulliken Charges: (a.u.)
   Center  Symbol    Alpha    Beta     Spin     Total
       1     H     0.26737  0.26737  0.00000  0.46525
       2     O     4.34740  4.34740  0.00000 -0.69479
       3     C     2.62453  2.62453  0.00000  0.75093
       4     C     3.21062  3.21062  0.00000 -0.42125
       5     O     4.28199  4.28199  0.00000 -0.56399
       6     C     3.15916  3.15916  0.00000 -0.31833
       7     H     0.39745  0.39745  0.00000  0.20510
       8     H     0.39663  0.39663  0.00000  0.20673
       9     C     3.15512  3.15512  0.00000 -0.31024
      10     H     0.40808  0.40808  0.00000  0.18383
      11     H     0.41451  0.41451  0.00000  0.17098
      12     C     3.15534  3.15534  0.00000 -0.31069
      13     H     0.41804  0.41804  0.00000  0.16391
      14     H     0.42173  0.42173  0.00000  0.15654
      15     C     3.23938  3.23938  0.00000 -0.47876
      16     H     0.42144  0.42144  0.00000  0.15712
      17     H     0.42174  0.42174  0.00000  0.15653
      18     H     0.41795  0.41795  0.00000  0.16410
      19     H     0.42078  0.42078  0.00000  0.15844
      20     H     0.42072  0.42072  0.00000  0.15856

   Total alpha = 32.00000, Total beta = 32.00000, Total charge =  0.00000
