  ==> Input File <==

--------------------------------------------------------------------------
set {
	reference rhf
	basis 6-31G*
}

set_num_threads( 1 )
memory 2 gb

molecule MOL {
0 1

O	 -0.757779	 -0.958886	 1.282891
C	 0.403879	 -1.051462	 1.048286
C	 1.245376	 -0.013843	 0.345420
O	 1.130001	 -2.110441	 1.384355
C	 0.455112	 1.231400	 -0.050772
H	 2.074439	 0.222950	 1.004035
H	 1.685735	 -0.491420	 -0.526189
C	 -0.998893	 1.219485	 0.433193
H	 0.482531	 1.345121	 -1.130325
H	 0.957290	 2.103070	 0.354729
C	 -1.883438	 0.145884	 -0.207175
H	 -1.431207	 2.195402	 0.224832
H	 -1.019646	 1.105716	 1.516076
C	 -3.347647	 0.245583	 0.225435
H	 -1.822183	 0.231698	 -1.291012
H	 -1.510341	 -0.844814	 0.042401
C	 -4.239992	 -0.825570	 -0.404234
H	 -3.732888	 1.230466	 -0.033079
H	 -3.408585	 0.170602	 1.310038
C	 -5.701275	 -0.716658	 0.029921
H	 -4.179496	 -0.752714	 -1.488058
H	 -3.859041	 -1.810759	 -0.143352
H	 -6.308102	 -1.488908	 -0.432678
H	 -6.122175	 0.245478	 -0.248167
H	 -5.799072	 -0.820114	 1.106957
C	 0.459296	 -3.163838	 2.051733
H	 0.039642	 -2.816376	 2.984827
H	 1.206827	 -3.919558	 2.236371
H	 -0.331819	 -3.562905	 1.433332

	symmetry c1
}
set optking {
	frozen_dihedral = ("
		21 17 14 11,
		17 14 11 15,
		15 11 8 5,
		11 8 5 9,
		2 4 26 27,
		1 2 4 26,
		6 3 2 1
	")
}

ee = energy('scf')
oeprop('DIPOLE', 'QUADRUPOLE', 'MULLIKEN_CHARGES')
f=open( 'psi4out.xyz', 'w' )
f.write( "29  " )
f.write( str(ee) + "\n" )
f.write( MOL.save_string_xyz() )
f.close()
--------------------------------------------------------------------------

    Molecular point group: c1

    Geometry (in Angstrom), charge = 0, multiplicity = 1:

       Center              X                  Y                   Z               Mass
    ------------   -----------------  -----------------  -----------------  -----------------
           O          0.448022766202    -0.377349051000     0.705527080853    15.994914619560
           C          1.609680766202    -0.469925051000     0.470922080853    12.000000000000
           C          2.451177766202     0.567693949000    -0.231943919147    12.000000000000
           O          2.335802766202    -1.528904051000     0.806991080853    15.994914619560
           C          1.660913766202     1.812936949000    -0.628135919147    12.000000000000
           H          3.280240766202     0.804486949000     0.426671080853     1.007825032070
           H          2.891536766202     0.090116949000    -1.103552919147     1.007825032070
           C          0.206908766202     1.801021949000    -0.144170919147    12.000000000000
           H          1.688332766202     1.926657949000    -1.707688919147     1.007825032070
           H          2.163091766202     2.684606949000    -0.222634919147     1.007825032070
           C         -0.677636233798     0.727420949000    -0.784538919147    12.000000000000
           H         -0.225405233798     2.776938949000    -0.352531919147     1.007825032070
           H          0.186155766202     1.687252949000     0.938712080853     1.007825032070
           C         -2.141845233798     0.827119949000    -0.351928919147    12.000000000000
           H         -0.616381233798     0.813234949000    -1.868375919147     1.007825032070
           H         -0.304539233798    -0.263277051000    -0.534962919147     1.007825032070
           C         -3.034190233798    -0.244033051000    -0.981597919147    12.000000000000
           H         -2.527086233798     1.812002949000    -0.610442919147     1.007825032070
           H         -2.202783233798     0.752138949000     0.732674080853     1.007825032070
           C         -4.495473233798    -0.135121051000    -0.547442919147    12.000000000000
           H         -2.973694233798    -0.171177051000    -2.065421919147     1.007825032070
           H         -2.653239233798    -1.229222051000    -0.720715919147     1.007825032070
           H         -5.102300233798    -0.907371051000    -1.010041919147     1.007825032070
           H         -4.916373233798     0.827014949000    -0.825530919147     1.007825032070
           H         -4.593270233798    -0.238577051000     0.529593080853     1.007825032070
           C          1.665097766202    -2.582301051000     1.474369080853    12.000000000000
           H          1.245443766202    -2.234839051000     2.407463080853     1.007825032070
           H          2.412628766202    -3.338021051000     1.659007080853     1.007825032070
           H          0.873982766202    -2.981368051000     0.855968080853     1.007825032070

  Charge       = 0
  Multiplicity = 1
  Basis Set: 6-31G*
  Basis Set:

    Orbital Energies (a.u.)
    -----------------------

    Doubly Occupied:

       1A    -20.609309     2A    -20.548577     3A    -11.379278
       4A    -11.286051     5A    -11.239398     6A    -11.218678
       7A    -11.199087     8A    -11.196382     9A    -11.195136
      10A    -11.190957    11A    -11.167474    12A     -1.482136
      13A     -1.384131    14A     -1.086927    15A     -1.056549
      16A     -1.014145    17A     -0.971069    18A     -0.918705
      19A     -0.854426    20A     -0.806938    21A     -0.782973
      22A     -0.761302    23A     -0.710295    24A     -0.694197
      25A     -0.683666    26A     -0.638857    27A     -0.628361
      28A     -0.609558    29A     -0.580453    30A     -0.572587
      31A     -0.556576    32A     -0.539763    33A     -0.536229
      34A     -0.530478    35A     -0.514888    36A     -0.497777
      37A     -0.494327    38A     -0.482752    39A     -0.462406
      40A     -0.455488    41A     -0.439117    42A     -0.436188
      43A     -0.413173    44A     -0.372963

  @DF-RHF Final Energy:  -500.94935631492228

   => Energetics <=

    Nuclear Repulsion Energy =            666.1895455114439528
    One-Electron Energy =               -2003.8783801713052526
    Two-Electron Energy =                 836.7394783449421993
    DFT Exchange-Correlation Energy =       0.0000000000000000
    Empirical Dispersion Energy =           0.0000000000000000
    PCM Polarization Energy =               0.0000000000000000
    EFP Energy =                            0.0000000000000000
    Total Energy =                       -500.9493563149189868

  Mulliken Charges: (a.u.)
   Center  Symbol    Alpha    Beta     Spin     Total
       1     O     4.28940  4.28940  0.00000 -0.57881
       2     C     2.60538  2.60538  0.00000  0.78924
       3     C     3.21007  3.21007  0.00000 -0.42014
       4     O     4.30547  4.30547  0.00000 -0.61095
       5     C     3.15867  3.15867  0.00000 -0.31733
       6     H     0.39470  0.39470  0.00000  0.21060
       7     H     0.39501  0.39501  0.00000  0.20998
       8     C     3.15773  3.15773  0.00000 -0.31546
       9     H     0.41583  0.41583  0.00000  0.16834
      10     H     0.41605  0.41605  0.00000  0.16789
      11     C     3.15628  3.15628  0.00000 -0.31255
      12     H     0.42609  0.42609  0.00000  0.14782
      13     H     0.41424  0.41424  0.00000  0.17151
      14     C     3.14453  3.14453  0.00000 -0.28907
      15     H     0.44390  0.44390  0.00000  0.11220
      16     H     0.38309  0.38309  0.00000  0.23382
      17     C     3.14960  3.14960  0.00000 -0.29920
      18     H     0.42997  0.42997  0.00000  0.14006
      19     H     0.42582  0.42582  0.00000  0.14835
      20     C     3.23835  3.23835  0.00000 -0.47669
      21     H     0.42587  0.42587  0.00000  0.14825
      22     H     0.42546  0.42546  0.00000  0.14909
      23     H     0.42301  0.42301  0.00000  0.15398
      24     H     0.42339  0.42339  0.00000  0.15323
      25     H     0.42334  0.42334  0.00000  0.15332
      26     C     3.09331  3.09331  0.00000 -0.18661
      27     H     0.40884  0.40884  0.00000  0.18232
      28     H     0.40668  0.40668  0.00000  0.18664
      29     H     0.40991  0.40991  0.00000  0.18018

   Total alpha = 44.00000, Total beta = 44.00000, Total charge =  0.00000
