  ==> Input File <==

--------------------------------------------------------------------------
set {
	reference rhf
	basis 6-31G*
}

set_num_threads( 1 )
memory 2 gb

molecule MOL {
0 1

H	 1.136379	 0.211822	 1.465562
C	 1.135357	 0.094285	 0.374742
C	 0.065331	 0.871482	 -0.349150
O	 1.941633	 -0.601957	 -0.151457
C	 0.617402	 2.129896	 -1.034053
H	 -0.717571	 1.116782	 0.359233
H	 -0.359354	 0.209801	 -1.102795
C	 1.113065	 3.187278	 -0.046791
H	 -0.164135	 2.553959	 -1.656453
H	 1.423737	 1.849936	 -1.708654
H	 0.313350	 3.506510	 0.614324
H	 1.481688	 4.062599	 -0.571431
H	 1.920492	 2.811181	 0.574500

	symmetry c1
}
set optking {
	frozen_dihedral = ("
		6 3 5 9
	")
}

ee = energy('scf')
oeprop('DIPOLE', 'QUADRUPOLE', 'MULLIKEN_CHARGES')
f=open( 'psi4out.xyz', 'w' )
f.write( "13  " )
f.write( str(ee) + "\n" )
f.write( MOL.save_string_xyz() )
f.close()
--------------------------------------------------------------------------

    Molecular point group: c1

    Geometry (in Angstrom), charge = 0, multiplicity = 1:

       Center              X                  Y                   Z               Mass
    ------------   -----------------  -----------------  -----------------  -----------------
           H          0.146834800800    -0.929174273767     1.703248951736     1.007825032070
           C          0.145812800800    -1.046711273767     0.612428951736    12.000000000000
           C         -0.924213199200    -0.269514273767    -0.111463048264    12.000000000000
           O          0.952088800800    -1.742953273767     0.086229951736    15.994914619560
           C         -0.372142199200     0.988899726233    -0.796366048264    12.000000000000
           H         -1.707115199200    -0.024214273767     0.596919951736     1.007825032070
           H         -1.348898199200    -0.931195273767    -0.865108048264     1.007825032070
           C          0.123520800800     2.046281726233     0.190895951736    12.000000000000
           H         -1.153679199200     1.412962726233    -1.418766048264     1.007825032070
           H          0.434192800800     0.708939726233    -1.470967048264     1.007825032070
           H         -0.676194199200     2.365513726233     0.852010951736     1.007825032070
           H          0.492143800800     2.921602726233    -0.333744048264     1.007825032070
           H          0.930947800800     1.670184726233     0.812186951736     1.007825032070

  Charge       = 0
  Multiplicity = 1
  Basis Set: 6-31G*
  Basis Set:

    Orbital Energies (a.u.)
    -----------------------

    Doubly Occupied:

       1A    -20.563477     2A    -11.326850     3A    -11.236531
       4A    -11.235206     5A    -11.222637     6A     -1.403421
       7A     -1.084430     8A     -0.973568     9A     -0.855033
      10A     -0.773073    11A     -0.683763    12A     -0.643055
      13A     -0.616310    14A     -0.597460    15A     -0.561011
      16A     -0.535462    17A     -0.505986    18A     -0.491818
      19A     -0.479161    20A     -0.408993

  @DF-RHF Final Energy:  -230.98249078854053

   => Energetics <=

    Nuclear Repulsion Energy =            174.3608073437238772
    One-Electron Energy =                -658.2918346983907441
    Two-Electron Energy =                 252.9485365661265064
    DFT Exchange-Correlation Energy =       0.0000000000000000
    Empirical Dispersion Energy =           0.0000000000000000
    PCM Polarization Energy =               0.0000000000000000
    EFP Energy =                            0.0000000000000000
    Total Energy =                       -230.9824907885403604

  Mulliken Charges: (a.u.)
   Center  Symbol    Alpha    Beta     Spin     Total
       1     H     0.42991  0.42991  0.00000  0.14018
       2     C     2.84088  2.84088  0.00000  0.31823
       3     C     3.20193  3.20193  0.00000 -0.40387
       4     O     4.23648  4.23648  0.00000 -0.47296
       5     C     3.15964  3.15964  0.00000 -0.31928
       6     H     0.41577  0.41577  0.00000  0.16846
       7     H     0.39950  0.39950  0.00000  0.20100
       8     C     3.24508  3.24508  0.00000 -0.49016
       9     H     0.41350  0.41350  0.00000  0.17301
      10     H     0.40613  0.40613  0.00000  0.18775
      11     H     0.41998  0.41998  0.00000  0.16005
      12     H     0.41330  0.41330  0.00000  0.17341
      13     H     0.41790  0.41790  0.00000  0.16419

   Total alpha = 20.00000, Total beta = 20.00000, Total charge = -0.00000
