  ==> Input File <==

--------------------------------------------------------------------------
set {
	reference rhf
	basis 6-31G*
}

set_num_threads( 1 )
memory 2 gb

molecule MOL {
0 1

H	 -1.215050	 4.312070	 -0.239230
O	 -0.528705	 3.709505	 -0.487726
C	 -0.765190	 2.455945	 0.099857
C	 0.352047	 1.517040	 -0.319650
H	 -0.793140	 2.540808	 1.185364
H	 -1.726909	 2.057760	 -0.220900
C	 0.198102	 0.111031	 0.262842
H	 1.298214	 1.950338	 -0.007002
H	 0.372339	 1.473241	 -1.405075
C	 1.331804	 -0.827780	 -0.158768
H	 0.155409	 0.176204	 1.347325
H	 -0.753023	 -0.312840	 -0.056864
C	 2.723619	 -0.410569	 0.329459
H	 1.342964	 -0.912588	 -1.244120
H	 1.116806	 -1.824343	 0.220779
C	 3.243875	 0.895854	 -0.272975
H	 3.424222	 -1.207124	 0.091250
H	 2.714788	 -0.329854	 1.414619
H	 3.251977	 0.848779	 -1.358681
H	 2.637085	 1.747371	 0.016682
H	 4.259473	 1.094070	 0.055697

	symmetry c1
}
set optking {
	frozen_dihedral = ("
		2 3 4 8,
		8 4 7 10,
		16 13 10 14,
		1 2 3 5
	")
}

ee = energy('scf')
oeprop('DIPOLE', 'QUADRUPOLE', 'MULLIKEN_CHARGES')
f=open( 'psi4out.xyz', 'w' )
f.write( "21  " )
f.write( str(ee) + "\n" )
f.write( MOL.save_string_xyz() )
f.close()
--------------------------------------------------------------------------

    Molecular point group: c1

    Geometry (in Angstrom), charge = 0, multiplicity = 1:

       Center              X                  Y                   Z               Mass
    ------------   -----------------  -----------------  -----------------  -----------------
           H         -2.123585336408     3.176603115615    -0.153889188029     1.007825032070
           O         -1.437240336408     2.574038115615    -0.402385188029    15.994914619560
           C         -1.673725336408     1.320478115615     0.185197811971    12.000000000000
           C         -0.556488336408     0.381573115615    -0.234309188029    12.000000000000
           H         -1.701675336408     1.405341115615     1.270704811971     1.007825032070
           H         -2.635444336408     0.922293115615    -0.135559188029     1.007825032070
           C         -0.710433336408    -1.024435884385     0.348182811971    12.000000000000
           H          0.389678663592     0.814871115615     0.078338811971     1.007825032070
           H         -0.536196336408     0.337774115615    -1.319734188029     1.007825032070
           C          0.423268663592    -1.963246884385    -0.073427188029    12.000000000000
           H         -0.753126336408    -0.959262884385     1.432665811971     1.007825032070
           H         -1.661558336408    -1.448306884385     0.028476811971     1.007825032070
           C          1.815083663592    -1.546035884385     0.414799811971    12.000000000000
           H          0.434428663592    -2.048054884385    -1.158779188029     1.007825032070
           H          0.208270663592    -2.959809884385     0.306119811971     1.007825032070
           C          2.335339663592    -0.239612884385    -0.187634188029    12.000000000000
           H          2.515686663592    -2.342590884385     0.176590811971     1.007825032070
           H          1.806252663592    -1.465320884385     1.499959811971     1.007825032070
           H          2.343441663592    -0.286687884385    -1.273340188029     1.007825032070
           H          1.728549663592     0.611904115615     0.102022811971     1.007825032070
           H          3.350937663592    -0.041396884385     0.141037811971     1.007825032070

  Charge       = 0
  Multiplicity = 1
  Basis Set: 6-31G*
  Basis Set:

    Orbital Energies (a.u.)
    -----------------------

    Doubly Occupied:

       1A    -20.551129     2A    -11.264890     3A    -11.215806
       4A    -11.214400     5A    -11.213615     6A    -11.204313
       7A    -11.201336     8A     -1.357755     9A     -1.090316
      10A     -1.025041    11A     -0.960166    12A     -0.878422
      13A     -0.804670    14A     -0.778557    15A     -0.690416
      16A     -0.668646    17A     -0.624322    18A     -0.609601
      19A     -0.585131    20A     -0.558181    21A     -0.546378
      22A     -0.534238    23A     -0.497401    24A     -0.494461
      25A     -0.475532    26A     -0.461172    27A     -0.449179
      28A     -0.435928    29A     -0.421998

  @DF-RHF Final Energy:  -310.18882704390734

   => Energetics <=

    Nuclear Repulsion Energy =            325.0508421468444453
    One-Electron Energy =               -1064.8533862666874938
    Two-Electron Energy =                 429.6137170759349715
    DFT Exchange-Correlation Energy =       0.0000000000000000
    Empirical Dispersion Energy =           0.0000000000000000
    PCM Polarization Energy =               0.0000000000000000
    EFP Energy =                            0.0000000000000000
    Total Energy =                       -310.1888270439081339

  Mulliken Charges: (a.u.)
   Center  Symbol    Alpha    Beta     Spin     Total
       1     H     0.28128  0.28128  0.00000  0.43744
       2     O     4.37214  4.37214  0.00000 -0.74427
       3     C     2.98747  2.98747  0.00000  0.02506
       4     C     3.16073  3.16073  0.00000 -0.32146
       5     H     0.43420  0.43420  0.00000  0.13159
       6     H     0.43362  0.43362  0.00000  0.13276
       7     C     3.15983  3.15983  0.00000 -0.31966
       8     H     0.41682  0.41682  0.00000  0.16636
       9     H     0.41533  0.41533  0.00000  0.16933
      10     C     3.15434  3.15434  0.00000 -0.30869
      11     H     0.42407  0.42407  0.00000  0.15186
      12     H     0.42129  0.42129  0.00000  0.15742
      13     C     3.15348  3.15348  0.00000 -0.30696
      14     H     0.42302  0.42302  0.00000  0.15397
      15     H     0.42056  0.42056  0.00000  0.15888
      16     C     3.24254  3.24254  0.00000 -0.48507
      17     H     0.41969  0.41969  0.00000  0.16062
      18     H     0.42370  0.42370  0.00000  0.15261
      19     H     0.42062  0.42062  0.00000  0.15877
      20     H     0.41507  0.41507  0.00000  0.16985
      21     H     0.42020  0.42020  0.00000  0.15960

   Total alpha = 29.00000, Total beta = 29.00000, Total charge = -0.00000
