  ==> Input File <==

--------------------------------------------------------------------------
set {
	reference rhf
	basis 6-31G*
}

set_num_threads( 1 )
memory 2 gb

molecule MOL {
0 1

O	 -2.042549	 -1.228399	 -0.269030
C	 -1.653912	 -0.146171	 0.050137
C	 -0.332303	 0.024011	 0.778412
C	 -2.438579	 1.106236	 -0.272369
C	 -0.146316	 -1.069992	 1.841633
H	 0.495849	 0.001191	 0.075542
H	 -0.343425	 0.996936	 1.257178
C	 1.160692	 -0.917522	 2.621064
H	 -0.169397	 -2.050320	 1.368868
H	 -0.988838	 -1.034587	 2.525771
C	 1.344024	 -1.998899	 3.685123
H	 1.999657	 -0.944568	 1.929087
H	 1.183673	 0.062034	 3.092772
H	 1.359357	 -2.989592	 3.239764
H	 0.536287	 -1.975203	 4.410687
H	 2.276791	 -1.864044	 4.223441
H	 -3.277823	 0.863061	 -0.908988
H	 -1.806773	 1.843019	 -0.759671
H	 -2.802853	 1.554979	 0.648059

	symmetry c1
}
set optking {
	frozen_dihedral = ("
		11 8 5 9,
		9 5 3 2
	")
}

ee = energy('scf')
oeprop('DIPOLE', 'QUADRUPOLE', 'MULLIKEN_CHARGES')
f=open( 'psi4out.xyz', 'w' )
f.write( "19  " )
f.write( str(ee) + "\n" )
f.write( MOL.save_string_xyz() )
f.close()
--------------------------------------------------------------------------

    Molecular point group: c1

    Geometry (in Angstrom), charge = 0, multiplicity = 1:

       Center              X                  Y                   Z               Mass
    ------------   -----------------  -----------------  -----------------  -----------------
           O         -1.452906183204    -0.616376537159    -1.482077890836    15.994914619560
           C         -1.064269183204     0.465851462841    -1.162910890836    12.000000000000
           C          0.257339816796     0.636033462841    -0.434635890836    12.000000000000
           C         -1.848936183204     1.718258462841    -1.485416890836    12.000000000000
           C          0.443326816796    -0.457969537159     0.628585109164    12.000000000000
           H          1.085491816796     0.613213462841    -1.137505890836     1.007825032070
           H          0.246217816796     1.608958462841     0.044130109164     1.007825032070
           C          1.750334816796    -0.305499537159     1.408016109164    12.000000000000
           H          0.420245816796    -1.438297537159     0.155820109164     1.007825032070
           H         -0.399195183204    -0.422564537159     1.312723109164     1.007825032070
           C          1.933666816796    -1.386876537159     2.472075109164    12.000000000000
           H          2.589299816796    -0.332545537159     0.716039109164     1.007825032070
           H          1.773315816796     0.674056462841     1.879724109164     1.007825032070
           H          1.948999816796    -2.377569537159     2.026716109164     1.007825032070
           H          1.125929816796    -1.363180537159     3.197639109164     1.007825032070
           H          2.866433816796    -1.252021537159     3.010393109164     1.007825032070
           H         -2.688180183204     1.475083462841    -2.122035890836     1.007825032070
           H         -1.217130183204     2.455041462841    -1.972718890836     1.007825032070
           H         -2.213210183204     2.167001462841    -0.564988890836     1.007825032070

  Charge       = 0
  Multiplicity = 1
  Basis Set: 6-31G*
  Basis Set:

    Orbital Energies (a.u.)
    -----------------------

    Doubly Occupied:

       1A    -20.548592     2A    -11.325608     3A    -11.230651
       4A    -11.229223     5A    -11.220921     6A    -11.219805
       7A    -11.210965     8A     -1.394619     9A     -1.085945
      10A     -1.029091    11A     -0.983950    12A     -0.886239
      13A     -0.801183    14A     -0.731967    15A     -0.659187
      16A     -0.649055    17A     -0.623761    18A     -0.610944
      19A     -0.580763    20A     -0.572440    21A     -0.553830
      22A     -0.532039    23A     -0.513306    24A     -0.491467
      25A     -0.475743    26A     -0.472101    27A     -0.465683
      28A     -0.398791

  @DF-RHF Final Energy:  -309.06485750034574

   => Energetics <=

    Nuclear Repulsion Energy =            301.2533107733296447
    One-Electron Energy =               -1015.6407078803659942
    Two-Electron Energy =                 405.3225396066910093
    DFT Exchange-Correlation Energy =       0.0000000000000000
    Empirical Dispersion Energy =           0.0000000000000000
    PCM Polarization Energy =               0.0000000000000000
    EFP Energy =                            0.0000000000000000
    Total Energy =                       -309.0648575003453402

  Mulliken Charges: (a.u.)
   Center  Symbol    Alpha    Beta     Spin     Total
       1     O     4.26222  4.26222  0.00000 -0.52443
       2     C     2.73509  2.73509  0.00000  0.52982
       3     C     3.20654  3.20654  0.00000 -0.41308
       4     C     3.28897  3.28897  0.00000 -0.57795
       5     C     3.15338  3.15338  0.00000 -0.30676
       6     H     0.40152  0.40152  0.00000  0.19696
       7     H     0.41653  0.41653  0.00000  0.16695
       8     C     3.15254  3.15254  0.00000 -0.30509
       9     H     0.40452  0.40452  0.00000  0.19095
      10     H     0.42019  0.42019  0.00000  0.15962
      11     C     3.23957  3.23957  0.00000 -0.47914
      12     H     0.42255  0.42255  0.00000  0.15490
      13     H     0.42433  0.42433  0.00000  0.15133
      14     H     0.41928  0.41928  0.00000  0.16143
      15     H     0.42087  0.42087  0.00000  0.15827
      16     H     0.41887  0.41887  0.00000  0.16227
      17     H     0.39688  0.39688  0.00000  0.20623
      18     H     0.40894  0.40894  0.00000  0.18211
      19     H     0.40720  0.40720  0.00000  0.18561

   Total alpha = 28.00000, Total beta = 28.00000, Total charge = -0.00000
