  ==> Input File <==

--------------------------------------------------------------------------
set {
	reference rhf
	basis 6-31G*
}

set_num_threads( 4 )
memory 2 gb

molecule MOL {
0 1

H	 -3.833986	 -2.149606	 0.631950
C	 -2.763329	 -2.049366	 0.652692
C	 -2.005057	 -2.895844	 1.447455
C	 -2.146191	 -1.074436	 -0.115152
H	 -2.484930	 -3.651522	 2.042467
C	 -0.628457	 -2.766344	 1.473601
H	 -2.735624	 -0.419173	 -0.730623
C	 -0.768336	 -0.942962	 -0.090558
H	 -0.025816	 -3.412523	 2.082656
C	 -0.005551	 -1.789782	 0.704941
H	 -0.286579	 -0.189919	 -0.683142
C	 1.480042	 -1.691730	 0.768609
O	 1.970282	 -0.730723	 0.000018
O	 2.165661	 -2.399272	 1.438064
C	 3.377318	 -0.566646	 -0.000065
H	 3.695437	 -0.028981	 -0.881264
H	 3.789299	 -1.563704	 0.000236
H	 3.695516	 -0.028316	 0.880770

	symmetry c1
}
set optking {
	frozen_dihedral = ("
		12 13 15 16
	")
}

ee = optimize('scf')
oeprop('DIPOLE', 'QUADRUPOLE', 'MULLIKEN_CHARGES')
f=open( 'psi4out.xyz', 'w' )
f.write( "18  " )
f.write( str(ee) + "\n" )
f.write( MOL.save_string_xyz() )
f.close()
--------------------------------------------------------------------------

    Molecular point group: c1
  Charge       = 0
  Multiplicity = 1
  Basis Set: 6-31G*
  Basis Set:
  @DF-RHF Final Energy:  -457.34832322889315
    Total Energy =                       -457.3483232288936051
    Molecular point group: c1
  Basis Set: 6-31G*
  Basis Set:
  Basis Set: 6-31G*
  Basis Set:
  @DF-RHF Final Energy:  -457.34963764601662
    Total Energy =                       -457.3496376460163901
  Basis Set: 6-31G*
  Basis Set:
  Basis Set: 6-31G*
  Basis Set:
  @DF-RHF Final Energy:  -457.35000720555468
    Total Energy =                       -457.3500072055547889
  Basis Set: 6-31G*
  Basis Set:
  Basis Set: 6-31G*
  Basis Set:
  @DF-RHF Final Energy:  -457.34908771904588
    Total Energy =                       -457.3490877190458832
  Basis Set: 6-31G*
  Basis Set:
  Basis Set: 6-31G*
  Basis Set:
  @DF-RHF Final Energy:  -457.35003943199456
    Total Energy =                       -457.3500394319944462
  Basis Set: 6-31G*
  Basis Set:
  Basis Set: 6-31G*
  Basis Set:
  @DF-RHF Final Energy:  -457.35004097467908
    Total Energy =                       -457.3500409746786772
  Basis Set: 6-31G*
  Basis Set:
  Charge       = 0
  Multiplicity = 1
  Basis Set: 6-31G*
  Basis Set:

    Orbital Energies (a.u.)
    -----------------------

    Doubly Occupied:

       1A    -20.607397     2A    -20.544195     3A    -11.378293
       4A    -11.282623     5A    -11.245420     6A    -11.245150
       7A    -11.243977     8A    -11.241545     9A    -11.237330
      10A    -11.236567    11A     -1.472028    12A     -1.364059
      13A     -1.165119    14A     -1.047998    15A     -1.024657
      16A     -0.978529    17A     -0.860049    18A     -0.834163
      19A     -0.777588    20A     -0.739851    21A     -0.683451
      22A     -0.676971    23A     -0.671748    24A     -0.631059
      25A     -0.623805    26A     -0.597639    27A     -0.584710
      28A     -0.563289    29A     -0.527456    30A     -0.516468
      31A     -0.503528    32A     -0.498685    33A     -0.458557
      34A     -0.444271    35A     -0.344754    36A     -0.340834

  @DF-RHF Final Energy:  -457.35004159912529

   => Energetics <=

    Nuclear Repulsion Energy =            492.8768298853714782
    One-Electron Energy =               -1600.0662156211947149
    Two-Electron Energy =                 649.8393441366981733
    DFT Exchange-Correlation Energy =       0.0000000000000000
    Empirical Dispersion Energy =           0.0000000000000000
    PCM Polarization Energy =               0.0000000000000000
    EFP Energy =                            0.0000000000000000
    Total Energy =                       -457.3500415991250065
    Molecular point group: c1
  Basis Set: 6-31G*
  Basis Set:

  -Total Gradient:
     Atom            X                  Y                   Z
    ------   -----------------  -----------------  -----------------
       1       -0.000000117837     0.000000284622     0.000000122831
       2       -0.000000935235    -0.000003477525     0.000002661371
       3       -0.000005723883     0.000000309590    -0.000001869272
       4        0.000002279479     0.000000038374     0.000000127480
       5       -0.000000457662    -0.000000231729    -0.000000405326
       6        0.000003241061     0.000003118602    -0.000001812405
       7       -0.000000466926     0.000000137014     0.000000490835
       8       -0.000001833526     0.000001281312    -0.000001212108
       9       -0.000000265304     0.000000168656     0.000000325167
      10       -0.000007871259    -0.000001055193     0.000004167208
      11       -0.000000822743    -0.000001103137     0.000000929803
      12        0.000078631938    -0.000909272367    -0.001085248356
      13       -0.000062168635     0.001001968977     0.001384334876
      14        0.000001609794     0.000012775835    -0.000007706208
      15       -0.000130537383     0.001288242601     0.000511630240
      16        0.000127179957    -0.001375168855    -0.000799121809
      17        0.000003668436    -0.000014732463     0.000001079201
      18       -0.000005410282    -0.000003284316    -0.000008493528

  **** Optimization is complete! (in 7 steps) ****
    Final optimized geometry and variables:
    Molecular point group: c1

    Geometry (in Angstrom), charge = 0, multiplicity = 1:

    H           -4.028743998220    -0.474165456113    -0.011107333473
    C           -2.958085742012    -0.376018961634     0.016579380749
    C           -2.206489451457    -1.224559297798     0.815512151748
    C           -2.334222640743     0.598403074606    -0.746396777835
    H           -2.691540244075    -1.979801954161     1.406935225453
    C           -0.829912940995    -1.097587277808     0.850719254067
    H           -2.918487115439     1.255330921967    -1.364993171464
    C           -0.956287052746     0.727181651456    -0.712856869440
    H           -0.232584060311    -1.745361548970     1.463227729332
    C           -0.200089875930    -0.121747219179     0.086718812884
    H           -0.469644601820     1.480087176893    -1.301505831932
    C            1.285710390293    -0.027417397329     0.160083902508
    O            1.779736583280     0.938421217408    -0.600166679149
    O            1.963666070481    -0.740769191656     0.831135341402
    C            3.187761993214     1.093827846276    -0.630733871144
    H            3.406523240980     1.647287403352    -1.530790938486
    H            3.676477190849     0.132732143615    -0.657818596746
    H            3.519928000791     1.642151564771     0.239958576864

  Mulliken Charges: (a.u.)
   Center  Symbol    Alpha    Beta     Spin     Total
       1     H     0.39542  0.39542  0.00000  0.20916
       2     C     3.09000  3.09000  0.00000 -0.18000
       3     C     3.10710  3.10710  0.00000 -0.21419
       4     C     3.10715  3.10715  0.00000 -0.21429
       5     H     0.39540  0.39540  0.00000  0.20919
       6     C     3.08645  3.08645  0.00000 -0.17290
       7     H     0.39630  0.39630  0.00000  0.20739
       8     C     3.08710  3.08710  0.00000 -0.17421
       9     H     0.37596  0.37596  0.00000  0.24808
      10     C     3.07728  3.07728  0.00000 -0.15455
      11     H     0.38050  0.38050  0.00000  0.23901
      12     C     2.57960  2.57960  0.00000  0.84080
      13     O     4.31532  4.31532  0.00000 -0.63064
      14     O     4.29168  4.29168  0.00000 -0.58335
      15     C     3.09379  3.09379  0.00000 -0.18757
      16     H     0.40860  0.40860  0.00000  0.18281
      17     H     0.40168  0.40168  0.00000  0.19665
      18     H     0.41069  0.41069  0.00000  0.17863

   Total alpha = 36.00000, Total beta = 36.00000, Total charge = -0.00000
