  ==> Input File <==

--------------------------------------------------------------------------
set {
	reference rhf
	basis cc-pvtz
}

set_num_threads( 4 )
memory 2 gb

molecule MOL {
0 1

O	 -0.694481	 1.313155	 -0.204815
C	 -0.862519	 0.151932	 -0.046791
C	 -2.171428	 -0.477048	 0.339095
O	 0.085519	 -0.757083	 -0.192238
H	 -2.467997	 -1.191667	 -0.417688
H	 -2.923379	 0.287970	 0.444097
H	 -2.053854	 -1.015120	 1.270901
C	 -0.091046	 -1.781008	 -1.164289
C	 0.356756	 -1.330945	 -2.539358
H	 -1.125191	 -2.088059	 -1.173255
H	 0.516240	 -2.600981	 -0.811304
H	 0.270385	 -2.155922	 -3.237501
H	 -0.257200	 -0.516380	 -2.898419
H	 1.391019	 -1.009282	 -2.518711

	symmetry c1
}
set optking {
	frozen_dihedral = ("
		8 4 2 1
	")
}

ee = optimize('scf')
oeprop('DIPOLE', 'QUADRUPOLE', 'MULLIKEN_CHARGES')
f=open( 'psi4out.xyz', 'w' )
f.write( "14  " )
f.write( str(ee) + "\n" )
f.write( MOL.save_string_xyz() )
f.close()
--------------------------------------------------------------------------

    Molecular point group: c1
  Charge       = 0
  Multiplicity = 1
  Basis Set: CC-PVTZ
  Basis Set:
  @DF-RHF Final Energy:  -305.96668356950579
    Total Energy =                       -305.9666835695057898
    Molecular point group: c1
  Basis Set: CC-PVTZ
  Basis Set:
  Basis Set: CC-PVTZ
  Basis Set:
  @DF-RHF Final Energy:  -305.96629345832395
    Total Energy =                       -305.9662934583238894
  Basis Set: CC-PVTZ
  Basis Set:
  Basis Set: CC-PVTZ
  Basis Set:
  @DF-RHF Final Energy:  -305.97071204108317
    Total Energy =                       -305.9707120410831749
  Basis Set: CC-PVTZ
  Basis Set:
  Basis Set: CC-PVTZ
  Basis Set:
  @DF-RHF Final Energy:  -305.97177173038699
    Total Energy =                       -305.9717717303869335
  Basis Set: CC-PVTZ
  Basis Set:
  @DF-RHF Final Energy:  -305.97205350430482
    Total Energy =                       -305.9720535043049949
  @DF-RHF Final Energy:  -305.97209798625852
    Total Energy =                       -305.9720979862583476
  Basis Set: CC-PVTZ
  Basis Set:
  @DF-RHF Final Energy:  -305.97213341151178
    Total Energy =                       -305.9721334115120044
  Basis Set: CC-PVTZ
  Basis Set:
  Basis Set: CC-PVTZ
  Basis Set:
  @DF-RHF Final Energy:  -305.97215885484422
    Total Energy =                       -305.9721588548438262
  Basis Set: CC-PVTZ
  Basis Set:
  Basis Set: CC-PVTZ
  Basis Set:
  @DF-RHF Final Energy:  -305.97217472811053
    Total Energy =                       -305.9721747281104172
  Basis Set: CC-PVTZ
  Basis Set:
  Charge       = 0
  Multiplicity = 1
  Basis Set: CC-PVTZ
  Basis Set:

    Orbital Energies (a.u.)
    -----------------------

    Doubly Occupied:

       1A    -20.580347     2A    -20.539793     3A    -11.369786
       4A    -11.296252     5A    -11.238106     6A    -11.225304
       7A     -1.461322     8A     -1.369632     9A     -1.046680
      10A     -1.013780    11A     -0.893372    12A     -0.766890
      13A     -0.693878    14A     -0.685888    15A     -0.674662
      16A     -0.615103    17A     -0.596397    18A     -0.585939
      19A     -0.550068    20A     -0.546731    21A     -0.524541
      22A     -0.487941    23A     -0.456177    24A     -0.438906

  @DF-RHF Final Energy:  -305.97217695220093

   => Energetics <=

    Nuclear Repulsion Energy =            249.2902300027477906
    One-Electron Energy =                -911.2098249312608687
    Two-Electron Energy =                 355.9474179763120674
    DFT Exchange-Correlation Energy =       0.0000000000000000
    Empirical Dispersion Energy =           0.0000000000000000
    PCM Polarization Energy =               0.0000000000000000
    EFP Energy =                            0.0000000000000000
    Total Energy =                       -305.9721769522010391
    Molecular point group: c1
  Basis Set: CC-PVTZ
  Basis Set:

  -Total Gradient:
     Atom            X                  Y                   Z
    ------   -----------------  -----------------  -----------------
       1       -0.000494123042    -0.000412830715    -0.003317785616
       2        0.001275716768     0.001561854155     0.003837635540
       3        0.000027902082    -0.000033210972     0.000022189436
       4       -0.002244699171    -0.002752741868     0.001218019552
       5        0.000008650135     0.000010142263     0.000017480966
       6       -0.000012720334    -0.000001396330    -0.000006937733
       7        0.000000439030    -0.000000960592    -0.000010533889
       8        0.001408550992     0.001584630500    -0.001767705453
       9       -0.000015423781     0.000046290354     0.000025683968
      10        0.000022583739     0.000020084265    -0.000005607146
      11        0.000007826532     0.000004620229     0.000009034360
      12        0.000005273964    -0.000015108501    -0.000012941036
      13        0.000004164331    -0.000006421960     0.000001342632
      14        0.000005858757    -0.000004950824    -0.000009875582

  **** Optimization is complete! (in 10 steps) ****
    Final optimized geometry and variables:
    Molecular point group: c1

    Geometry (in Angstrom), charge = 0, multiplicity = 1:

    O           -0.022323690336     1.752112881515     0.460346531603
    C           -0.294421836838     0.614422424400     0.585316527727
    C           -1.689562171988     0.124190112590     0.881788887620
    O            0.653683342460    -0.332556132017     0.501956601921
    H           -2.128599624368    -0.309720389127    -0.008733165181
    H           -2.296064639967     0.959263984403     1.192568660085
    H           -1.670049779733    -0.636517081919     1.650601831942
    C            0.569399640198    -1.342007791480    -0.487058985050
    C            0.790484719645    -0.794825725260    -1.883248263920
    H           -0.380244957286    -1.860286981195    -0.417976909249
    H            1.344373141182    -2.046654237554    -0.227944542576
    H            0.787687011814    -1.609515913231    -2.598577626723
    H            0.012475842122    -0.095490636154    -2.166151291212
    H            1.741334762606    -0.282096838872    -1.941966512534

  Mulliken Charges: (a.u.)
   Center  Symbol    Alpha    Beta     Spin     Total
       1     O     4.17228  4.17228  0.00000 -0.34456
       2     C     2.80636  2.80636  0.00000  0.38728
       3     C     3.15666  3.15666  0.00000 -0.31332
       4     O     4.15934  4.15934  0.00000 -0.31868
       5     H     0.45096  0.45096  0.00000  0.09807
       6     H     0.43066  0.43066  0.00000  0.13869
       7     H     0.44146  0.44146  0.00000  0.11708
       8     C     2.99736  2.99736  0.00000  0.00528
       9     C     3.13795  3.13795  0.00000 -0.27590
      10     H     0.46021  0.46021  0.00000  0.07957
      11     H     0.43964  0.43964  0.00000  0.12073
      12     H     0.45070  0.45070  0.00000  0.09860
      13     H     0.45339  0.45339  0.00000  0.09321
      14     H     0.44302  0.44302  0.00000  0.11396

   Total alpha = 24.00000, Total beta = 24.00000, Total charge = -0.00000
