  ==> Input File <==

--------------------------------------------------------------------------
set {
	reference rhf
	basis cc-pvtz
}

set_num_threads( 4 )
memory 2 gb

molecule MOL {
0 1

H	 1.757805	 -0.596435	 -1.355566
O	 0.944981	 -0.617807	 -0.885985
C	 0.700177	 0.619554	 -0.266242
C	 -0.713111	 0.588314	 0.266177
H	 0.801102	 1.431871	 -0.979600
H	 1.394852	 0.787841	 0.552589
O	 -1.421673	 -0.521378	 -0.196983
H	 -1.244794	 1.469161	 -0.069059
H	 -0.685100	 0.604721	 1.352683
H	 -0.933408	 -1.297830	 0.014544

	symmetry c1
}
set optking {
	frozen_dihedral = ("
		5 3 4 7
	")
}

ee = optimize('scf')
oeprop('DIPOLE', 'QUADRUPOLE', 'MULLIKEN_CHARGES')
f=open( 'psi4out.xyz', 'w' )
f.write( "10  " )
f.write( str(ee) + "\n" )
f.write( MOL.save_string_xyz() )
f.close()
--------------------------------------------------------------------------

    Molecular point group: c1
  Charge       = 0
  Multiplicity = 1
  Basis Set: CC-PVTZ
  Basis Set:
  @DF-RHF Final Energy:  -229.01496265476510
    Total Energy =                       -229.0149626547651565
    Molecular point group: c1
  Basis Set: CC-PVTZ
  Basis Set:
  Basis Set: CC-PVTZ
  Basis Set:
  @DF-RHF Final Energy:  -229.01777790490880
    Total Energy =                       -229.0177779049088826
  Basis Set: CC-PVTZ
  Basis Set:
  Basis Set: CC-PVTZ
  Basis Set:
  @DF-RHF Final Energy:  -229.01843355190036
    Total Energy =                       -229.0184335519002730
  Basis Set: CC-PVTZ
  Basis Set:
  Basis Set: CC-PVTZ
  Basis Set:
  @DF-RHF Final Energy:  -229.01863449230859
    Total Energy =                       -229.0186344923087631
  Basis Set: CC-PVTZ
  Basis Set:
  @DF-RHF Final Energy:  -229.01880884213745
    Total Energy =                       -229.0188088421375028
  @DF-RHF Final Energy:  -229.01893881999911
    Total Energy =                       -229.0189388199993061
  @DF-RHF Final Energy:  -229.01902592068126
    Total Energy =                       -229.0190259206812868
  Basis Set: CC-PVTZ
  Basis Set:
  @DF-RHF Final Energy:  -229.01907833281055
    Total Energy =                       -229.0190783328105226
  Basis Set: CC-PVTZ
  Basis Set:
  Basis Set: CC-PVTZ
  Basis Set:
  @DF-RHF Final Energy:  -229.01909058893648
    Total Energy =                       -229.0190905889364785
  Basis Set: CC-PVTZ
  Basis Set:
  Basis Set: CC-PVTZ
  Basis Set:
  @DF-RHF Final Energy:  -229.01909451897035
    Total Energy =                       -229.0190945189702916
  Basis Set: CC-PVTZ
  Basis Set:
  Charge       = 0
  Multiplicity = 1
  Basis Set: CC-PVTZ
  Basis Set:

    Orbital Energies (a.u.)
    -----------------------

    Doubly Occupied:

       1A    -20.569018     2A    -20.533872     3A    -11.280658
       4A    -11.267342     5A     -1.393494     6A     -1.349736
       7A     -0.998902     8A     -0.849071     9A     -0.731033
      10A     -0.680926    11A     -0.663474    12A     -0.590280
      13A     -0.582032    14A     -0.547114    15A     -0.482969
      16A     -0.468538    17A     -0.419579

  @DF-RHF Final Energy:  -229.01909540096548

   => Energetics <=

    Nuclear Repulsion Energy =            134.9596796808832266
    One-Electron Energy =                -581.1414717310548212
    Two-Electron Energy =                 217.1626966492060546
    DFT Exchange-Correlation Energy =       0.0000000000000000
    Empirical Dispersion Energy =           0.0000000000000000
    PCM Polarization Energy =               0.0000000000000000
    EFP Energy =                            0.0000000000000000
    Total Energy =                       -229.0190954009655115
    Molecular point group: c1
  Basis Set: CC-PVTZ
  Basis Set:

  -Total Gradient:
     Atom            X                  Y                   Z
    ------   -----------------  -----------------  -----------------
       1        0.000010619119    -0.000007732187     0.000035759924
       2        0.000012177736    -0.000031982879    -0.000080739890
       3       -0.001380181482    -0.004780114560    -0.003228798007
       4       -0.001649669544     0.003572122291    -0.003474216343
       5        0.001535799236     0.003270587491     0.003562662112
       6       -0.000003024434    -0.000010773608    -0.000026096781
       7        0.001496346965    -0.002020747662     0.003195708784
       8       -0.000012964476     0.000004999413     0.000014466544
       9        0.000004204957     0.000001234612    -0.000004338109
      10       -0.000013308078     0.000002407084     0.000005591767

  **** Optimization is complete! (in 11 steps) ****
    Final optimized geometry and variables:
    Molecular point group: c1

    Geometry (in Angstrom), charge = 0, multiplicity = 1:

    H            1.966234700575    -0.640217371414    -0.947489017105
    O            1.088629729763    -0.616492183362    -0.615055062385
    C            0.802117498443     0.644217729332    -0.073414183967
    C           -0.606203792170     0.619414738852     0.559847122973
    H            0.869794950709     1.424685090847    -0.824249979838
    H            1.526224622651     0.892020560874     0.696544381196
    O           -1.357018948896    -0.498818609721     0.203943493119
    H           -1.153549136117     1.503491548620     0.260140616728
    H           -0.505357745660     0.652340703604     1.640604994208
    H           -0.776526656644    -1.177384203015    -0.092785725462

  Mulliken Charges: (a.u.)
   Center  Symbol    Alpha    Beta     Spin     Total
       1     H     0.39475  0.39475  0.00000  0.21050
       2     O     4.19693  4.19693  0.00000 -0.39387
       3     C     2.96979  2.96979  0.00000  0.06042
       4     C     2.95587  2.95587  0.00000  0.08826
       5     H     0.47323  0.47323  0.00000  0.05354
       6     H     0.47337  0.47337  0.00000  0.05326
       7     O     4.20790  4.20790  0.00000 -0.41580
       8     H     0.46826  0.46826  0.00000  0.06348
       9     H     0.47810  0.47810  0.00000  0.04381
      10     H     0.38180  0.38180  0.00000  0.23639

   Total alpha = 17.00000, Total beta = 17.00000, Total charge = -0.00000
