                              Psi4 1.0.54 Driver

  ==> Input File <==

--------------------------------------------------------------------------
set {
	reference rhf
	basis cc-pvtz
}

set_num_threads( 4 )
memory 2 gb

molecule MOL {
0 1

H	 1.081482	 -0.635124	 0.906385
C	 1.013997	 -0.282003	 -0.131685
C	 0.062554	 0.862911	 -0.350953
O	 1.667292	 -0.792712	 -0.974025
C	 -1.339253	 0.577611	 0.196911
H	 0.036787	 1.091940	 -1.408486
H	 0.481788	 1.721602	 0.168632
C	 -1.813142	 -0.849710	 -0.061612
H	 -2.032833	 1.276441	 -0.256032
H	 -1.357249	 0.782269	 1.263793
H	 -1.839268	 -1.063526	 -1.124230
H	 -2.810118	 -1.001930	 0.334000
H	 -1.159274	 -1.579980	 0.402282

	symmetry c1
}
set optking {
	frozen_dihedral = ("
		6 3 5 9
	")
}

ee,wfn = optimize('scf', return_wfn=True)
oeprop( wfn, 'DIPOLE', 'QUADRUPOLE', 'MULLIKEN_CHARGES')
f=open( 'psi4out.xyz', 'w' )
f.write( "13  " )
f.write( str(ee) + "\n" )
f.write( MOL.save_string_xyz() )
f.close()
--------------------------------------------------------------------------

    Molecular point group: c1
  Charge       = 0
  Multiplicity = 1
  Basis Set: CC-PVTZ
  Basis Set:
  @DF-RHF Final Energy:  -231.06759503982315
    Total Energy =                       -231.0675950398231180
    Molecular point group: c1
  Basis Set: CC-PVTZ
  Basis Set:
  Basis Set: CC-PVTZ
  Basis Set:
  @DF-RHF Final Energy:  -231.06787078886993
    Total Energy =                       -231.0678707888698966
  Basis Set: CC-PVTZ
  Basis Set:
  Basis Set: CC-PVTZ
  Basis Set:
  @DF-RHF Final Energy:  -231.06377122603897
    Total Energy =                       -231.0637712260388810
  Basis Set: CC-PVTZ
  Basis Set:
  Basis Set: CC-PVTZ
  Basis Set:
  @DF-RHF Final Energy:  -231.06816753017438
    Total Energy =                       -231.0681675301742644
  Basis Set: CC-PVTZ
  Basis Set:
  Basis Set: CC-PVTZ
  Basis Set:
  @DF-RHF Final Energy:  -231.06830151884745
    Total Energy =                       -231.0683015188473917
  Basis Set: CC-PVTZ
  Basis Set:
  Basis Set: CC-PVTZ
  Basis Set:
  @DF-RHF Final Energy:  -231.06832685882608
    Total Energy =                       -231.0683268588261683
  Basis Set: CC-PVTZ
  Basis Set:
  Basis Set: CC-PVTZ
  Basis Set:
  @DF-RHF Final Energy:  -231.06832911415799
    Total Energy =                       -231.0683291141579900
  Basis Set: CC-PVTZ
  Basis Set:
  Charge       = 0
  Multiplicity = 1
  Basis Set: CC-PVTZ
  Basis Set:

    Orbital Energies (a.u.)
    -----------------------

    Doubly Occupied:

       1A    -20.551903     2A    -11.321997     3A    -11.237158
       4A    -11.234714     5A    -11.220125     6A     -1.406887
       7A     -1.086756     8A     -0.973904     9A     -0.852787
      10A     -0.785238    11A     -0.669814    12A     -0.648210
      13A     -0.631162    14A     -0.601276    15A     -0.558731
      16A     -0.532796    17A     -0.511768    18A     -0.491105
      19A     -0.482916    20A     -0.412615

  @DF-RHF Final Energy:  -231.06832949715209

   => Energetics <=

    Nuclear Repulsion Energy =            174.4720853310431039
    One-Electron Energy =                -658.6571063824748080
    Two-Electron Energy =                 253.1166915542795550
    DFT Exchange-Correlation Energy =       0.0000000000000000
    Empirical Dispersion Energy =           0.0000000000000000
    PCM Polarization Energy =               0.0000000000000000
    EFP Energy =                            0.0000000000000000
    Total Energy =                       -231.0683294971521491
    Molecular point group: c1
  Basis Set: CC-PVTZ
  Basis Set:

  -Total Gradient:
     Atom            X                  Y                   Z
    ------   -----------------  -----------------  -----------------
       1        0.000029890856    -0.000010647233     0.000027247016
       2       -0.000032419389    -0.000021860518    -0.000025261577
       3        0.001078138453    -0.007008409652    -0.001956460444
       4        0.000010756366    -0.000015393648     0.000012141796
       5        0.000500127303     0.005472592862     0.004697099904
       6       -0.000924933419     0.005053356888     0.000912535615
       7       -0.000045235261    -0.000020261054     0.000000893038
       8       -0.000000314097     0.000000329219    -0.000004984864
       9       -0.000622996059    -0.003468908060    -0.003668336476
      10       -0.000001883976     0.000000818095     0.000005393849
      11       -0.000002488337    -0.000002964052     0.000012172064
      12        0.000019170616     0.000011790095    -0.000002460607
      13       -0.000007813054     0.000009557058    -0.000009979316

  **** Optimization is complete! (in 8 steps) ****
    Final optimized geometry and variables:
    Molecular point group: c1

    Geometry (in Angstrom), charge = 0, multiplicity = 1:

    H            1.245585818530    -0.321799565352     1.229171406751
    C            1.135036718415    -0.062055027177     0.167943984511
    C            0.070085515930     0.954823520581    -0.129911476670
    O            1.839955825527    -0.561166810908    -0.639219856072
    C           -1.312406440948     0.603982547357     0.443077094762
    H            0.021882657993     1.138083957655    -1.195061457454
    H            0.404739487196     1.886255919803     0.323930008257
    C           -1.735752268234    -0.843053376609     0.187337294921
    H           -2.039413978169     1.245793289553    -0.040053579781
    H           -1.343628989947     0.813831998963     1.506196802294
    H           -1.710178452851    -1.074212398909    -0.871791472050
    H           -2.745527163135    -1.012577019151     0.541063234284
    H           -1.090173990086    -1.552717762719     0.692345351017

  Mulliken Charges: (a.u.)
   Center  Symbol    Alpha    Beta     Spin     Total
       1     H     0.46283  0.46283  0.00000  0.07433
       2     C     2.90407  2.90407  0.00000  0.19187
       3     C     3.09074  3.09074  0.00000 -0.18148
       4     O     4.16584  4.16584  0.00000 -0.33168
       5     C     3.10151  3.10151  0.00000 -0.20302
       6     H     0.44079  0.44079  0.00000  0.11842
       7     H     0.44536  0.44536  0.00000  0.10929
       8     C     3.14699  3.14699  0.00000 -0.29398
       9     H     0.44500  0.44500  0.00000  0.11000
      10     H     0.44792  0.44792  0.00000  0.10416
      11     H     0.44760  0.44760  0.00000  0.10480
      12     H     0.44712  0.44712  0.00000  0.10576
      13     H     0.45424  0.45424  0.00000  0.09152

   Total alpha = 20.00000, Total beta = 20.00000, Total charge =  0.00000

*** Psi4 exiting successfully. Buy a developer a beer!
