  ==> Input File <==

--------------------------------------------------------------------------
set {
	reference rhf
	basis 6-31G*
}

set_num_threads( 4 )
memory 2 gb

molecule MOL {
0 1

H	 1.472194	 1.081434	 -1.996578
O	 0.613279	 0.901361	 -1.642522
C	 0.702312	 0.627605	 -0.264544
C	 -0.714990	 0.596302	 0.266387
H	 1.263850	 1.405081	 0.246398
H	 1.191849	 -0.327678	 -0.087591
O	 -1.405996	 -0.526611	 -0.195820
H	 -1.257453	 1.468809	 -0.075599
H	 -0.688972	 0.618407	 1.353696
H	 -0.890587	 -1.292708	 0.022039

	symmetry c1
}
set optking {
	frozen_dihedral = ("
		5 3 4 7
	")
}

ee = optimize('scf')
oeprop('DIPOLE', 'QUADRUPOLE', 'MULLIKEN_CHARGES')
f=open( 'psi4out.xyz', 'w' )
f.write( "10  " )
f.write( str(ee) + "\n" )
f.write( MOL.save_string_xyz() )
f.close()
--------------------------------------------------------------------------

    Molecular point group: c1
  Charge       = 0
  Multiplicity = 1
  Basis Set: 6-31G*
  Basis Set:
  @DF-RHF Final Energy:  -228.91760501577932
    Total Energy =                       -228.9176050157794009
    Molecular point group: c1
  Basis Set: 6-31G*
  Basis Set:
  Basis Set: 6-31G*
  Basis Set:
  @DF-RHF Final Energy:  -228.91853439608209
    Total Energy =                       -228.9185343960822081
  Basis Set: 6-31G*
  Basis Set:
  Basis Set: 6-31G*
  Basis Set:
  @DF-RHF Final Energy:  -228.91876879439727
    Total Energy =                       -228.9187687943971810
  Basis Set: 6-31G*
  Basis Set:
  Basis Set: 6-31G*
  Basis Set:
  @DF-RHF Final Energy:  -228.91878807364253
    Total Energy =                       -228.9187880736425598
  Basis Set: 6-31G*
  Basis Set:
  Basis Set: 6-31G*
  Basis Set:
  @DF-RHF Final Energy:  -228.91879102539534
    Total Energy =                       -228.9187910253953362
  Basis Set: 6-31G*
  Basis Set:
  Charge       = 0
  Multiplicity = 1
  Basis Set: 6-31G*
  Basis Set:

    Orbital Energies (a.u.)
    -----------------------

    Doubly Occupied:

       1A    -20.558897     2A    -20.553340     3A    -11.276853
       4A    -11.270335     5A     -1.375136     6A     -1.354122
       7A     -1.002556     8A     -0.845718     9A     -0.720409
      10A     -0.675990    11A     -0.656318    12A     -0.597448
      13A     -0.571252    14A     -0.539481    15A     -0.479241
      16A     -0.445570    17A     -0.436638

  @DF-RHF Final Energy:  -228.91879163392989

   => Energetics <=

    Nuclear Repulsion Energy =            133.2066619922328812
    One-Electron Energy =                -577.5322981793033250
    Two-Electron Energy =                 215.4068445531405303
    DFT Exchange-Correlation Energy =       0.0000000000000000
    Empirical Dispersion Energy =           0.0000000000000000
    PCM Polarization Energy =               0.0000000000000000
    EFP Energy =                            0.0000000000000000
    Total Energy =                       -228.9187916339299420
    Molecular point group: c1
  Basis Set: 6-31G*
  Basis Set:

  -Total Gradient:
     Atom            X                  Y                   Z
    ------   -----------------  -----------------  -----------------
       1       -0.000027722737    -0.000002529365    -0.000003454452
       2        0.000036036816     0.000003886454     0.000000762754
       3       -0.000285400170     0.000768865408    -0.000739573158
       4       -0.000349425935     0.000452360858    -0.000755735626
       5        0.000336849693    -0.000781229647     0.000753923488
       6        0.000000196704     0.000006980061     0.000021645214
       7        0.000318755806    -0.000440521227     0.000703582817
       8       -0.000005807556    -0.000007530906    -0.000002928140
       9       -0.000031266242     0.000007441479     0.000027990043
      10        0.000007783622    -0.000007723113    -0.000006212940

  **** Optimization is complete! (in 6 steps) ****
    Final optimized geometry and variables:
    Molecular point group: c1

    Geometry (in Angstrom), charge = 0, multiplicity = 1:

    H            1.699689731622     0.575342786262    -1.523235931933
    O            0.826278719914     0.565223384654    -1.158752791761
    C            0.885426030259     0.274388553618     0.207377794358
    C           -0.524215171629     0.175765454396     0.756504158654
    H            1.422032974595     1.047977928015     0.755823180154
    H            1.409243075676    -0.666366484804     0.384740555697
    O           -1.234469860030    -0.931016896561     0.280728704552
    H           -1.083365231393     1.050395069882     0.454453341994
    H           -0.474859833887     0.166687457673     1.845064130652
    H           -0.795326918370    -1.728534927950     0.541256868005

  Mulliken Charges: (a.u.)
   Center  Symbol    Alpha    Beta     Spin     Total
       1     H     0.27960  0.27960  0.00000  0.44080
       2     O     4.36209  4.36209  0.00000 -0.72419
       3     C     3.00702  3.00702  0.00000 -0.01405
       4     C     2.99850  2.99850  0.00000  0.00301
       5     H     0.43064  0.43064  0.00000  0.13873
       6     H     0.43736  0.43736  0.00000  0.12529
       7     O     4.36307  4.36307  0.00000 -0.72615
       8     H     0.40616  0.40616  0.00000  0.18769
       9     H     0.43180  0.43180  0.00000  0.13640
      10     H     0.28377  0.28377  0.00000  0.43247

   Total alpha = 17.00000, Total beta = 17.00000, Total charge = -0.00000
