  ==> Input File <==

--------------------------------------------------------------------------
set {
	reference rhf
	basis 6-31G*
}

set_num_threads( 4 )
memory 2 gb

molecule MOL {
0 1

H	 -0.216825	 0.021369	 -3.357402
C	 0.374198	 0.036393	 -2.447010
C	 -0.521757	 -0.028637	 -1.217342
H	 0.969602	 0.942322	 -2.434777
H	 1.053364	 -0.811668	 -2.481329
N	 0.263400	 0.031178	 0.000000
H	 -1.199035	 0.820290	 -1.219355
H	 -1.147901	 -0.924895	 -1.265384
C	 -0.521757	 -0.028637	 1.217342
H	 0.935769	 -0.712709	 0.000000
C	 -1.667539	 0.973629	 1.176190
H	 -0.924515	 -1.033341	 1.305334
H	 0.084237	 0.141946	 2.112504
H	 -2.302273	 0.788748	 0.316949
H	 -2.272017	 0.907157	 2.075375
H	 -1.293966	 1.991983	 1.105116

	symmetry c1
}
set optking {
	frozen_dihedral = ("
		12 9 6 3
	")
}

ee = optimize('scf')
oeprop('DIPOLE', 'QUADRUPOLE', 'MULLIKEN_CHARGES')
f=open( 'psi4out.xyz', 'w' )
f.write( "16  " )
f.write( str(ee) + "\n" )
f.write( MOL.save_string_xyz() )
f.close()
--------------------------------------------------------------------------

    Molecular point group: c1
  Charge       = 0
  Multiplicity = 1
  Basis Set: 6-31G*
  Basis Set:
  @DF-RHF Final Energy:  -212.30496560647234
    Total Energy =                       -212.3049656064724786
    Molecular point group: c1
  Basis Set: 6-31G*
  Basis Set:
  Basis Set: 6-31G*
  Basis Set:
  @DF-RHF Final Energy:  -212.30741466335644
    Total Energy =                       -212.3074146633563828
  Basis Set: 6-31G*
  Basis Set:
  Basis Set: 6-31G*
  Basis Set:
  @DF-RHF Final Energy:  -212.31003588856160
    Total Energy =                       -212.3100358885616288
  Basis Set: 6-31G*
  Basis Set:
  Basis Set: 6-31G*
  Basis Set:
  @DF-RHF Final Energy:  -212.31037804888047
    Total Energy =                       -212.3103780488804091
  Basis Set: 6-31G*
  Basis Set:
  Basis Set: 6-31G*
  Basis Set:
  @DF-RHF Final Energy:  -212.31041741145049
    Total Energy =                       -212.3104174114502030
  Basis Set: 6-31G*
  Basis Set:
  Charge       = 0
  Multiplicity = 1
  Basis Set: 6-31G*
  Basis Set:

    Orbital Energies (a.u.)
    -----------------------

    Doubly Occupied:

       1A    -15.532539     2A    -11.240925     3A    -11.239529
       4A    -11.208825     5A    -11.207663     6A     -1.202071
       7A     -1.024556     8A     -0.967950     9A     -0.850919
      10A     -0.795410    11A     -0.661007    12A     -0.625358
      13A     -0.616295    14A     -0.588920    15A     -0.537696
      16A     -0.519508    17A     -0.512386    18A     -0.493563
      19A     -0.483431    20A     -0.470064    21A     -0.354849

  @DF-RHF Final Energy:  -212.31042068396354

   => Energetics <=

    Nuclear Repulsion Energy =            191.6735877224915896
    One-Electron Energy =                -665.7010829565322183
    Two-Electron Energy =                 261.7170745500769726
    DFT Exchange-Correlation Energy =       0.0000000000000000
    Empirical Dispersion Energy =           0.0000000000000000
    PCM Polarization Energy =               0.0000000000000000
    EFP Energy =                            0.0000000000000000
    Total Energy =                       -212.3104206839636845
    Molecular point group: c1
  Basis Set: 6-31G*
  Basis Set:

  -Total Gradient:
     Atom            X                  Y                   Z
    ------   -----------------  -----------------  -----------------
       1        0.000004031660    -0.000000222903     0.000006829699
       2        0.000002679674     0.000015333489    -0.000014149024
       3       -0.000428802435     0.003177755730    -0.000013268049
       4        0.000010765805     0.000002141195    -0.000008583179
       5        0.000000443418    -0.000000550156    -0.000002549134
       6        0.001521066544    -0.004929307254     0.000523515724
       7        0.000025650785    -0.000008041689     0.000010328058
       8       -0.000011252779     0.000001728947     0.000004509070
       9       -0.004625854431     0.002715797197    -0.002661286601
      10       -0.000046821252     0.000000669738     0.000037077512
      11        0.000043095792     0.000035133093    -0.000024188633
      12        0.003520317674    -0.001023583740     0.002068055699
      13       -0.000037019321    -0.000002988974     0.000057869419
      14        0.000011510179    -0.000014501770     0.000011492693
      15        0.000025481412    -0.000016416185    -0.000001917656
      16       -0.000015292725     0.000047053283     0.000006264402

  **** Optimization is complete! (in 6 steps) ****
    Final optimized geometry and variables:
    Molecular point group: c1

    Geometry (in Angstrom), charge = 0, multiplicity = 1:

    H            0.338047994016    -0.218226849026    -3.136705233428
    C            0.877519817862    -0.197716550514    -2.195121622370
    C           -0.088231876317    -0.199477974124    -1.016990775935
    H            1.500224335842     0.689735514138    -2.172651186270
    H            1.529501472198    -1.067289254419    -2.170036850261
    N            0.640636200615    -0.117247716936     0.234422684156
    H           -0.740608906686     0.661833833829    -1.096068062805
    H           -0.729647425985    -1.085341250941    -1.072606379406
    C           -0.141398007268    -0.236908126040     1.453848746227
    H            1.371795037645    -0.800790294351     0.245360971058
    C           -1.277262730363     0.774031870278     1.549353218329
    H           -0.526770147936    -1.250403556137     1.602079847831
    H            0.541430591388    -0.059826315891     2.279879269638
    H           -2.069350983615     0.573450359434     0.836421330983
    H           -1.716427999515     0.741716510006     2.541424383862
    H           -0.905583672087     1.778108905023     1.373211769172

  Mulliken Charges: (a.u.)
   Center  Symbol    Alpha    Beta     Spin     Total
       1     H     0.41947  0.41947  0.00000  0.16106
       2     C     3.24433  3.24433  0.00000 -0.48867
       3     C     3.05379  3.05379  0.00000 -0.10759
       4     H     0.41202  0.41202  0.00000  0.17597
       5     H     0.42507  0.42507  0.00000  0.14987
       6     N     3.85170  3.85170  0.00000 -0.70341
       7     H     0.41757  0.41757  0.00000  0.16487
       8     H     0.43658  0.43658  0.00000  0.12684
       9     C     3.05178  3.05178  0.00000 -0.10357
      10     H     0.33326  0.33326  0.00000  0.33349
      11     C     3.24811  3.24811  0.00000 -0.49621
      12     H     0.43538  0.43538  0.00000  0.12924
      13     H     0.41936  0.41936  0.00000  0.16128
      14     H     0.41934  0.41934  0.00000  0.16133
      15     H     0.41917  0.41917  0.00000  0.16166
      16     H     0.41307  0.41307  0.00000  0.17385

   Total alpha = 21.00000, Total beta = 21.00000, Total charge = -0.00000
