  ==> Input File <==

--------------------------------------------------------------------------
set {
	reference rhf
	basis 6-31G*
}

set_num_threads( 4 )
memory 2 gb

molecule MOL {
0 1

H	 -3.135461	 -1.215070	 0.001379
O	 -2.310168	 -0.871793	 -0.309793
C	 -2.026376	 0.340750	 0.341611
C	 -0.673256	 0.843270	 -0.132153
H	 -2.792215	 1.080697	 0.115987
H	 -2.013526	 0.200402	 1.421792
C	 0.486613	 -0.083066	 0.235839
H	 -0.715586	 0.970948	 -1.210718
H	 -0.508072	 1.829858	 0.297090
C	 0.036887	 -1.517333	 0.519456
H	 0.999371	 0.316954	 1.104503
H	 1.212188	 -0.089059	 -0.576778
C	 1.196689	 -2.444407	 0.881487
H	 -0.687238	 -1.512894	 1.331453
H	 -0.483208	 -1.913807	 -0.350459
H	 1.715591	 -2.093241	 1.768793
H	 0.847970	 -3.453446	 1.079429
H	 1.922604	 -2.497683	 0.074814

	symmetry c1
}
set optking {
	frozen_dihedral = ("
		10 7 4 8
	")
}

ee = optimize('scf')
oeprop('DIPOLE', 'QUADRUPOLE', 'MULLIKEN_CHARGES')
f=open( 'psi4out.xyz', 'w' )
f.write( "18  " )
f.write( str(ee) + "\n" )
f.write( MOL.save_string_xyz() )
f.close()
--------------------------------------------------------------------------

    Molecular point group: c1
  Charge       = 0
  Multiplicity = 1
  Basis Set: 6-31G*
  Basis Set:
  @DF-RHF Final Energy:  -271.16145810224288
    Total Energy =                       -271.1614581022428183
    Molecular point group: c1
  Basis Set: 6-31G*
  Basis Set:
  Basis Set: 6-31G*
  Basis Set:
  @DF-RHF Final Energy:  -271.16972486646284
    Total Energy =                       -271.1697248664627296
  Basis Set: 6-31G*
  Basis Set:
  Basis Set: 6-31G*
  Basis Set:
  @DF-RHF Final Energy:  -271.17129884590372
    Total Energy =                       -271.1712988459037774
  Basis Set: 6-31G*
  Basis Set:
  Basis Set: 6-31G*
  Basis Set:
  @DF-RHF Final Energy:  -271.17167620095665
    Total Energy =                       -271.1716762009565969
  Basis Set: 6-31G*
  Basis Set:
  Basis Set: 6-31G*
  Basis Set:
  @DF-RHF Final Energy:  -271.17172946998852
    Total Energy =                       -271.1717294699885770
  Basis Set: 6-31G*
  Basis Set:
  Basis Set: 6-31G*
  Basis Set:
  @DF-RHF Final Energy:  -271.17171011730920
    Total Energy =                       -271.1717101173093170
  Basis Set: 6-31G*
  Basis Set:
  Basis Set: 6-31G*
  Basis Set:
  @DF-RHF Final Energy:  -271.17175438697006
    Total Energy =                       -271.1717543869702354
  Basis Set: 6-31G*
  Basis Set:
  Charge       = 0
  Multiplicity = 1
  Basis Set: 6-31G*
  Basis Set:

    Orbital Energies (a.u.)
    -----------------------

    Doubly Occupied:

       1A    -20.553264     2A    -11.269128     3A    -11.213346
       4A    -11.210250     5A    -11.203833     6A    -11.201590
       7A     -1.360143     8A     -1.069996     9A     -1.005893
      10A     -0.912888    11A     -0.830852    12A     -0.767511
      13A     -0.703456    14A     -0.647434    15A     -0.620180
      16A     -0.579345    17A     -0.566615    18A     -0.550796
      19A     -0.532107    20A     -0.501263    21A     -0.485474
      22A     -0.466883    23A     -0.448605    24A     -0.446784
      25A     -0.425618

  @DF-RHF Final Energy:  -271.17175481569529

   => Energetics <=

    Nuclear Repulsion Energy =            254.9316536459717497
    One-Electron Energy =                -873.0603083918199445
    Two-Electron Energy =                 346.9568999301528720
    DFT Exchange-Correlation Energy =       0.0000000000000000
    Empirical Dispersion Energy =           0.0000000000000000
    PCM Polarization Energy =               0.0000000000000000
    EFP Energy =                            0.0000000000000000
    Total Energy =                       -271.1717548156952944
    Molecular point group: c1
  Basis Set: 6-31G*
  Basis Set:

  -Total Gradient:
     Atom            X                  Y                   Z
    ------   -----------------  -----------------  -----------------
       1       -0.000001745947    -0.000008473110    -0.000000158727
       2       -0.000012452760    -0.000000431736     0.000024389906
       3        0.000006515153     0.000019180729    -0.000029408444
       4       -0.003997571561    -0.004509001477     0.001163831501
       5       -0.000016036517    -0.000005109916    -0.000000785802
       6       -0.000008518030    -0.000014184837    -0.000012528115
       7        0.001493386718    -0.000243773196    -0.005165564992
       8        0.003034996055     0.003910833605     0.000423579505
       9        0.000012000514     0.000010971742     0.000001265335
      10       -0.000494212392     0.000851522936     0.003606168267
      11       -0.000006408967    -0.000000719909    -0.000005225119
      12        0.000012262361    -0.000007514522     0.000001515681
      13       -0.000028608103     0.000001696560    -0.000007379128
      14        0.000003383570     0.000004332316     0.000003372986
      15       -0.000008430984     0.000001431235    -0.000006598911
      16        0.000002468978    -0.000003237629    -0.000001838948
      17        0.000003887513    -0.000011267905     0.000001334758
      18        0.000005084401     0.000003745114     0.000004030247

  **** Optimization is complete! (in 8 steps) ****
    Final optimized geometry and variables:
    Molecular point group: c1

    Geometry (in Angstrom), charge = 0, multiplicity = 1:

    H           -2.819125727486    -0.283499022749    -0.325749913482
    O           -1.967242221073    -0.031579728981    -0.652895648542
    C           -1.474512029598     1.049448578415     0.097313988006
    C           -0.078201763866     1.407241972163    -0.384203368379
    H           -2.120929195680     1.915809580053    -0.030433468211
    H           -1.462021502742     0.809448111525     1.159071334933
    C            1.085619612870     0.462949655705     0.000637418409
    H           -0.110044601198     1.547013406865    -1.460394700201
    H            0.150044414959     2.392543028501     0.017370137164
    C            0.744115648022    -1.002493583645     0.292224571686
    H            1.572008182351     0.864971986273     0.887743368191
    H            1.833669991281     0.502477961851    -0.786548633806
    C            1.987645785632    -1.807216634001     0.671283679237
    H            0.023233129402    -1.060286805367     1.102094183645
    H            0.265396811909    -1.452018249817    -0.570213192216
    H            2.469763723212    -1.398316582548     1.555453443596
    H            1.735665848600    -2.842246494064     0.882056254543
    H            2.718895558570    -1.803621246672    -0.132495684674

  Mulliken Charges: (a.u.)
   Center  Symbol    Alpha    Beta     Spin     Total
       1     H     0.28110  0.28110  0.00000  0.43779
       2     O     4.36811  4.36811  0.00000 -0.73622
       3     C     3.00179  3.00179  0.00000 -0.00359
       4     C     3.16009  3.16009  0.00000 -0.32019
       5     H     0.42822  0.42822  0.00000  0.14355
       6     H     0.43136  0.43136  0.00000  0.13729
       7     C     3.15510  3.15510  0.00000 -0.31021
       8     H     0.41210  0.41210  0.00000  0.17580
       9     H     0.42238  0.42238  0.00000  0.15524
      10     C     3.14896  3.14896  0.00000 -0.29793
      11     H     0.42609  0.42609  0.00000  0.14782
      12     H     0.42062  0.42062  0.00000  0.15876
      13     C     3.24076  3.24076  0.00000 -0.48151
      14     H     0.42591  0.42591  0.00000  0.14818
      15     H     0.40941  0.40941  0.00000  0.18119
      16     H     0.42467  0.42467  0.00000  0.15067
      17     H     0.42040  0.42040  0.00000  0.15921
      18     H     0.42293  0.42293  0.00000  0.15414

   Total alpha = 25.00000, Total beta = 25.00000, Total charge =  0.00000
