                              Psi4 1.0.54 Driver

  ==> Input File <==

--------------------------------------------------------------------------
set {
	reference rhf
	basis cc-pvtz
}

set_num_threads( 4 )
memory 2 gb

molecule MOL {
0 1

O	 -2.817697	 1.304178	 0.001046
C	 -2.664672	 0.129869	 0.003507
C	 -3.797908	 -0.860100	 -0.001145
O	 -1.481217	 -0.452708	 0.001092
H	 -4.408836	 -0.679689	 -0.875387
H	 -3.443486	 -1.878443	 -0.002770
H	 -4.412123	 -0.683688	 0.871605
C	 -0.332055	 0.384012	 -0.000250
C	 0.892252	 -0.506059	 -0.000295
H	 -0.360822	 1.020205	 -0.874146
H	 -0.359817	 1.021310	 0.872861
C	 2.188199	 0.299473	 -0.001416
H	 0.857046	 -1.152781	 -0.871031
H	 0.857910	 -1.151798	 0.871202
C	 2.155756	 1.482585	 -0.964909
H	 2.390254	 0.662622	 1.003210
H	 3.019175	 -0.351047	 -0.262714
C	 3.451030	 2.287114	 -0.967205
H	 1.326836	 2.134300	 -0.703727
H	 1.954070	 1.120907	 -1.969199
H	 3.662443	 2.691433	 0.017008
H	 3.395114	 3.118108	 -1.660623
H	 4.294594	 1.670092	 -1.257958

	symmetry c1
}
set optking {
	frozen_dihedral = ("
		16 12 9 13
	")
}

ee,wfn = optimize('scf', return_wfn=True)
oeprop( wfn, 'DIPOLE', 'QUADRUPOLE', 'MULLIKEN_CHARGES')
f=open( 'psi4out.xyz', 'w' )
f.write( "23  " )
f.write( str(ee) + "\n" )
f.write( MOL.save_string_xyz() )
f.close()
--------------------------------------------------------------------------

    Molecular point group: c1
  Charge       = 0
  Multiplicity = 1
  Basis Set: CC-PVTZ
  Basis Set:
  @DF-RHF Final Energy:  -423.12937219981205
    Total Energy =                       -423.1293721998119963
    Molecular point group: c1
  Basis Set: CC-PVTZ
  Basis Set:
  Basis Set: CC-PVTZ
  Basis Set:
  @DF-RHF Final Energy:  -423.12931120028264
    Total Energy =                       -423.1293112002827002
  Basis Set: CC-PVTZ
  Basis Set:
  Basis Set: CC-PVTZ
  Basis Set:
  @DF-RHF Final Energy:  -423.13152111373631
    Total Energy =                       -423.1315211137363121
  Basis Set: CC-PVTZ
  Basis Set:
  Basis Set: CC-PVTZ
  Basis Set:
  @DF-RHF Final Energy:  -423.13011330034408
    Total Energy =                       -423.1301133003439645
  Basis Set: CC-PVTZ
  Basis Set:
  Basis Set: CC-PVTZ
  Basis Set:
  @DF-RHF Final Energy:  -423.13172648236508
    Total Energy =                       -423.1317264823655933
  Basis Set: CC-PVTZ
  Basis Set:
  Basis Set: CC-PVTZ
  Basis Set:
  @DF-RHF Final Energy:  -423.13179163771764
    Total Energy =                       -423.1317916377172423
  Basis Set: CC-PVTZ
  Basis Set:
  Basis Set: CC-PVTZ
  Basis Set:
  @DF-RHF Final Energy:  -423.13179395215406
    Total Energy =                       -423.1317939521544531
  Basis Set: CC-PVTZ
  Basis Set:
  Charge       = 0
  Multiplicity = 1
  Basis Set: CC-PVTZ
  Basis Set:

    Orbital Energies (a.u.)
    -----------------------

    Doubly Occupied:

       1A    -20.595796     2A    -20.529450     3A    -11.366319
       4A    -11.279062     5A    -11.230592     6A    -11.222379
       7A    -11.221319     8A    -11.219519     9A    -11.210822
      10A     -1.471033    11A     -1.363880    12A     -1.094464
      13A     -1.041264    14A     -1.003242    15A     -0.932671
      16A     -0.852454    17A     -0.789808    18A     -0.781533
      19A     -0.692489    20A     -0.687945    21A     -0.672265
      22A     -0.640128    23A     -0.610354    24A     -0.588958
      25A     -0.580030    26A     -0.573050    27A     -0.564196
      28A     -0.530520    29A     -0.527285    30A     -0.512399
      31A     -0.496387    32A     -0.476003    33A     -0.466319
      34A     -0.462775    35A     -0.453207    36A     -0.439301

  @DF-RHF Final Energy:  -423.13179597124503

   => Energetics <=

    Nuclear Repulsion Energy =            457.2499750348749217
    One-Electron Energy =               -1482.4051009975714805
    Two-Electron Energy =                 602.0233299914516465
    DFT Exchange-Correlation Energy =       0.0000000000000000
    Empirical Dispersion Energy =           0.0000000000000000
    PCM Polarization Energy =               0.0000000000000000
    EFP Energy =                            0.0000000000000000
    Total Energy =                       -423.1317959712448555
    Molecular point group: c1
  Basis Set: CC-PVTZ
  Basis Set:

  -Total Gradient:
     Atom            X                  Y                   Z
    ------   -----------------  -----------------  -----------------
       1       -0.000030670189     0.000002050554     0.000000612850
       2        0.000097570741    -0.000100529326     0.000008951511
       3       -0.000047890304     0.000037729334     0.000013867914
       4       -0.000067274568     0.000046071128    -0.000014392739
       5        0.000006376048    -0.000011378933     0.000017828857
       6        0.000001322849     0.000019503586    -0.000001210167
       7        0.000002285483    -0.000006954138    -0.000030108778
       8        0.000055574885     0.000032468271     0.000008923360
       9       -0.001507419410     0.002772023271    -0.002335646459
      10       -0.000001139366    -0.000004784616     0.000004441140
      11       -0.000001908839    -0.000005729522    -0.000003103876
      12       -0.001944869039     0.003287845709    -0.000450233058
      13        0.001562723681    -0.002842233954     0.002022772940
      14        0.000004472949     0.000005558741    -0.000004351426
      15        0.000019771150    -0.000034082111    -0.000002530570
      16        0.001879418558    -0.003213348390     0.000800011663
      17       -0.000003911763     0.000011115522    -0.000007101103
      18       -0.000014561671    -0.000001540347    -0.000001625707
      19        0.000027320608    -0.000008898076    -0.000005245602
      20        0.000005377766     0.000018124414    -0.000024733423
      21       -0.000004415744    -0.000011148301    -0.000000088253
      22       -0.000004981935    -0.000002571724    -0.000000875671
      23       -0.000033171896     0.000010708907     0.000003836597

  **** Optimization is complete! (in 8 steps) ****
    Final optimized geometry and variables:
    Molecular point group: c1

    Geometry (in Angstrom), charge = 0, multiplicity = 1:

    O           -2.640215512233     0.794151129898     0.179126142293
    C           -2.439669064861    -0.372843487418     0.204829870033
    C           -3.532250551253    -1.406792119436     0.249759773648
    O           -1.234004221716    -0.907261852921     0.198068117830
    H           -4.169173212862    -1.271976228881    -0.614094627326
    H           -3.137326085430    -2.410040099176     0.263901812300
    H           -4.133503078180    -1.233665746216     1.132194044496
    C           -0.119970240228    -0.024695740334     0.154215253474
    C            1.132538355148    -0.875320242169     0.139193229003
    H           -0.204858084988     0.597278067696    -0.723770112818
    H           -0.148349431974     0.621525556191     1.021778172172
    C            2.439325157469    -0.082997627659     0.244106223447
    H            1.145016748462    -1.499880488948    -0.748321844189
    H            1.079627443873    -1.562892303939     0.976921880624
    C            2.585743198523     1.093333464868    -0.718538458183
    H            2.578647142239     0.251327167223     1.268994567476
    H            3.254059047996    -0.778567028168     0.063335353054
    C            3.967569115174     1.735053506619    -0.650883478285
    H            1.836417520157     1.848163258293    -0.504087293899
    H            2.396026217119     0.753273630170    -1.733448183653
    H            4.177927729925     2.104327108286     0.347333623713
    H            4.045154455251     2.571452445043    -1.335583709363
    H            4.743367141359     1.022095738697    -0.908844447768

  Mulliken Charges: (a.u.)
   Center  Symbol    Alpha    Beta     Spin     Total
       1     O     4.20252  4.20252  0.00000 -0.40505
       2     C     2.81631  2.81631  0.00000  0.36738
       3     C     3.13976  3.13976  0.00000 -0.27952
       4     O     4.14581  4.14581  0.00000 -0.29162
       5     H     0.44218  0.44218  0.00000  0.11564
       6     H     0.44182  0.44182  0.00000  0.11636
       7     H     0.44215  0.44215  0.00000  0.11569
       8     C     2.97751  2.97751  0.00000  0.04498
       9     C     3.09129  3.09129  0.00000 -0.18258
      10     H     0.45096  0.45096  0.00000  0.09807
      11     H     0.45326  0.45326  0.00000  0.09347
      12     C     3.10295  3.10295  0.00000 -0.20590
      13     H     0.44919  0.44919  0.00000  0.10162
      14     H     0.44627  0.44627  0.00000  0.10747
      15     C     3.09210  3.09210  0.00000 -0.18420
      16     H     0.45014  0.45014  0.00000  0.09971
      17     H     0.44863  0.44863  0.00000  0.10274
      18     C     3.14960  3.14960  0.00000 -0.29920
      19     H     0.45014  0.45014  0.00000  0.09973
      20     H     0.45159  0.45159  0.00000  0.09681
      21     H     0.45443  0.45443  0.00000  0.09115
      22     H     0.44704  0.44704  0.00000  0.10593
      23     H     0.45434  0.45434  0.00000  0.09131

   Total alpha = 36.00000, Total beta = 36.00000, Total charge = -0.00000

*** Psi4 exiting successfully. Buy a developer a beer!
