  ==> Input File <==

--------------------------------------------------------------------------
set {
	reference rhf
	basis 6-31G*
}

set_num_threads( 4 )
memory 2 gb

molecule MOL {
0 1

O	 0.391030	 1.298905	 0.000133
C	 0.503002	 0.111612	 0.000005
C	 -0.702327	 -0.811998	 -0.000075
C	 1.863306	 -0.554493	 0.000030
C	 -2.000238	 -0.122010	 -0.401940
H	 -0.484676	 -1.644959	 -0.666089
H	 -0.788010	 -1.249261	 0.993013
H	 -1.926432	 0.292686	 -1.399837
H	 -2.824342	 -0.827559	 -0.384338
H	 -2.232457	 0.691891	 0.273974
H	 1.974395	 -1.189404	 -0.874166
H	 2.638695	 0.198920	 -0.000196
H	 1.974487	 -1.188655	 0.874727

	symmetry c1
}
set optking {
	frozen_dihedral = ("
		6 3 2 1
	")
}

ee = optimize('scf')
oeprop('DIPOLE', 'QUADRUPOLE', 'MULLIKEN_CHARGES')
f=open( 'psi4out.xyz', 'w' )
f.write( "13  " )
f.write( str(ee) + "\n" )
f.write( MOL.save_string_xyz() )
f.close()
--------------------------------------------------------------------------

    Molecular point group: c1
  Charge       = 0
  Multiplicity = 1
  Basis Set: 6-31G*
  Basis Set:
  @DF-RHF Final Energy:  -230.99735805152886
    Total Energy =                       -230.9973580515288916
    Molecular point group: c1
  Basis Set: 6-31G*
  Basis Set:
  Basis Set: 6-31G*
  Basis Set:
  @DF-RHF Final Energy:  -230.99606915888444
    Total Energy =                       -230.9960691588843247
  Basis Set: 6-31G*
  Basis Set:
  Basis Set: 6-31G*
  Basis Set:
  @DF-RHF Final Energy:  -230.99750405854164
    Total Energy =                       -230.9975040585415229
  Basis Set: 6-31G*
  Basis Set:
  Basis Set: 6-31G*
  Basis Set:
  @DF-RHF Final Energy:  -230.99756714222826
    Total Energy =                       -230.9975671422284051
  Basis Set: 6-31G*
  Basis Set:
  Basis Set: 6-31G*
  Basis Set:
  @DF-RHF Final Energy:  -230.99758564543291
    Total Energy =                       -230.9975856454328209
  Basis Set: 6-31G*
  Basis Set:
  Basis Set: 6-31G*
  Basis Set:
  @DF-RHF Final Energy:  -230.99759787723278
    Total Energy =                       -230.9975978772328062
  Basis Set: 6-31G*
  Basis Set:
  Charge       = 0
  Multiplicity = 1
  Basis Set: 6-31G*
  Basis Set:

    Orbital Energies (a.u.)
    -----------------------

    Doubly Occupied:

       1A    -20.550836     2A    -11.326982     3A    -11.235041
       4A    -11.229306     5A    -11.214808     6A     -1.396462
       7A     -1.061668     8A     -1.000453     9A     -0.878514
      10A     -0.730054    11A     -0.658568    12A     -0.640275
      13A     -0.620775    14A     -0.584057    15A     -0.570674
      16A     -0.521667    17A     -0.514805    18A     -0.507201
      19A     -0.484043    20A     -0.402661

  @DF-RHF Final Energy:  -230.99759848608440

   => Energetics <=

    Nuclear Repulsion Energy =            176.9210295720586998
    One-Electron Energy =                -663.5795551107644314
    Two-Electron Energy =                 255.6609270526211901
    DFT Exchange-Correlation Energy =       0.0000000000000000
    Empirical Dispersion Energy =           0.0000000000000000
    PCM Polarization Energy =               0.0000000000000000
    EFP Energy =                            0.0000000000000000
    Total Energy =                       -230.9975984860845131
    Molecular point group: c1
  Basis Set: 6-31G*
  Basis Set:

  -Total Gradient:
     Atom            X                  Y                   Z
    ------   -----------------  -----------------  -----------------
       1       -0.000011078229     0.000008377760     0.000879349073
       2        0.000102563135    -0.000105478435    -0.001087775804
       3       -0.000412905044     0.000501929323    -0.000460617573
       4       -0.000004802213     0.000017377754     0.000011340950
       5       -0.000002674605     0.000002346750    -0.000004451823
       6        0.000336443233    -0.000411355387     0.000678536010
       7        0.000000399255     0.000005316548    -0.000003172489
       8       -0.000002854462     0.000001930362    -0.000003962646
       9        0.000001582531    -0.000000837351     0.000000179014
      10        0.000000534299     0.000000605426     0.000001044800
      11       -0.000005383480    -0.000005834953    -0.000005277867
      12        0.000002271804    -0.000008406575    -0.000002496522
      13       -0.000004096222    -0.000005971225    -0.000002695124

  **** Optimization is complete! (in 7 steps) ****
    Final optimized geometry and variables:
    Molecular point group: c1

    Geometry (in Angstrom), charge = 0, multiplicity = 1:

    O            0.386108901498     1.307982444131     0.021731398121
    C            0.497742888983     0.121417833265     0.066566055297
    C           -0.708917859833    -0.799668205913     0.100994905888
    C            1.856471114782    -0.544780324190     0.112188514431
    C           -2.013398787467    -0.114744604773    -0.288920534212
    H           -0.510956681528    -1.664389302285    -0.527881165306
    H           -0.773961619804    -1.190704805270     1.116006562009
    H           -1.967764961262     0.259107213409    -1.305524013794
    H           -2.842146844914    -0.811523442706    -0.220291964927
    H           -2.216324459837     0.726552835427     0.361028735099
    H            2.041299812207    -1.059771252785    -0.826751427168
    H            2.625408936304     0.199479957447     0.265906235031
    H            1.899552474324    -1.288720437518     0.901812204354

  Mulliken Charges: (a.u.)
   Center  Symbol    Alpha    Beta     Spin     Total
       1     O     4.26103  4.26103  0.00000 -0.52205
       2     C     2.73586  2.73586  0.00000  0.52828
       3     C     3.20811  3.20811  0.00000 -0.41622
       4     C     3.28763  3.28763  0.00000 -0.57526
       5     C     3.23615  3.23615  0.00000 -0.47229
       6     H     0.41198  0.41198  0.00000  0.17604
       7     H     0.40645  0.40645  0.00000  0.18711
       8     H     0.41394  0.41394  0.00000  0.17212
       9     H     0.41945  0.41945  0.00000  0.16110
      10     H     0.40627  0.40627  0.00000  0.18745
      11     H     0.40639  0.40639  0.00000  0.18723
      12     H     0.39649  0.39649  0.00000  0.20702
      13     H     0.41026  0.41026  0.00000  0.17949

   Total alpha = 20.00000, Total beta = 20.00000, Total charge =  0.00000
