                              Psi4 1.0.54 Driver

  ==> Input File <==

--------------------------------------------------------------------------
set {
	reference rhf
	basis cc-pvtz
}

set_num_threads( 4 )
memory 2 gb

molecule MOL {
0 1

H	 1.235538	 -0.385126	 -1.263483
O	 1.675515	 -0.612943	 -0.465627
C	 1.135873	 0.113391	 0.608264
C	 0.027642	 1.012027	 0.090274
H	 1.902972	 0.727968	 1.072615
H	 0.756163	 -0.561896	 1.370018
C	 -1.138737	 0.285728	 -0.581921
H	 0.464661	 1.708096	 -0.618252
H	 -0.340737	 1.603071	 0.925246
C	 -1.933983	 -0.631436	 0.343653
H	 -0.763151	 -0.285569	 -1.422081
H	 -1.808359	 1.035291	 -0.992333
H	 -2.789188	 -1.049673	 -0.174718
H	 -1.335629	 -1.461368	 0.700418
H	 -2.305435	 -0.092167	 1.209725

	symmetry c1
}
set optking {
	frozen_dihedral = ("
		1 2 3 4
	")
}

ee,wfn = optimize('scf', return_wfn=True)
oeprop( wfn, 'DIPOLE', 'QUADRUPOLE', 'MULLIKEN_CHARGES')
f=open( 'psi4out.xyz', 'w' )
f.write( "15  " )
f.write( str(ee) + "\n" )
f.write( MOL.save_string_xyz() )
f.close()
--------------------------------------------------------------------------

    Molecular point group: c1
  Charge       = 0
  Multiplicity = 1
  Basis Set: CC-PVTZ
  Basis Set:
  @DF-RHF Final Energy:  -232.23255764425747
    Total Energy =                       -232.2325576442574402
    Molecular point group: c1
  Basis Set: CC-PVTZ
  Basis Set:
  Basis Set: CC-PVTZ
  Basis Set:
  @DF-RHF Final Energy:  -232.00961938499213
    Total Energy =                       -232.0096193849920780
  Basis Set: CC-PVTZ
  Basis Set:
  Basis Set: CC-PVTZ
  Basis Set:
  @DF-RHF Final Energy:  -232.14024135098418
    Total Energy =                       -232.1402413509842404
  Basis Set: CC-PVTZ
  Basis Set:
  Basis Set: CC-PVTZ
  Basis Set:
  @DF-RHF Final Energy:  -232.22315341713065
    Total Energy =                       -232.2231534171306748
  Basis Set: CC-PVTZ
  Basis Set:
  @DF-RHF Final Energy:  -232.23297462342194
    Total Energy =                       -232.2329746234216827
  Basis Set: CC-PVTZ
  Basis Set:
  @DF-RHF Final Energy:  -232.23431916359596
    Total Energy =                       -232.2343191635958419
  Basis Set: CC-PVTZ
  Basis Set:
  Basis Set: CC-PVTZ
  Basis Set:
  @DF-RHF Final Energy:  -232.23452072036088
    Total Energy =                       -232.2345207203611039
  Basis Set: CC-PVTZ
  Basis Set:
  Basis Set: CC-PVTZ
  Basis Set:
  @DF-RHF Final Energy:  -232.23451356846991
    Total Energy =                       -232.2345135684698789
  Basis Set: CC-PVTZ
  Basis Set:
  Charge       = 0
  Multiplicity = 1
  Basis Set: CC-PVTZ
  Basis Set:

    Orbital Energies (a.u.)
    -----------------------

    Doubly Occupied:

       1A    -20.542895     2A    -11.264256     3A    -11.224222
       4A    -11.222675     5A    -11.212080     6A     -1.361242
       7A     -1.074816     8A     -0.977062     9A     -0.883525
      10A     -0.794311    11A     -0.671566    12A     -0.650799
      13A     -0.635139    14A     -0.587735    15A     -0.577530
      16A     -0.548135    17A     -0.507663    18A     -0.485046
      19A     -0.480774    20A     -0.458150    21A     -0.432351

  @DF-RHF Final Energy:  -232.23454138865003

   => Energetics <=

    Nuclear Repulsion Energy =            191.6525610863245674
    One-Electron Energy =                -694.5902612847763749
    Two-Electron Energy =                 270.7031588098019483
    DFT Exchange-Correlation Energy =       0.0000000000000000
    Empirical Dispersion Energy =           0.0000000000000000
    PCM Polarization Energy =               0.0000000000000000
    EFP Energy =                            0.0000000000000000
    Total Energy =                       -232.2345413886498591
    Molecular point group: c1
  Basis Set: CC-PVTZ
  Basis Set:

  -Total Gradient:
     Atom            X                  Y                   Z
    ------   -----------------  -----------------  -----------------
       1       -0.000424371339    -0.000417848010    -0.000164705929
       2        0.000581371811     0.000574765153     0.000263865298
       3       -0.000358300815    -0.000379065682    -0.000163652548
       4        0.000207047968     0.000177159413     0.000074449889
       5       -0.000032285808    -0.000010270886     0.000022009000
       6        0.000024241025    -0.000059022532    -0.000010250258
       7       -0.000014707526     0.000036501587     0.000086447305
       8        0.000092235634     0.000077925326    -0.000006950670
       9       -0.000054840329     0.000058635631     0.000050191378
      10       -0.000023200041     0.000007427634    -0.000024204484
      11        0.000069048462    -0.000073337958    -0.000052966765
      12       -0.000024175854     0.000091426419    -0.000109158611
      13       -0.000031415017    -0.000007393845    -0.000010546318
      14       -0.000002558982    -0.000081893505     0.000048576726
      15       -0.000008089186     0.000004991255    -0.000003104015

  **** Optimization is complete! (in 9 steps) ****
    Final optimized geometry and variables:
    Molecular point group: c1

    Geometry (in Angstrom), charge = 0, multiplicity = 1:

    H            1.819056576429    -0.610347785618    -0.204064205077
    O            1.611271788928    -0.810677067093     0.688410871583
    C            0.570804928069     0.010778699118     1.155847974563
    C            0.052033131502     0.998574720041     0.120760515268
    H            0.936917247470     0.563906294268     2.013891302815
    H           -0.231051065513    -0.628461928489     1.506735437912
    C           -0.572212986040     0.382269615953    -1.135072310191
    H            0.871254325213     1.651245665263    -0.171951794258
    H           -0.682957596346     1.633107271519     0.608195286961
    C           -1.828525843888    -0.445183980258    -0.877060932302
    H            0.157149912061    -0.234001212856    -1.654257876602
    H           -0.813921400388     1.189199414209    -1.819517607846
    H           -2.262735811631    -0.782454223306    -1.810952714617
    H           -1.616656945638    -1.323950713642    -0.280437492452
    H           -2.579947913821     0.138702881562    -0.355453213755

  Mulliken Charges: (a.u.)
   Center  Symbol    Alpha    Beta     Spin     Total
       1     H     0.39091  0.39091  0.00000  0.21818
       2     O     4.20974  4.20974  0.00000 -0.41948
       3     C     2.95707  2.95707  0.00000  0.08585
       4     C     3.11901  3.11901  0.00000 -0.23801
       5     H     0.46136  0.46136  0.00000  0.07728
       6     H     0.47041  0.47041  0.00000  0.05919
       7     C     3.08655  3.08655  0.00000 -0.17309
       8     H     0.44488  0.44488  0.00000  0.11023
       9     H     0.45114  0.45114  0.00000  0.09772
      10     C     3.15309  3.15309  0.00000 -0.30618
      11     H     0.45988  0.45988  0.00000  0.08023
      12     H     0.44661  0.44661  0.00000  0.10678
      13     H     0.44568  0.44568  0.00000  0.10865
      14     H     0.44934  0.44934  0.00000  0.10132
      15     H     0.45434  0.45434  0.00000  0.09133

   Total alpha = 21.00000, Total beta = 21.00000, Total charge = -0.00000

*** Psi4 exiting successfully. Buy a developer a beer!
