                              Psi4 1.0.54 Driver

  ==> Input File <==

--------------------------------------------------------------------------
set {
	reference rhf
	basis cc-pvtz
}

set_num_threads( 4 )
memory 2 gb

molecule MOL {
0 1

O	 -2.440701	 -0.934798	 -0.415053
C	 -1.922978	 0.063265	 -0.045005
C	 -2.632749	 1.372204	 0.158357
O	 -0.637375	 0.157174	 0.243149
H	 -2.187724	 2.129143	 -0.474664
H	 -3.677681	 1.257276	 -0.079438
H	 -2.516788	 1.693160	 1.185542
C	 0.162530	 -1.009518	 0.097799
C	 1.587210	 -0.664190	 0.477086
H	 0.096803	 -1.356267	 -0.924704
H	 -0.233803	 -1.785900	 0.736810
C	 2.256770	 0.342732	 -0.454344
H	 2.154716	 -1.590834	 0.479041
H	 1.598751	 -0.289614	 1.496104
C	 3.743973	 0.514144	 -0.163724
H	 2.124941	 0.018639	 -1.483268
H	 1.757587	 1.300843	 -0.366687
H	 4.194643	 1.230209	 -0.840874
H	 4.277033	 -0.424664	 -0.272717
H	 3.906120	 0.869436	 0.848448

	symmetry c1
}
set optking {
	frozen_dihedral = ("
		16 12 9 8
	")
}

ee,wfn = optimize('scf', return_wfn=True)
oeprop( wfn, 'DIPOLE', 'QUADRUPOLE', 'MULLIKEN_CHARGES')
f=open( 'psi4out.xyz', 'w' )
f.write( "20  " )
f.write( str(ee) + "\n" )
f.write( MOL.save_string_xyz() )
f.close()
--------------------------------------------------------------------------

    Molecular point group: c1
  Charge       = 0
  Multiplicity = 1
  Basis Set: CC-PVTZ
  Basis Set:
  @DF-RHF Final Energy:  -384.08737533220926
    Total Energy =                       -384.0873753322096036
    Molecular point group: c1
  Basis Set: CC-PVTZ
  Basis Set:
  Basis Set: CC-PVTZ
  Basis Set:
  @DF-RHF Final Energy:  -384.08739173330190
    Total Energy =                       -384.0873917333024110
  Basis Set: CC-PVTZ
  Basis Set:
  Basis Set: CC-PVTZ
  Basis Set:
  @DF-RHF Final Energy:  -384.08727937750587
    Total Energy =                       -384.0872793775058653
  Basis Set: CC-PVTZ
  Basis Set:
  Basis Set: CC-PVTZ
  Basis Set:
  @DF-RHF Final Energy:  -384.08740595650141
    Total Energy =                       -384.0874059565014704
  Basis Set: CC-PVTZ
  Basis Set:
  Charge       = 0
  Multiplicity = 1
  Basis Set: CC-PVTZ
  Basis Set:

    Orbital Energies (a.u.)
    -----------------------

    Doubly Occupied:

       1A    -20.594266     2A    -20.532596     3A    -11.366591
       4A    -11.280205     5A    -11.231620     6A    -11.223604
       7A    -11.218952     8A    -11.211795     9A     -1.470961
      10A     -1.365086    11A     -1.087249    12A     -1.029260
      13A     -0.982400    14A     -0.881329    15A     -0.812734
      16A     -0.776404    17A     -0.692395    18A     -0.687090
      19A     -0.670253    20A     -0.632529    21A     -0.600941
      22A     -0.594416    23A     -0.572932    24A     -0.551288
      25A     -0.547609    26A     -0.532700    27A     -0.512414
      28A     -0.484647    29A     -0.475472    30A     -0.474050
      31A     -0.451876    32A     -0.441989

  @DF-RHF Final Energy:  -384.08740661181577

   => Energetics <=

    Nuclear Repulsion Energy =            385.5812689051414850
    One-Electron Energy =               -1287.3620441104767451
    Two-Electron Energy =                 517.6933685935197218
    DFT Exchange-Correlation Energy =       0.0000000000000000
    Empirical Dispersion Energy =           0.0000000000000000
    PCM Polarization Energy =               0.0000000000000000
    EFP Energy =                            0.0000000000000000
    Total Energy =                       -384.0874066118154815
    Molecular point group: c1
  Basis Set: CC-PVTZ
  Basis Set:

  -Total Gradient:
     Atom            X                  Y                   Z
    ------   -----------------  -----------------  -----------------
       1       -0.000030347225    -0.000018867524    -0.000005640657
       2        0.000028379123     0.000011204422    -0.000048343688
       3        0.000004710980    -0.000010653823     0.000012424638
       4        0.000004772266     0.000039184638    -0.000024365840
       5        0.000005815880    -0.000003100123    -0.000000263033
       6       -0.000002536058    -0.000004389399     0.000002459654
       7       -0.000003921450     0.000004406861     0.000010540518
       8        0.000302180203    -0.000767842569    -0.000430287297
       9       -0.000702553613     0.001186510333     0.000744912323
      10       -0.000013825359     0.000017650065    -0.000023735618
      11        0.000020613243    -0.000004732840    -0.000024450061
      12        0.001520113481    -0.001111863491    -0.000122249484
      13        0.000008610037    -0.000007172012     0.000003346085
      14       -0.000016384483     0.000000624242    -0.000016121554
      15        0.000005686538    -0.000020233475    -0.000012766923
      16       -0.001125962569     0.000685168207    -0.000061601296
      17       -0.000001665539     0.000005364043     0.000000265017
      18        0.000002358445     0.000005468662    -0.000014062585
      19        0.000006122999    -0.000013225900     0.000004760605
      20       -0.000012166900     0.000006499684     0.000005179195

  **** Optimization is complete! (in 5 steps) ****
    Final optimized geometry and variables:
    Molecular point group: c1

    Geometry (in Angstrom), charge = 0, multiplicity = 1:

    O           -2.440984867073    -0.914759428741    -0.425628187305
    C           -1.925213850253     0.081627790323    -0.048405039735
    C           -2.633336420073     1.392662757142     0.144821396880
    O           -0.643158928857     0.171225164491     0.256099623146
    H           -2.177821955561     2.147235625658    -0.483495803096
    H           -3.675608145287     1.280850824109    -0.105846222831
    H           -2.528968177549     1.714149343533     1.173036028672
    C            0.153991703355    -0.998926832182     0.122259752175
    C            1.578565021081    -0.656473316992     0.503104831550
    H            0.092171216331    -1.351664904847    -0.898299772946
    H           -0.247120978003    -1.770209829908     0.764429283774
    C            2.248092669891     0.357855998176    -0.420924666536
    H            2.142192762871    -1.585681087193     0.489924183844
    H            1.597749078110    -0.295322734277     1.526606287472
    C            3.731556359868     0.540667898433    -0.121302527729
    H            2.116911343033     0.043571723238    -1.452908855684
    H            1.740608122495     1.311606266099    -0.330760720472
    H            4.176452096429     1.274938892206    -0.782573550109
    H            4.275616891020    -0.389731180459    -0.245691072498
    H            3.885382321722     0.878556300403     0.898205850592

  Mulliken Charges: (a.u.)
   Center  Symbol    Alpha    Beta     Spin     Total
       1     O     4.19739  4.19739  0.00000 -0.39478
       2     C     2.80870  2.80870  0.00000  0.38261
       3     C     3.13843  3.13843  0.00000 -0.27686
       4     O     4.15340  4.15340  0.00000 -0.30681
       5     H     0.44604  0.44604  0.00000  0.10791
       6     H     0.43780  0.43780  0.00000  0.12439
       7     H     0.44573  0.44573  0.00000  0.10854
       8     C     2.99419  2.99419  0.00000  0.01161
       9     C     3.08432  3.08432  0.00000 -0.16864
      10     H     0.45073  0.45073  0.00000  0.09855
      11     H     0.44474  0.44474  0.00000  0.11052
      12     C     3.08538  3.08538  0.00000 -0.17076
      13     H     0.45262  0.45262  0.00000  0.09476
      14     H     0.45109  0.45109  0.00000  0.09783
      15     C     3.14994  3.14994  0.00000 -0.29989
      16     H     0.45515  0.45515  0.00000  0.08970
      17     H     0.44730  0.44730  0.00000  0.10539
      18     H     0.44733  0.44733  0.00000  0.10535
      19     H     0.45530  0.45530  0.00000  0.08939
      20     H     0.45441  0.45441  0.00000  0.09118

   Total alpha = 32.00000, Total beta = 32.00000, Total charge =  0.00000

*** Psi4 exiting successfully. Buy a developer a beer!
