                              Psi4 1.0.54 Driver

  ==> Input File <==

--------------------------------------------------------------------------
set {
	reference rhf
	basis cc-pvtz
}

set_num_threads( 4 )
memory 2 gb

molecule MOL {
0 1

H	 -1.528165	 2.952932	 2.119516
O	 -1.295161	 2.136214	 1.718596
C	 -0.322206	 2.344474	 0.727635
C	 0.027642	 1.012027	 0.090274
H	 0.575432	 2.775647	 1.163642
H	 -0.686728	 3.042555	 -0.020876
C	 -1.138737	 0.285728	 -0.581921
H	 0.444587	 0.371587	 0.860663
H	 0.818228	 1.186375	 -0.635531
C	 -1.933983	 -0.631436	 0.343653
H	 -0.763151	 -0.285569	 -1.422081
H	 -1.808359	 1.035291	 -0.992333
H	 -2.789188	 -1.049673	 -0.174718
H	 -1.335629	 -1.461368	 0.700418
H	 -2.305435	 -0.092167	 1.209725

	symmetry c1
}
set optking {
	frozen_dihedral = ("
		8 4 7 11
	")
}

ee,wfn = optimize('scf', return_wfn=True)
oeprop( wfn, 'DIPOLE', 'QUADRUPOLE', 'MULLIKEN_CHARGES')
f=open( 'psi4out.xyz', 'w' )
f.write( "15  " )
f.write( str(ee) + "\n" )
f.write( MOL.save_string_xyz() )
f.close()
--------------------------------------------------------------------------

    Molecular point group: c1
  Charge       = 0
  Multiplicity = 1
  Basis Set: CC-PVTZ
  Basis Set:
  @DF-RHF Final Energy:  -232.23516892066669
    Total Energy =                       -232.2351689206666379
    Molecular point group: c1
  Basis Set: CC-PVTZ
  Basis Set:
  Basis Set: CC-PVTZ
  Basis Set:
  @DF-RHF Final Energy:  -232.23559345928419
    Total Energy =                       -232.2355934592842459
  Basis Set: CC-PVTZ
  Basis Set:
  Basis Set: CC-PVTZ
  Basis Set:
  @DF-RHF Final Energy:  -232.23563532789092
    Total Energy =                       -232.2356353278909182
  Basis Set: CC-PVTZ
  Basis Set:
  Basis Set: CC-PVTZ
  Basis Set:
  @DF-RHF Final Energy:  -232.23563833625053
    Total Energy =                       -232.2356383362505881
  Basis Set: CC-PVTZ
  Basis Set:
  Charge       = 0
  Multiplicity = 1
  Basis Set: CC-PVTZ
  Basis Set:

    Orbital Energies (a.u.)
    -----------------------

    Doubly Occupied:

       1A    -20.547604     2A    -11.266716     3A    -11.211456
       4A    -11.208985     5A    -11.194312     6A     -1.365520
       7A     -1.062962     8A     -0.972288     9A     -0.859440
      10A     -0.782420    11A     -0.708398    12A     -0.645213
      13A     -0.603329    14A     -0.587339    15A     -0.548739
      16A     -0.537493    17A     -0.509472    18A     -0.471513
      19A     -0.466949    20A     -0.451980    21A     -0.432512

  @DF-RHF Final Energy:  -232.23563867226167

   => Energetics <=

    Nuclear Repulsion Energy =            192.1833599893842290
    One-Electron Energy =                -695.9687137203810607
    Two-Electron Energy =                 271.5497150587352735
    DFT Exchange-Correlation Energy =       0.0000000000000000
    Empirical Dispersion Energy =           0.0000000000000000
    PCM Polarization Energy =               0.0000000000000000
    EFP Energy =                            0.0000000000000000
    Total Energy =                       -232.2356386722615298
    Molecular point group: c1
  Basis Set: CC-PVTZ
  Basis Set:

  -Total Gradient:
     Atom            X                  Y                   Z
    ------   -----------------  -----------------  -----------------
       1       -0.000000957288     0.000005227055     0.000007381588
       2        0.000013602618     0.000014801383    -0.000012531219
       3       -0.000009314515    -0.000000704318    -0.000004628410
       4        0.001097190224    -0.000467274538    -0.001355372940
       5       -0.000016367974    -0.000010292006     0.000005763548
       6       -0.000004101252     0.000005755156     0.000007419404
       7        0.000013281768    -0.001242213754     0.001267637438
       8       -0.000896263072     0.000570094140     0.000941288664
       9       -0.000000530381     0.000001554380    -0.000005303749
      10       -0.000009803096    -0.000005500453    -0.000028156327
      11       -0.000186378711     0.001110852463    -0.000848170960
      12       -0.000006101716    -0.000002448611     0.000004725957
      13        0.000013098335     0.000003818289     0.000009015023
      14        0.000005279263     0.000006038089    -0.000007946925
      15       -0.000012634201     0.000010292728     0.000018878911

  **** Optimization is complete! (in 5 steps) ****
    Final optimized geometry and variables:
    Molecular point group: c1

    Geometry (in Angstrom), charge = 0, multiplicity = 1:

    H           -0.526404401490     1.940904963594     1.611174701706
    O           -0.301370283087     1.107322162076     1.241575804285
    C            0.632756170393     1.275690179674     0.206896003457
    C            0.971313807644    -0.070221295818    -0.407451906347
    H            1.541179692555     1.732707151467     0.591868067381
    H            0.231856613928     1.935926736892    -0.559578222093
    C           -0.206468940910    -0.785481699166    -1.086281193568
    H            1.391043231991    -0.702373324558     0.369012693522
    H            1.758898286469     0.104840074355    -1.133870543691
    C           -1.003286675979    -1.708400861539    -0.168356120732
    H            0.171546184266    -1.360751528557    -1.925501076264
    H           -0.872921725498    -0.042698625090    -1.516277438761
    H           -1.816008798062    -2.180439012104    -0.709767671095
    H           -0.370892631068    -2.496662707887     0.227484678089
    H           -1.420364907187    -1.164539080190     0.667482146611

  Mulliken Charges: (a.u.)
   Center  Symbol    Alpha    Beta     Spin     Total
       1     H     0.39694  0.39694  0.00000  0.20613
       2     O     4.19656  4.19656  0.00000 -0.39312
       3     C     2.97162  2.97162  0.00000  0.05677
       4     C     3.09574  3.09574  0.00000 -0.19148
       5     H     0.46612  0.46612  0.00000  0.06775
       6     H     0.47478  0.47478  0.00000  0.05045
       7     C     3.08337  3.08337  0.00000 -0.16674
       8     H     0.45333  0.45333  0.00000  0.09334
       9     H     0.44816  0.44816  0.00000  0.10368
      10     C     3.14623  3.14623  0.00000 -0.29246
      11     H     0.45073  0.45073  0.00000  0.09853
      12     H     0.45842  0.45842  0.00000  0.08317
      13     H     0.45332  0.45332  0.00000  0.09337
      14     H     0.45940  0.45940  0.00000  0.08120
      15     H     0.44529  0.44529  0.00000  0.10942

   Total alpha = 21.00000, Total beta = 21.00000, Total charge = -0.00000

*** Psi4 exiting successfully. Buy a developer a beer!
