                              Psi4 1.0.54 Driver

  ==> Input File <==

--------------------------------------------------------------------------
set {
	reference rhf
	basis cc-pvtz
}

set_num_threads( 4 )
memory 2 gb

molecule MOL {
0 1

O	 0.447586	 1.150655	 -0.664613
C	 0.485107	 0.171416	 -0.000134
C	 1.606966	 -0.836201	 0.000174
O	 -0.471109	 -0.172256	 0.844926
C	 2.988788	 -0.202529	 -0.000115
H	 1.465110	 -1.474645	 -0.864821
H	 1.465209	 -1.474077	 0.865596
H	 3.131767	 0.419673	 -0.873407
H	 3.750876	 -0.972315	 0.000098
H	 3.131883	 0.420264	 0.872742
C	 -1.598706	 0.684969	 0.954366
C	 -2.540502	 0.081619	 1.969983
H	 -2.067133	 0.777613	 -0.015345
H	 -1.266687	 1.668373	 1.256033
H	 -2.865361	 -0.902951	 1.657795
H	 -3.414681	 0.712775	 2.078092
H	 -2.060404	 -0.007065	 2.936425

	symmetry c1
}
set optking {
	frozen_dihedral = ("
		4 2 3 6
	")
}

ee,wfn = optimize('scf', return_wfn=True)
oeprop( wfn, 'DIPOLE', 'QUADRUPOLE', 'MULLIKEN_CHARGES')
f=open( 'psi4out.xyz', 'w' )
f.write( "17  " )
f.write( str(ee) + "\n" )
f.write( MOL.save_string_xyz() )
f.close()
--------------------------------------------------------------------------

    Molecular point group: c1
  Charge       = 0
  Multiplicity = 1
  Basis Set: CC-PVTZ
  Basis Set:
  @DF-RHF Final Energy:  -345.03895296999997
    Total Energy =                       -345.0389529700004232
    Molecular point group: c1
  Basis Set: CC-PVTZ
  Basis Set:
  Basis Set: CC-PVTZ
  Basis Set:
  @DF-RHF Final Energy:  -345.03917709309610
    Total Energy =                       -345.0391770930961002
  Basis Set: CC-PVTZ
  Basis Set:
  Basis Set: CC-PVTZ
  Basis Set:
  @DF-RHF Final Energy:  -345.03938524866879
    Total Energy =                       -345.0393852486686228
  Basis Set: CC-PVTZ
  Basis Set:
  Basis Set: CC-PVTZ
  Basis Set:
  @DF-RHF Final Energy:  -345.03939422221453
    Total Energy =                       -345.0393942222145256
  Basis Set: CC-PVTZ
  Basis Set:
  Basis Set: CC-PVTZ
  Basis Set:
  @DF-RHF Final Energy:  -345.03945840468373
    Total Energy =                       -345.0394584046836144
  Basis Set: CC-PVTZ
  Basis Set:
  Charge       = 0
  Multiplicity = 1
  Basis Set: CC-PVTZ
  Basis Set:

    Orbital Energies (a.u.)
    -----------------------

    Doubly Occupied:

       1A    -20.595560     2A    -20.530755     3A    -11.363499
       4A    -11.282725     5A    -11.235122     6A    -11.220609
       7A    -11.217163     8A     -1.471028     9A     -1.364134
      10A     -1.070615    11A     -1.033053    12A     -0.910936
      13A     -0.849852    14A     -0.776877    15A     -0.696984
      16A     -0.690614    17A     -0.668956    18A     -0.625553
      19A     -0.590395    20A     -0.576331    21A     -0.556970
      22A     -0.528859    23A     -0.524345    24A     -0.511766
      25A     -0.504239    26A     -0.492826    27A     -0.455987
      28A     -0.437495

  @DF-RHF Final Energy:  -345.03945848005816

   => Energetics <=

    Nuclear Repulsion Energy =            315.3650459389468210
    One-Electron Energy =               -1095.2425109712366975
    Two-Electron Energy =                 434.8380065522313771
    DFT Exchange-Correlation Energy =       0.0000000000000000
    Empirical Dispersion Energy =           0.0000000000000000
    PCM Polarization Energy =               0.0000000000000000
    EFP Energy =                            0.0000000000000000
    Total Energy =                       -345.0394584800584425
    Molecular point group: c1
  Basis Set: CC-PVTZ
  Basis Set:

  -Total Gradient:
     Atom            X                  Y                   Z
    ------   -----------------  -----------------  -----------------
       1        0.000001632188     0.000015357161    -0.000020248909
       2       -0.000415670218    -0.000412280686    -0.001018913197
       3       -0.000604266509    -0.000639096700     0.000861771093
       4        0.000406856323     0.000368175141     0.000667664430
       5       -0.000026965630    -0.000006463204    -0.000006650222
       6        0.000620134784     0.000661879673    -0.000521632342
       7       -0.000004117319    -0.000015211675     0.000008871444
       8        0.000009018327     0.000009301653    -0.000008102517
       9        0.000004575267    -0.000004943785    -0.000000388313
      10        0.000002427375     0.000004086167     0.000009195615
      11        0.000028002203     0.000028745724     0.000055340101
      12       -0.000012324746    -0.000002864792    -0.000014770130
      13        0.000007246126    -0.000015600498    -0.000008484002
      14       -0.000010249211     0.000013391173    -0.000003695504
      15       -0.000006016108    -0.000009185666     0.000001166047
      16       -0.000007822555     0.000001301790     0.000001103129
      17        0.000007539703     0.000003408526    -0.000002226724

  **** Optimization is complete! (in 6 steps) ****
    Final optimized geometry and variables:
    Molecular point group: c1

    Geometry (in Angstrom), charge = 0, multiplicity = 1:

    O            0.423746117349     1.053289749218    -1.013618033539
    C            0.388349201685     0.039288980059    -0.401867568249
    C            1.468645454764    -1.014328777683    -0.440733744715
    O           -0.617775778510    -0.301259648946     0.382077227128
    C            2.869506366236    -0.411564949195    -0.442261007867
    H            1.312561789462    -1.572471611612    -1.358827333428
    H            1.329894735009    -1.699645533491     0.382745781526
    H            2.991626466401     0.273247671420    -1.269196131631
    H            3.612211541964    -1.194908764227    -0.528561540149
    H            3.061418768325     0.132645001535     0.474960131854
    C           -1.720636638329     0.591047116932     0.468285064374
    C           -2.733069819611    -0.016316306857     1.410938183214
    H           -2.134517780101     0.736283469831    -0.519580347597
    H           -1.371045420725     1.549760514253     0.824126337010
    H           -3.074298291931    -0.976392475776     1.044613903306
    H           -3.589976848274     0.640975074885     1.499720161607
    H           -2.306601581914    -0.157912895382     2.396056201929

  Mulliken Charges: (a.u.)
   Center  Symbol    Alpha    Beta     Spin     Total
       1     O     4.20194  4.20194  0.00000 -0.40388
       2     C     2.81325  2.81325  0.00000  0.37349
       3     C     3.08711  3.08711  0.00000 -0.17423
       4     O     4.14794  4.14794  0.00000 -0.29588
       5     C     3.14304  3.14304  0.00000 -0.28607
       6     H     0.44654  0.44654  0.00000  0.10692
       7     H     0.43879  0.43879  0.00000  0.12243
       8     H     0.44172  0.44172  0.00000  0.11656
       9     H     0.45002  0.45002  0.00000  0.09996
      10     H     0.45359  0.45359  0.00000  0.09283
      11     C     2.97769  2.97769  0.00000  0.04462
      12     C     3.13319  3.13319  0.00000 -0.26638
      13     H     0.45422  0.45422  0.00000  0.09156
      14     H     0.45397  0.45397  0.00000  0.09207
      15     H     0.45138  0.45138  0.00000  0.09723
      16     H     0.45425  0.45425  0.00000  0.09151
      17     H     0.45137  0.45137  0.00000  0.09726

   Total alpha = 28.00000, Total beta = 28.00000, Total charge = -0.00000

*** Psi4 exiting successfully. Buy a developer a beer!
