                              Psi4 1.0.54 Driver

  ==> Input File <==

--------------------------------------------------------------------------
set {
	reference rhf
	basis cc-pvtz
}

set_num_threads( 4 )
memory 2 gb

molecule MOL {
0 1

H	 -2.469190	 -1.731311	 -1.157272
N	 -1.557891	 -1.680955	 -0.754694
C	 -1.428520	 -0.513372	 0.097454
H	 -0.899539	 -1.632250	 -1.503156
C	 -0.041058	 -0.442972	 0.692971
H	 -1.628583	 0.424489	 -0.419203
H	 -2.142145	 -0.595734	 0.909863
O	 0.881195	 -0.248324	 -0.336237
H	 0.014161	 0.379193	 1.405128
H	 0.176782	 -1.367759	 1.222352
C	 2.208068	 -0.234417	 0.074171
H	 2.725499	 -1.027054	 -0.446768
H	 2.688377	 0.712084	 -0.164856
H	 2.295137	 -0.403407	 1.144883

	symmetry c1
}
set optking {
	frozen_dihedral = ("
		5 8 11 13
	")
}

ee,wfn = optimize('scf', return_wfn=True)
oeprop( wfn, 'DIPOLE', 'QUADRUPOLE', 'MULLIKEN_CHARGES')
f=open( 'psi4out.xyz', 'w' )
f.write( "14  " )
f.write( str(ee) + "\n" )
f.write( MOL.save_string_xyz() )
f.close()
--------------------------------------------------------------------------

    Molecular point group: c1
  Charge       = 0
  Multiplicity = 1
  Basis Set: CC-PVTZ
  Basis Set:
  @DF-RHF Final Energy:  -248.22212207256544
    Total Energy =                       -248.2221220725652984
    Molecular point group: c1
  Basis Set: CC-PVTZ
  Basis Set:
  Basis Set: CC-PVTZ
  Basis Set:
  @DF-RHF Final Energy:  -248.22250546221383
    Total Energy =                       -248.2225054622138600
  Basis Set: CC-PVTZ
  Basis Set:
  Basis Set: CC-PVTZ
  Basis Set:
  @DF-RHF Final Energy:  -248.22258540809926
    Total Energy =                       -248.2225854080991212
  Basis Set: CC-PVTZ
  Basis Set:
  Charge       = 0
  Multiplicity = 1
  Basis Set: CC-PVTZ
  Basis Set:

    Orbital Energies (a.u.)
    -----------------------

    Doubly Occupied:

       1A    -20.547167     2A    -15.523061     3A    -11.264444
       4A    -11.263226     5A    -11.239343     6A     -1.379619
       7A     -1.175493     8A     -1.000388     9A     -0.907913
      10A     -0.815302    11A     -0.683839    12A     -0.673428
      13A     -0.644911    14A     -0.611407    15A     -0.607642
      16A     -0.540169    17A     -0.536355    18A     -0.497251
      19A     -0.473398    20A     -0.414582    21A     -0.383458

  @DF-RHF Final Energy:  -248.22258612896275

   => Energetics <=

    Nuclear Repulsion Energy =            194.4050120000741799
    One-Electron Energy =                -722.8904088189833601
    Two-Electron Energy =                 280.2628106899464342
    DFT Exchange-Correlation Energy =       0.0000000000000000
    Empirical Dispersion Energy =           0.0000000000000000
    PCM Polarization Energy =               0.0000000000000000
    EFP Energy =                            0.0000000000000000
    Total Energy =                       -248.2225861289627460
    Molecular point group: c1
  Basis Set: CC-PVTZ
  Basis Set:

  -Total Gradient:
     Atom            X                  Y                   Z
    ------   -----------------  -----------------  -----------------
       1        0.000009183314     0.000008561363     0.000002067154
       2        0.000010081046     0.000015667874    -0.000000472429
       3       -0.000057453580    -0.000053149671     0.000081274641
       4        0.000000029281     0.000006018119    -0.000009864128
       5       -0.000083428998     0.000071555820    -0.000040634513
       6        0.000040284674    -0.000032391248     0.000015852129
       7       -0.000062146223    -0.000004175912     0.000003645304
       8        0.000165254839    -0.000005936323     0.000015641049
       9       -0.000001767896    -0.000018080527     0.000014243580
      10        0.000000451200     0.000017366545    -0.000041294568
      11       -0.000042291247     0.000020184921    -0.000002395142
      12        0.000011639881    -0.000008977642     0.000003898949
      13        0.000023465238    -0.000015838024    -0.000037718203
      14       -0.000013301525    -0.000000805297    -0.000004243824

  **** Optimization is complete! (in 4 steps) ****
    Final optimized geometry and variables:
    Molecular point group: c1

    Geometry (in Angstrom), charge = 0, multiplicity = 1:

    H           -2.531284840527    -1.032296238410    -1.076888730131
    N           -1.619361060546    -1.007437336340    -0.673396427228
    C           -1.452622559730     0.165018570135     0.165348292939
    H           -0.958954699436    -0.988258869650    -1.421350166775
    C           -0.064595177179     0.196474765849     0.762827591131
    H           -1.620105540738     1.102762107140    -0.362905715328
    H           -2.169930529829     0.116483082485     0.977436928895
    O            0.862880651099     0.341945147178    -0.271701102221
    H            0.015364466258     1.027327309379     1.461664435424
    H            0.117454908728    -0.727132913244     1.306086301649
    C            2.207924882974     0.320827148564     0.097424604389
    H            2.715590164295    -0.491765339882    -0.409436868564
    H            2.681151073820     1.254620067980    -0.184212315199
    H            2.332011014746     0.184757272631     1.166456306271

  Mulliken Charges: (a.u.)
   Center  Symbol    Alpha    Beta     Spin     Total
       1     H     0.43036  0.43036  0.00000  0.13928
       2     N     3.69428  3.69428  0.00000 -0.38855
       3     C     3.02434  3.02434  0.00000 -0.04867
       4     H     0.42216  0.42216  0.00000  0.15568
       5     C     2.96753  2.96753  0.00000  0.06493
       6     H     0.46489  0.46489  0.00000  0.07022
       7     H     0.45875  0.45875  0.00000  0.08251
       8     O     4.18479  4.18479  0.00000 -0.36957
       9     H     0.46985  0.46985  0.00000  0.06030
      10     H     0.46883  0.46883  0.00000  0.06234
      11     C     3.02697  3.02697  0.00000 -0.05393
      12     H     0.45715  0.45715  0.00000  0.08570
      13     H     0.45857  0.45857  0.00000  0.08285
      14     H     0.47154  0.47154  0.00000  0.05692

   Total alpha = 21.00000, Total beta = 21.00000, Total charge =  0.00000

*** Psi4 exiting successfully. Buy a developer a beer!
