                              Psi4 1.0.54 Driver

  ==> Input File <==

--------------------------------------------------------------------------
set {
	reference rhf
	basis cc-pvtz
}

set_num_threads( 4 )
memory 2 gb

molecule MOL {
0 1

H	 2.614283	 2.028610	 0.296620
O	 3.358864	 1.662087	 -0.142800
C	 3.565468	 0.338079	 0.273842
C	 2.533667	 -0.637565	 -0.272227
H	 4.548038	 0.064914	 -0.086598
H	 3.593945	 0.282242	 1.360360
C	 3.063343	 -1.564899	 -1.363713
H	 2.145801	 -1.227679	 0.552688
H	 1.701330	 -0.058459	 -0.664974
C	 1.991648	 -2.506938	 -1.910401
H	 3.889463	 -2.147350	 -0.969657
H	 3.463466	 -0.967339	 -2.181093
C	 2.448467	 -3.408552	 -3.058732
H	 1.611199	 -3.123528	 -1.099659
H	 1.151657	 -1.910545	 -2.255655
C	 3.487443	 -4.462307	 -2.679429
H	 1.575801	 -3.913967	 -3.463130
H	 2.839556	 -2.791869	 -3.864900
C	 3.836616	 -5.399208	 -3.832991
H	 3.113209	 -5.049079	 -1.843297
H	 4.396868	 -3.982029	 -2.331173
C	 4.876463	 -6.450195	 -3.458777
H	 2.933375	 -5.894097	 -4.179138
H	 4.202707	 -4.813763	 -4.672213
H	 4.526614	 -7.073602	 -2.642563
H	 5.099043	 -7.099209	 -4.298030
H	 5.805825	 -5.987092	 -3.143858

	symmetry c1
}
set optking {
	frozen_dihedral = ("
		8 4 3 2
	")
}

ee,wfn = optimize('scf', return_wfn=True)
oeprop( wfn, 'DIPOLE', 'QUADRUPOLE', 'MULLIKEN_CHARGES')
f=open( 'psi4out.xyz', 'w' )
f.write( "27  " )
f.write( str(ee) + "\n" )
f.write( MOL.save_string_xyz() )
f.close()
--------------------------------------------------------------------------

    Molecular point group: c1
  Charge       = 0
  Multiplicity = 1
  Basis Set: CC-PVTZ
  Basis Set:
  @DF-RHF Final Energy:  -388.42234791480308
    Total Energy =                       -388.4223479148033675
    Molecular point group: c1
  Basis Set: CC-PVTZ
  Basis Set:
  Basis Set: CC-PVTZ
  Basis Set:
  @DF-RHF Final Energy:  -388.42270797958071
    Total Energy =                       -388.4227079795809914
  Basis Set: CC-PVTZ
  Basis Set:
  Basis Set: CC-PVTZ
  Basis Set:
  @DF-RHF Final Energy:  -388.42277191748155
    Total Energy =                       -388.4227719174817821
  Basis Set: CC-PVTZ
  Basis Set:
  Basis Set: CC-PVTZ
  Basis Set:
  @DF-RHF Final Energy:  -388.42277491957441
    Total Energy =                       -388.4227749195739534
  Basis Set: CC-PVTZ
  Basis Set:
  Charge       = 0
  Multiplicity = 1
  Basis Set: CC-PVTZ
  Basis Set:

    Orbital Energies (a.u.)
    -----------------------

    Doubly Occupied:

       1A    -20.544620     2A    -11.264968     3A    -11.214080
       4A    -11.212922     5A    -11.212039     6A    -11.212017
       7A    -11.210870     8A    -11.209686     9A    -11.205768
      10A     -1.362436    11A     -1.093991    12A     -1.060653
      13A     -1.009958    14A     -0.944797    15A     -0.884032
      16A     -0.824422    17A     -0.803772    18A     -0.776867
      19A     -0.687111    20A     -0.649545    21A     -0.635373
      22A     -0.612901    23A     -0.609983    24A     -0.582133
      25A     -0.576966    26A     -0.557168    27A     -0.536850
      28A     -0.523466    29A     -0.511405    30A     -0.488539
      31A     -0.482036    32A     -0.475679    33A     -0.464601
      34A     -0.459659    35A     -0.454937    36A     -0.442414
      37A     -0.419735

  @DF-RHF Final Energy:  -388.42277466125620

   => Energetics <=

    Nuclear Repulsion Energy =            455.2951917727448290
    One-Electron Energy =               -1428.9991356525915762
    Two-Electron Energy =                 585.2811692185907759
    DFT Exchange-Correlation Energy =       0.0000000000000000
    Empirical Dispersion Energy =           0.0000000000000000
    PCM Polarization Energy =               0.0000000000000000
    EFP Energy =                            0.0000000000000000
    Total Energy =                       -388.4227746612559713
    Molecular point group: c1
  Basis Set: CC-PVTZ
  Basis Set:

  -Total Gradient:
     Atom            X                  Y                   Z
    ------   -----------------  -----------------  -----------------
       1       -0.000018033400    -0.000026301192     0.000003520241
       2       -0.001172640550     0.000364147020     0.001833447954
       3        0.001222279537    -0.000174228610    -0.002306412423
       4        0.002121864660    -0.002341905143     0.000107419931
       5       -0.000055866647     0.000053739072    -0.000045435036
       6       -0.000010286927     0.000092664967     0.000008921766
       7       -0.000079611827     0.000017363272     0.000004142222
       8       -0.001973739289     0.001962320640     0.000389036094
       9       -0.000025650806     0.000012157406    -0.000027893530
      10        0.000031433123     0.000008274788    -0.000013565412
      11        0.000019512886    -0.000015291087     0.000014734310
      12       -0.000030524599     0.000049806895     0.000018138108
      13       -0.000041585872    -0.000049696000     0.000002665304
      14       -0.000014262890     0.000011519612    -0.000019616185
      15        0.000017536382     0.000007245712    -0.000007699287
      16       -0.000013438983    -0.000001631344     0.000013529319
      17        0.000002931007    -0.000012057766     0.000003312956
      18       -0.000016502921     0.000003150972     0.000002273330
      19        0.000016243617     0.000004806893    -0.000003682731
      20        0.000000171564     0.000001970503    -0.000008203361
      21        0.000016192493     0.000026725948     0.000031104542
      22        0.000002071100     0.000003519344    -0.000000565372
      23        0.000001158921     0.000003711209     0.000007661514
      24       -0.000000917974     0.000000636697    -0.000007075989
      25        0.000000688979    -0.000000051702    -0.000000189909
      26        0.000000041348    -0.000001104695    -0.000000172820
      27        0.000000937070    -0.000001493407     0.000000604465

  **** Optimization is complete! (in 5 steps) ****
    Final optimized geometry and variables:
    Molecular point group: c1

    Geometry (in Angstrom), charge = 0, multiplicity = 1:

    H           -0.671700039472     4.409553879545     2.005181821938
    O            0.136436959168     4.073351340129     1.663578542036
    C            0.323780522545     2.752526658627     2.101330442058
    C           -0.725101601479     1.773081332886     1.552709619284
    H            1.313989505094     2.472234598451     1.769341138439
    H            0.332606182493     2.724910220903     3.187369499845
    C           -0.199084206976     0.851586969703     0.455786472023
    H           -1.143926789161     1.186415336454     2.365090648821
    H           -1.550854351869     2.357962208727     1.157499054992
    C           -1.271048745143    -0.077594240806    -0.109058659913
    H            0.626551476474     0.269655051379     0.853251255749
    H            0.211125485392     1.459955943576    -0.346497613636
    C           -0.811326425555    -0.963695875311    -1.268380150259
    H           -1.659631571286    -0.705639739383     0.689597016735
    H           -2.106717038502     0.527244298536    -0.450382306412
    C            0.231023841421    -2.018303501621    -0.901230281930
    H           -1.681870369625    -1.466859462495    -1.680190359537
    H           -0.421192740567    -0.335269623298    -2.065565901886
    C            0.588291425677    -2.936515380055    -2.067184578474
    H           -0.143528321643    -2.619363121679    -0.075277573728
    H            1.136721611488    -1.538712215229    -0.542958482435
    C            1.632338339290    -3.987609698291    -1.705320546599
    H           -0.311330782754    -3.430813395529    -2.423536589591
    H            0.954091944541    -2.336910591384    -2.896333602156
    H            1.282926842639    -4.625297919312    -0.899962276037
    H            1.861378756435    -4.622649299867    -2.553472537188
    H            2.557994458232    -3.524368957043    -1.380057598633

  Mulliken Charges: (a.u.)
   Center  Symbol    Alpha    Beta     Spin     Total
       1     H     0.39438  0.39438  0.00000  0.21124
       2     O     4.20399  4.20399  0.00000 -0.40798
       3     C     2.97106  2.97106  0.00000  0.05789
       4     C     3.09527  3.09527  0.00000 -0.19053
       5     H     0.45850  0.45850  0.00000  0.08299
       6     H     0.46640  0.46640  0.00000  0.06720
       7     C     3.09755  3.09755  0.00000 -0.19511
       8     H     0.45304  0.45304  0.00000  0.09392
       9     H     0.45832  0.45832  0.00000  0.08337
      10     C     3.10079  3.10079  0.00000 -0.20158
      11     H     0.45222  0.45222  0.00000  0.09555
      12     H     0.44856  0.44856  0.00000  0.10288
      13     C     3.09774  3.09774  0.00000 -0.19549
      14     H     0.45414  0.45414  0.00000  0.09172
      15     H     0.44760  0.44760  0.00000  0.10480
      16     C     3.08806  3.08806  0.00000 -0.17613
      17     H     0.44870  0.44870  0.00000  0.10260
      18     H     0.45297  0.45297  0.00000  0.09406
      19     C     3.08399  3.08399  0.00000 -0.16798
      20     H     0.45559  0.45559  0.00000  0.08882
      21     H     0.45351  0.45351  0.00000  0.09298
      22     C     3.14975  3.14975  0.00000 -0.29951
      23     H     0.45420  0.45420  0.00000  0.09160
      24     H     0.45432  0.45432  0.00000  0.09136
      25     H     0.45549  0.45549  0.00000  0.08903
      26     H     0.44846  0.44846  0.00000  0.10309
      27     H     0.45539  0.45539  0.00000  0.08921

   Total alpha = 37.00000, Total beta = 37.00000, Total charge = -0.00000

*** Psi4 exiting successfully. Buy a developer a beer!
