  ==> Input File <==

--------------------------------------------------------------------------
set {
	reference rhf
	basis 6-31G*
}

set_num_threads( 1 )
memory 2 gb

molecule MOL {
0 1

O	 3.225979	 0.970355	 -0.599647
C	 2.701189	 0.057885	 -0.047330
C	 1.245376	 -0.013843	 0.345420
O	 3.347903	 -1.046386	 0.304773
C	 0.949932	 0.666649	 1.680245
H	 0.674437	 0.421234	 -0.468170
H	 0.969565	 -1.064976	 0.372710
C	 -0.502569	 0.511911	 2.143701
H	 1.203197	 1.720200	 1.609482
H	 1.609509	 0.250364	 2.433960
C	 -1.538930	 1.219351	 1.265866
H	 -0.577194	 0.905356	 3.154817
H	 -0.750201	 -0.546328	 2.213121
C	 -2.958272	 1.127799	 1.829857
H	 -1.261578	 2.266924	 1.158688
H	 -1.531608	 0.797302	 0.263472
C	 -4.003123	 1.826792	 0.958175
H	 -2.977117	 1.560591	 2.828642
H	 -3.232212	 0.080492	 1.947346
C	 -5.417234	 1.734019	 1.530350
H	 -3.730375	 2.873228	 0.838915
H	 -3.988814	 1.392604	 -0.039350
H	 -6.134767	 2.238403	 0.890545
H	 -5.472810	 2.191312	 2.514215
H	 -5.732901	 0.699247	 1.629717
C	 4.728119	 -1.109107	 -0.004993
H	 4.882018	 -1.033965	 -1.071845
H	 5.068212	 -2.067527	 0.355250
H	 5.265056	 -0.311663	 0.488280

	symmetry c1
}
set optking {
	frozen_dihedral = ("
		21 17 14 11,
		17 14 11 15,
		15 11 8 5,
		6 3 5 9,
		11 8 5 9,
		2 4 26 27,
		1 2 4 26
	")
}

ee = energy('scf')
oeprop('DIPOLE', 'QUADRUPOLE', 'MULLIKEN_CHARGES')
f=open( 'psi4out.xyz', 'w' )
f.write( "29  " )
f.write( str(ee) + "\n" )
f.write( MOL.save_string_xyz() )
f.close()
--------------------------------------------------------------------------

    Molecular point group: c1

    Geometry (in Angstrom), charge = 0, multiplicity = 1:

       Center              X                  Y                   Z               Mass
    ------------   -----------------  -----------------  -----------------  -----------------
           O          3.025120041100     0.442241301351    -1.440622740913    15.994914619560
           C          2.500330041100    -0.470228698649    -0.888305740913    12.000000000000
           C          1.044517041100    -0.541956698649    -0.495555740913    12.000000000000
           O          3.147044041100    -1.574499698649    -0.536202740913    15.994914619560
           C          0.749073041100     0.138535301351     0.839269259087    12.000000000000
           H          0.473578041100    -0.106879698649    -1.309145740913     1.007825032070
           H          0.768706041100    -1.593089698649    -0.468265740913     1.007825032070
           C         -0.703427958900    -0.016202698649     1.302725259087    12.000000000000
           H          1.002338041100     1.192086301351     0.768506259087     1.007825032070
           H          1.408650041100    -0.277749698649     1.592984259087     1.007825032070
           C         -1.739788958900     0.691237301351     0.424890259087    12.000000000000
           H         -0.778052958900     0.377242301351     2.313841259087     1.007825032070
           H         -0.951059958900    -1.074441698649     1.372145259087     1.007825032070
           C         -3.159130958900     0.599685301351     0.988881259087    12.000000000000
           H         -1.462436958900     1.738810301351     0.317712259087     1.007825032070
           H         -1.732466958900     0.269188301351    -0.577503740913     1.007825032070
           C         -4.203981958900     1.298678301351     0.117199259087    12.000000000000
           H         -3.177975958900     1.032477301351     1.987666259087     1.007825032070
           H         -3.433070958900    -0.447621698649     1.106370259087     1.007825032070
           C         -5.618092958900     1.205905301351     0.689374259087    12.000000000000
           H         -3.931233958900     2.345114301351    -0.002060740913     1.007825032070
           H         -4.189672958900     0.864490301351    -0.880325740913     1.007825032070
           H         -6.335625958900     1.710289301351     0.049569259087     1.007825032070
           H         -5.673668958900     1.663198301351     1.673239259087     1.007825032070
           H         -5.933759958900     0.171133301351     0.788741259087     1.007825032070
           C          4.527260041100    -1.637220698649    -0.845968740913    12.000000000000
           H          4.681159041100    -1.562078698649    -1.912820740913     1.007825032070
           H          4.867353041100    -2.595640698649    -0.485725740913     1.007825032070
           H          5.064197041100    -0.839776698649    -0.352695740913     1.007825032070

  Charge       = 0
  Multiplicity = 1
  Basis Set: 6-31G*
  Basis Set:

    Orbital Energies (a.u.)
    -----------------------

    Doubly Occupied:

       1A    -20.603954     2A    -20.542899     3A    -11.370563
       4A    -11.279932     5A    -11.232360     6A    -11.229431
       7A    -11.222067     8A    -11.217569     9A    -11.216462
      10A    -11.215636    11A    -11.209462    12A     -1.468286
      13A     -1.360913    14A     -1.101319    15A     -1.068686
      16A     -1.019822    17A     -0.976105    18A     -0.930218
      19A     -0.864731    20A     -0.800667    21A     -0.791508
      22A     -0.770872    23A     -0.697459    24A     -0.678227
      25A     -0.672733    26A     -0.652284    27A     -0.625420
      28A     -0.604238    29A     -0.595414    30A     -0.579915
      31A     -0.570703    32A     -0.547439    33A     -0.541007
      34A     -0.529971    35A     -0.520262    36A     -0.512522
      37A     -0.496706    38A     -0.482338    39A     -0.472023
      40A     -0.464268    41A     -0.462962    42A     -0.453593
      43A     -0.445115    44A     -0.428022

  @DF-RHF Final Energy:  -501.04183459331148

   => Energetics <=

    Nuclear Repulsion Energy =            610.5676089872504235
    One-Electron Energy =               -1892.1667859560061515
    Two-Electron Energy =                 780.5573423754435680
    DFT Exchange-Correlation Energy =       0.0000000000000000
    Empirical Dispersion Energy =           0.0000000000000000
    PCM Polarization Energy =               0.0000000000000000
    EFP Energy =                            0.0000000000000000
    Total Energy =                       -501.0418345933121600

  Mulliken Charges: (a.u.)
   Center  Symbol    Alpha    Beta     Spin     Total
       1     O     4.28500  4.28500  0.00000 -0.57000
       2     C     2.61621  2.61621  0.00000  0.76757
       3     C     3.19846  3.19846  0.00000 -0.39691
       4     O     4.30233  4.30233  0.00000 -0.60466
       5     C     3.16402  3.16402  0.00000 -0.32803
       6     H     0.39978  0.39978  0.00000  0.20045
       7     H     0.40395  0.40395  0.00000  0.19210
       8     C     3.15548  3.15548  0.00000 -0.31096
       9     H     0.40894  0.40894  0.00000  0.18212
      10     H     0.41179  0.41179  0.00000  0.17642
      11     C     3.15506  3.15506  0.00000 -0.31012
      12     H     0.41816  0.41816  0.00000  0.16368
      13     H     0.42133  0.42133  0.00000  0.15733
      14     C     3.15071  3.15071  0.00000 -0.30142
      15     H     0.42113  0.42113  0.00000  0.15775
      16     H     0.42206  0.42206  0.00000  0.15589
      17     C     3.15162  3.15162  0.00000 -0.30324
      18     H     0.42353  0.42353  0.00000  0.15294
      19     H     0.42387  0.42387  0.00000  0.15226
      20     C     3.23944  3.23944  0.00000 -0.47888
      21     H     0.42227  0.42227  0.00000  0.15546
      22     H     0.42290  0.42290  0.00000  0.15419
      23     H     0.41889  0.41889  0.00000  0.16223
      24     H     0.42164  0.42164  0.00000  0.15672
      25     H     0.42183  0.42183  0.00000  0.15633
      26     C     3.09283  3.09283  0.00000 -0.18566
      27     H     0.40879  0.40879  0.00000  0.18242
      28     H     0.40883  0.40883  0.00000  0.18234
      29     H     0.40916  0.40916  0.00000  0.18167

   Total alpha = 44.00000, Total beta = 44.00000, Total charge =  0.00000
