  ==> Input File <==

--------------------------------------------------------------------------
set {
	reference rhf
	basis 6-31G*
}

set_num_threads( 4 )
memory 2 gb

molecule MOL {
0 1

H	 -3.650283	 0.221984	 0.000000
C	 -2.577024	 0.154109	 0.000000
C	 -1.960329	 -1.089307	 0.000000
C	 -1.811733	 1.307557	 0.000000
H	 -2.554473	 -1.985285	 0.000000
C	 -0.581547	 -1.175855	 0.000000
H	 -2.287118	 2.271701	 0.000000
C	 -0.428719	 1.219221	 0.000000
H	 -0.090826	 -2.129898	 0.000000
C	 0.198341	 -0.021559	 0.000000
H	 0.149947	 2.124040	 0.000000
C	 1.691355	 -0.173192	 0.000000
C	 2.549715	 0.989527	 0.452597
O	 2.198055	 -1.197207	 -0.352169
H	 2.380875	 1.861614	 -0.170893
H	 3.587585	 0.696759	 0.384752
H	 2.320273	 1.264918	 1.476949

	symmetry c1
}
set optking {
	frozen_dihedral = ("
		13 12 10 8
	")
}

ee = optimize('scf')
oeprop('DIPOLE', 'QUADRUPOLE', 'MULLIKEN_CHARGES')
f=open( 'psi4out.xyz', 'w' )
f.write( "17  " )
f.write( str(ee) + "\n" )
f.write( MOL.save_string_xyz() )
f.close()
--------------------------------------------------------------------------

    Molecular point group: c1
  Charge       = 0
  Multiplicity = 1
  Basis Set: 6-31G*
  Basis Set:
  @DF-RHF Final Energy:  -382.47466775512856
    Total Energy =                       -382.4746677551283938
    Molecular point group: c1
  Basis Set: 6-31G*
  Basis Set:
  Basis Set: 6-31G*
  Basis Set:
  @DF-RHF Final Energy:  -382.47252176780910
    Total Energy =                       -382.4725217678097806
  Basis Set: 6-31G*
  Basis Set:
  Basis Set: 6-31G*
  Basis Set:
  @DF-RHF Final Energy:  -382.47491338655993
    Total Energy =                       -382.4749133865602744
  Basis Set: 6-31G*
  Basis Set:
  Basis Set: 6-31G*
  Basis Set:
  @DF-RHF Final Energy:  -382.47498086388839
    Total Energy =                       -382.4749808638888453
  Basis Set: 6-31G*
  Basis Set:
  Basis Set: 6-31G*
  Basis Set:
  @DF-RHF Final Energy:  -382.47498957792737
    Total Energy =                       -382.4749895779279996
  Basis Set: 6-31G*
  Basis Set:
  Charge       = 0
  Multiplicity = 1
  Basis Set: 6-31G*
  Basis Set:

    Orbital Energies (a.u.)
    -----------------------

    Doubly Occupied:

       1A    -20.550586     2A    -11.331741     3A    -11.248636
       4A    -11.245655     5A    -11.243231     6A    -11.240570
       7A    -11.240502     8A    -11.238065     9A    -11.229744
      10A     -1.396969    11A     -1.165614    12A     -1.049727
      13A     -1.026358    14A     -0.996320    15A     -0.860934
      16A     -0.835032    17A     -0.759768    18A     -0.708416
      19A     -0.655530    20A     -0.646507    21A     -0.624868
      22A     -0.609148    23A     -0.598634    24A     -0.594607
      25A     -0.554188    26A     -0.525385    27A     -0.516639
      28A     -0.500531    29A     -0.491030    30A     -0.410647
      31A     -0.345346    32A     -0.341388

  @DF-RHF Final Energy:  -382.47499218583602

   => Energetics <=

    Nuclear Repulsion Energy =            403.5023807786428165
    One-Electron Energy =               -1318.3901108629183909
    Two-Electron Energy =                 532.4127378984399002
    DFT Exchange-Correlation Energy =       0.0000000000000000
    Empirical Dispersion Energy =           0.0000000000000000
    PCM Polarization Energy =               0.0000000000000000
    EFP Energy =                            0.0000000000000000
    Total Energy =                       -382.4749921858356174
    Molecular point group: c1
  Basis Set: 6-31G*
  Basis Set:

  -Total Gradient:
     Atom            X                  Y                   Z
    ------   -----------------  -----------------  -----------------
       1       -0.000000373295    -0.000002267839     0.000011675134
       2        0.000011180015     0.000024580179    -0.000048919183
       3        0.000018301329    -0.000006835173    -0.000001784173
       4       -0.000034438002    -0.000005081711     0.000020465953
       5       -0.000003472652     0.000002469325    -0.000002298544
       6       -0.000022410674     0.000005131805     0.000061153905
       7       -0.000003816397    -0.000002708895     0.000001832092
       8       -0.000028718014     0.000015503778    -0.002096327526
       9        0.000004148138    -0.000001568721    -0.000027178224
      10        0.000040493240    -0.000297412696     0.003997374109
      11       -0.000020798519    -0.000015941245    -0.000019836048
      12        0.000069980913     0.000875262751    -0.003642839659
      13       -0.000013471112    -0.000643331752     0.001724642465
      14       -0.000020429139     0.000049676831    -0.000001971622
      15       -0.000008333834    -0.000008667980     0.000000479490
      16        0.000006985389     0.000014413179     0.000014751276
      17        0.000005172621    -0.000003221835     0.000008780556

  **** Optimization is complete! (in 6 steps) ****
    Final optimized geometry and variables:
    Molecular point group: c1

    Geometry (in Angstrom), charge = 0, multiplicity = 1:

    H           -3.649189006331     0.222992565769    -0.017123488416
    C           -2.575915125140     0.155279607895    -0.013003980306
    C           -1.959164442772    -1.087818990631    -0.028717103602
    C           -1.810534694215     1.308694382018     0.005410951567
    H           -2.553316475158    -1.983633202394    -0.045428362559
    C           -0.580040704039    -1.174325812292    -0.029810401583
    H           -2.285982862030     2.272876753748     0.010029636297
    C           -0.427632765489     1.220454825192     0.017770941252
    H           -0.089997291822    -2.128639309190    -0.057443978272
    C            0.198636134308    -0.020454490182     0.005247336650
    H            0.152679983072     2.124432742401     0.034164603002
    C            1.691723673082    -0.167808898355    -0.024026921913
    C            2.550680730089     1.000575097560     0.413102738881
    O            2.193291608395    -1.201792146916    -0.352511994104
    H            2.474585962907     1.822322621731    -0.292415603954
    H            3.579776352801     0.674126577040     0.458993880404
    H            2.237942304452     1.368714995514     1.384396552311

  Mulliken Charges: (a.u.)
   Center  Symbol    Alpha    Beta     Spin     Total
       1     H     0.39542  0.39542  0.00000  0.20916
       2     C     3.09266  3.09266  0.00000 -0.18532
       3     C     3.10384  3.10384  0.00000 -0.20769
       4     C     3.10406  3.10406  0.00000 -0.20812
       5     H     0.39523  0.39523  0.00000  0.20954
       6     C     3.08921  3.08921  0.00000 -0.17842
       7     H     0.39641  0.39641  0.00000  0.20718
       8     C     3.10300  3.10300  0.00000 -0.20600
       9     H     0.37761  0.37761  0.00000  0.24479
      10     C     3.05469  3.05469  0.00000 -0.10937
      11     H     0.39400  0.39400  0.00000  0.21200
      12     C     2.72907  2.72907  0.00000  0.54186
      13     C     3.29240  3.29240  0.00000 -0.58480
      14     O     4.26663  4.26663  0.00000 -0.53326
      15     H     0.40672  0.40672  0.00000  0.18655
      16     H     0.39368  0.39368  0.00000  0.21263
      17     H     0.40537  0.40537  0.00000  0.18927

   Total alpha = 32.00000, Total beta = 32.00000, Total charge = -0.00000
