                              Psi4 1.0.54 Driver

  ==> Input File <==

--------------------------------------------------------------------------
set {
	reference rhf
	basis cc-pvtz
}

set_num_threads( 4 )
memory 2 gb

molecule MOL {
0 1

O	 1.847685	 1.294399	 -0.000190
C	 1.704209	 0.119472	 -0.000093
C	 0.380337	 -0.600947	 -0.000234
O	 2.715427	 -0.733672	 0.000025
C	 -0.824290	 0.329213	 -0.000115
H	 0.371455	 -1.255476	 -0.865660
H	 0.371410	 -1.255787	 0.864952
C	 -2.146151	 -0.432825	 -0.000068
H	 -0.773936	 0.979158	 -0.866319
H	 -0.773838	 0.979034	 0.866186
C	 -3.366283	 0.483552	 0.000557
H	 -2.189286	 -1.084450	 -0.869996
H	 -2.188867	 -1.085083	 0.869399
C	 -4.685075	 -0.274931	 0.104975
H	 -3.365089	 1.081668	 -0.906313
H	 -3.286984	 1.184492	 0.826725
H	 -4.809809	 -0.960167	 -0.726966
H	 -5.529631	 0.404373	 0.102531
H	 -4.731260	 -0.856221	 1.019963
C	 4.020999	 -0.192556	 0.000019
H	 4.182809	 0.412891	 -0.879449
H	 4.692590	 -1.035653	 0.000152
H	 4.182726	 0.413087	 0.879368

	symmetry c1
}
set optking {
	frozen_dihedral = ("
		15 11 8 12
	")
}

ee,wfn = optimize('scf', return_wfn=True)
oeprop( wfn, 'DIPOLE', 'QUADRUPOLE', 'MULLIKEN_CHARGES')
f=open( 'psi4out.xyz', 'w' )
f.write( "23  " )
f.write( str(ee) + "\n" )
f.write( MOL.save_string_xyz() )
f.close()
--------------------------------------------------------------------------

    Molecular point group: c1
  Charge       = 0
  Multiplicity = 1
  Basis Set: CC-PVTZ
  Basis Set:
  @DF-RHF Final Energy:  -423.13102903518904
    Total Energy =                       -423.1310290351889307
    Molecular point group: c1
  Basis Set: CC-PVTZ
  Basis Set:
  Basis Set: CC-PVTZ
  Basis Set:
  @DF-RHF Final Energy:  -423.13103651912871
    Total Energy =                       -423.1310365191292249
  Basis Set: CC-PVTZ
  Basis Set:
  Basis Set: CC-PVTZ
  Basis Set:
  @DF-RHF Final Energy:  -423.13103842390785
    Total Energy =                       -423.1310384239076257
  Basis Set: CC-PVTZ
  Basis Set:
  Basis Set: CC-PVTZ
  Basis Set:
  @DF-RHF Final Energy:  -423.13103630382977
    Total Energy =                       -423.1310363038295463
  Basis Set: CC-PVTZ
  Basis Set:
  Charge       = 0
  Multiplicity = 1
  Basis Set: CC-PVTZ
  Basis Set:

    Orbital Energies (a.u.)
    -----------------------

    Doubly Occupied:

       1A    -20.596272     2A    -20.534088     3A    -11.364528
       4A    -11.278460     5A    -11.233752     6A    -11.217128
       7A    -11.215842     8A    -11.214530     9A    -11.207711
      10A     -1.472157    11A     -1.365737    12A     -1.094491
      13A     -1.044767    14A     -0.988015    15A     -0.932675
      16A     -0.843996    17A     -0.795476    18A     -0.769254
      19A     -0.699078    20A     -0.686905    21A     -0.675340
      22A     -0.653043    23A     -0.609886    24A     -0.600931
      25A     -0.573628    26A     -0.559943    27A     -0.557618
      28A     -0.525233    29A     -0.522283    30A     -0.508077
      31A     -0.485004    32A     -0.469848    33A     -0.467510
      34A     -0.463239    35A     -0.459093    36A     -0.438351

  @DF-RHF Final Energy:  -423.13104124475439

   => Energetics <=

    Nuclear Repulsion Energy =            452.8995177235030383
    One-Electron Energy =               -1473.8133459661341931
    Two-Electron Energy =                 597.7827869978767694
    DFT Exchange-Correlation Energy =       0.0000000000000000
    Empirical Dispersion Energy =           0.0000000000000000
    PCM Polarization Energy =               0.0000000000000000
    EFP Energy =                            0.0000000000000000
    Total Energy =                       -423.1310412447543285
    Molecular point group: c1
  Basis Set: CC-PVTZ
  Basis Set:

  -Total Gradient:
     Atom            X                  Y                   Z
    ------   -----------------  -----------------  -----------------
       1        0.000001741059     0.000007912372     0.000007558456
       2       -0.000014455593    -0.000000302089    -0.000024469797
       3        0.000005909851     0.000002402625     0.000003111490
       4        0.000004178847    -0.000008598761     0.000005972026
       5       -0.000005513422    -0.000012633023     0.000022505363
       6        0.000001904392    -0.000002381372    -0.000003079126
       7       -0.000003076451    -0.000000480804     0.000001523599
       8       -0.000606306025    -0.000801078047     0.000440144439
       9        0.000000947455     0.000004192181    -0.000007363626
      10        0.000008344417     0.000011643980     0.000008834749
      11        0.000612300021     0.000831384094     0.000348726890
      12        0.000408502854     0.000539801056    -0.000442885446
      13        0.000001223976    -0.000001994534     0.000008109375
      14        0.000014917148     0.000013972046     0.000008966629
      15       -0.000425072743    -0.000570233727    -0.000387150197
      16        0.000000510973     0.000001917355     0.000004998690
      17       -0.000002276780    -0.000005464311    -0.000008540858
      18       -0.000004551392     0.000001732394     0.000001590450
      19       -0.000007532901    -0.000012703330     0.000010442955
      20        0.000002827608     0.000002917699     0.000001317221
      21       -0.000001250630     0.000003085521    -0.000007048495
      22        0.000006957745    -0.000008313141    -0.000000049629
      23       -0.000000230402     0.000003221823     0.000006784840

  **** Optimization is complete! (in 5 steps) ****
    Final optimized geometry and variables:
    Molecular point group: c1

    Geometry (in Angstrom), charge = 0, multiplicity = 1:

    O            1.847301632466     1.293901890873    -0.009324176802
    C            1.703894780750     0.118959650145    -0.012453521784
    C            0.380114745217    -0.601557551538    -0.010036246211
    O            2.715268245293    -0.734082678276    -0.018529559114
    C           -0.824545361032     0.328526452840    -0.002844792305
    H            0.368373398010    -1.253564148118    -0.877324190916
    H            0.374337024201    -1.258877327805     0.853321959383
    C           -2.146660785089    -0.433742148212     0.001554832702
    H           -0.778010067188     0.980115683310    -0.868141694662
    H           -0.770236736099     0.976736053192     0.864382535421
    C           -3.365811542495     0.484117839116    -0.008680733134
    H           -2.186415884789    -1.087867590996    -0.866590683520
    H           -2.190023521371    -1.079925810724     0.875307831008
    C           -4.685843186289    -0.274804721250     0.080511208746
    H           -3.357194325390     1.078274621456    -0.918052041625
    H           -3.296086268318     1.185277404696     0.817931835873
    H           -4.797182959763    -0.965706241940    -0.748750785117
    H           -5.530755182331     0.403811316498     0.060176746779
    H           -4.745937826466    -0.850070372498     0.998471465383
    C            4.020700032050    -0.192822202997    -0.021366357138
    H            4.179456358945     0.415431083936    -0.899483728678
    H            4.692464030722    -1.035808893962    -0.026241300674
    H            4.185502195086     0.410078364691     0.859324582568

  Mulliken Charges: (a.u.)
   Center  Symbol    Alpha    Beta     Spin     Total
       1     O     4.19702  4.19702  0.00000 -0.39404
       2     C     2.80690  2.80690  0.00000  0.38621
       3     C     3.10121  3.10121  0.00000 -0.20243
       4     O     4.14647  4.14647  0.00000 -0.29295
       5     C     3.08331  3.08331  0.00000 -0.16662
       6     H     0.44015  0.44015  0.00000  0.11970
       7     H     0.44014  0.44014  0.00000  0.11971
       8     C     3.08934  3.08934  0.00000 -0.17868
       9     H     0.44642  0.44642  0.00000  0.10716
      10     H     0.44638  0.44638  0.00000  0.10723
      11     C     3.08404  3.08404  0.00000 -0.16809
      12     H     0.45562  0.45562  0.00000  0.08876
      13     H     0.45586  0.45586  0.00000  0.08827
      14     C     3.15036  3.15036  0.00000 -0.30072
      15     H     0.45314  0.45314  0.00000  0.09372
      16     H     0.45327  0.45327  0.00000  0.09345
      17     H     0.45537  0.45537  0.00000  0.08926
      18     H     0.44778  0.44778  0.00000  0.10444
      19     H     0.45533  0.45533  0.00000  0.08934
      20     C     3.03780  3.03780  0.00000 -0.07560
      21     H     0.45436  0.45436  0.00000  0.09128
      22     H     0.44534  0.44534  0.00000  0.10931
      23     H     0.45435  0.45435  0.00000  0.09129

   Total alpha = 36.00000, Total beta = 36.00000, Total charge = -0.00000

*** Psi4 exiting successfully. Buy a developer a beer!
