  ==> Input File <==

--------------------------------------------------------------------------
set {
	reference rhf
	basis 6-31G*
}

set_num_threads( 4 )
memory 2 gb

molecule MOL {
0 1

O	 2.836568	 1.397433	 -0.200994
C	 2.762860	 0.290180	 -0.638391
C	 1.468180	 -0.502566	 -0.621191
C	 3.967461	 -0.400768	 -1.243935
C	 0.291004	 0.242674	 0.000989
H	 1.241613	 -0.792844	 -1.646274
H	 1.655940	 -1.435961	 -0.092115
C	 -0.994322	 -0.586602	 0.000262
H	 0.131985	 1.170688	 -0.539042
H	 0.546624	 0.526670	 1.016938
C	 -2.259874	 0.272531	 0.000494
H	 -1.004862	 -1.240012	 -0.870939
H	 -1.005220	 -1.241071	 0.870675
C	 -3.549786	 -0.549746	 -0.000374
H	 -2.250389	 0.926680	 -0.869574
H	 -2.250838	 0.925513	 0.871430
C	 -4.809590	 0.315458	 -0.000369
H	 -3.560515	 -1.202009	 -0.871156
H	 -3.561123	 -1.202955	 0.869711
H	 -4.844746	 0.956611	 -0.876632
H	 -5.706986	 -0.295590	 -0.001609
H	 -4.845960	 0.954827	 0.877144
H	 3.768946	 -0.672958	 -2.276467
H	 4.824447	 0.257021	 -1.202413
H	 4.188147	 -1.317966	 -0.705717

	symmetry c1
}
set optking {
	frozen_dihedral = ("
		9 5 8 12
	")
}

ee = optimize('scf')
oeprop('DIPOLE', 'QUADRUPOLE', 'MULLIKEN_CHARGES')
f=open( 'psi4out.xyz', 'w' )
f.write( "25  " )
f.write( str(ee) + "\n" )
f.write( MOL.save_string_xyz() )
f.close()
--------------------------------------------------------------------------

    Molecular point group: c1
  Charge       = 0
  Multiplicity = 1
  Basis Set: 6-31G*
  Basis Set:
  @DF-RHF Final Energy:  -387.13423979368588
    Total Energy =                       -387.1342397936857651
    Molecular point group: c1
  Basis Set: 6-31G*
  Basis Set:
  Basis Set: 6-31G*
  Basis Set:
  @DF-RHF Final Energy:  -387.13447965574807
    Total Energy =                       -387.1344796557483505
  Basis Set: 6-31G*
  Basis Set:
  Basis Set: 6-31G*
  Basis Set:
  @DF-RHF Final Energy:  -387.13412968170564
    Total Energy =                       -387.1341296817051898
  Basis Set: 6-31G*
  Basis Set:
  Basis Set: 6-31G*
  Basis Set:
  @DF-RHF Final Energy:  -387.13453646755391
    Total Energy =                       -387.1345364675540850
  Basis Set: 6-31G*
  Basis Set:
  Basis Set: 6-31G*
  Basis Set:
  @DF-RHF Final Energy:  -387.13453099847749
    Total Energy =                       -387.1345309984776577
  Basis Set: 6-31G*
  Basis Set:
  Basis Set: 6-31G*
  Basis Set:
  @DF-RHF Final Energy:  -387.13454426512368
    Total Energy =                       -387.1345442651240774
  Basis Set: 6-31G*
  Basis Set:
  Charge       = 0
  Multiplicity = 1
  Basis Set: 6-31G*
  Basis Set:

    Orbital Energies (a.u.)
    -----------------------

    Doubly Occupied:

       1A    -20.550594     2A    -11.326369     3A    -11.232325
       4A    -11.228421     5A    -11.216812     6A    -11.216219
       7A    -11.215475     8A    -11.214035     9A    -11.208479
      10A     -1.395869    11A     -1.092981    12A     -1.056473
      13A     -1.014273    14A     -0.969438    15A     -0.890858
      16A     -0.814644    17A     -0.791364    18A     -0.730704
      19A     -0.659325    20A     -0.650899    21A     -0.633275
      22A     -0.623779    23A     -0.595761    24A     -0.583449
      25A     -0.566568    26A     -0.561066    27A     -0.540264
      28A     -0.526118    29A     -0.513393    30A     -0.491361
      31A     -0.486769    32A     -0.472676    33A     -0.464689
      34A     -0.460024    35A     -0.450087    36A     -0.399563

  @DF-RHF Final Energy:  -387.13454426718420

   => Energetics <=

    Nuclear Repulsion Energy =            438.3054461327043327
    One-Electron Energy =               -1393.1911828698687259
    Two-Electron Energy =                 567.7511924699795145
    DFT Exchange-Correlation Energy =       0.0000000000000000
    Empirical Dispersion Energy =           0.0000000000000000
    PCM Polarization Energy =               0.0000000000000000
    EFP Energy =                            0.0000000000000000
    Total Energy =                       -387.1345442671848787
    Molecular point group: c1
  Basis Set: 6-31G*
  Basis Set:

  -Total Gradient:
     Atom            X                  Y                   Z
    ------   -----------------  -----------------  -----------------
       1       -0.000000806486    -0.000009096453     0.000005658202
       2        0.000000673931     0.000005908404    -0.000017788539
       3       -0.000007815974     0.000013616736     0.000016038672
       4        0.000003511861     0.000003889941    -0.000002263243
       5        0.001917738952    -0.002962263259    -0.003808645282
       6        0.000002163286     0.000007693544     0.000005261260
       7       -0.000007158667    -0.000000950990     0.000000986178
       8       -0.002603094780     0.004052896298    -0.001772481841
       9       -0.001161991206     0.001798730840     0.003435876283
      10       -0.000005256891     0.000010514937     0.000009292648
      11        0.000014445879    -0.000015031364     0.000021794294
      12        0.001838264616    -0.002885275659     0.002127933689
      13        0.000006581365    -0.000020260183     0.000007241934
      14       -0.000006002049     0.000004153728    -0.000042526458
      15        0.000012915876    -0.000009758697     0.000000715354
      16       -0.000003046427     0.000006941749    -0.000002566267
      17       -0.000005317533    -0.000003133756     0.000027440310
      18       -0.000000471673     0.000004521614    -0.000010792801
      19        0.000003993338    -0.000000268553    -0.000012489947
      20       -0.000001261887    -0.000012548116    -0.000003841808
      21       -0.000001810623     0.000001597676     0.000012826176
      22        0.000001319020     0.000011975787    -0.000004232126
      23       -0.000001318553    -0.000001512767     0.000003084499
      24        0.000002019602    -0.000001369391     0.000000856473
      25        0.000001725022    -0.000000972062     0.000002622338

  **** Optimization is complete! (in 7 steps) ****
    Final optimized geometry and variables:
    Molecular point group: c1

    Geometry (in Angstrom), charge = 0, multiplicity = 1:

    O            2.885649241091     1.324623181347     0.147248167987
    C            2.818194214809     0.224277282651    -0.308184281750
    C            1.514265261189    -0.551423875162    -0.361475409010
    C            4.040332730552    -0.474275466192    -0.868129741056
    C            0.319234643555     0.199551879667     0.214222843661
    H            1.331837732428    -0.826199813488    -1.399366688577
    H            1.664242935253    -1.493843992926     0.164143512921
    C           -0.971376670699    -0.631312231274     0.209092825091
    H            0.170704264308     1.132138305592    -0.321179364181
    H            0.548886917104     0.499429306127     1.231838758728
    C           -2.240513585408     0.218456519776     0.260258346391
    H           -0.993073522420    -1.286460648126    -0.660653931792
    H           -0.958439517665    -1.304306989834     1.065322519797
    C           -3.523710815404    -0.610705728587     0.331860174834
    H           -2.276111660919     0.862019934722    -0.616943144792
    H           -2.192422240263     0.882432198036     1.121836144123
    C           -4.787598005853     0.247424722844     0.375882411781
    H           -3.569981605323    -1.277273794368    -0.526958807790
    H           -3.490941192603    -1.249488731144     1.211903134926
    H           -4.869158955112     0.871065271159    -0.509889552578
    H           -5.680020374108    -0.368469319994     0.429792736425
    H           -4.785741484830     0.903624441132     1.241630450613
    H            3.885917928494    -0.729220867151    -1.912532219557
    H            4.902811362349     0.171335280944    -0.777972672691
    H            4.224424577158    -1.401819685097    -0.333879262571

  Mulliken Charges: (a.u.)
   Center  Symbol    Alpha    Beta     Spin     Total
       1     O     4.26104  4.26104  0.00000 -0.52208
       2     C     2.73591  2.73591  0.00000  0.52819
       3     C     3.21136  3.21136  0.00000 -0.42272
       4     C     3.28667  3.28667  0.00000 -0.57334
       5     C     3.14979  3.14979  0.00000 -0.29957
       6     H     0.40965  0.40965  0.00000  0.18069
       7     H     0.40969  0.40969  0.00000  0.18063
       8     C     3.15510  3.15510  0.00000 -0.31020
       9     H     0.41192  0.41192  0.00000  0.17617
      10     H     0.41083  0.41083  0.00000  0.17834
      11     C     3.15142  3.15142  0.00000 -0.30285
      12     H     0.42530  0.42530  0.00000  0.14941
      13     H     0.42289  0.42289  0.00000  0.15422
      14     C     3.15188  3.15188  0.00000 -0.30375
      15     H     0.42285  0.42285  0.00000  0.15430
      16     H     0.42160  0.42160  0.00000  0.15680
      17     C     3.23935  3.23935  0.00000 -0.47870
      18     H     0.42362  0.42362  0.00000  0.15277
      19     H     0.42309  0.42309  0.00000  0.15383
      20     H     0.42159  0.42159  0.00000  0.15682
      21     H     0.41947  0.41947  0.00000  0.16106
      22     H     0.42118  0.42118  0.00000  0.15764
      23     H     0.40870  0.40870  0.00000  0.18261
      24     H     0.39642  0.39642  0.00000  0.20715
      25     H     0.40871  0.40871  0.00000  0.18259

   Total alpha = 36.00000, Total beta = 36.00000, Total charge =  0.00000
