  ==> Input File <==

--------------------------------------------------------------------------
set {
	reference rhf
	basis cc-pvtz
}

set_num_threads( 4 )
memory 2 gb

molecule MOL {
0 1

O	 0.395927	 1.296676	 -0.000076
C	 0.503051	 0.114301	 -0.000074
C	 -0.701422	 -0.805636	 -0.000109
C	 1.858118	 -0.556123	 0.000212
C	 -0.859003	 -1.620718	 1.273818
H	 -1.581328	 -0.193424	 -0.180097
H	 -0.618006	 -1.454726	 -0.867960
H	 -0.966189	 -0.976154	 2.135953
H	 -1.735305	 -2.254535	 1.208813
H	 0.005664	 -2.248647	 1.442005
H	 1.961106	 -1.191101	 -0.872843
H	 2.636688	 0.191085	 -0.000109
H	 1.961070	 -1.190284	 0.873873

	symmetry c1
}
set optking {
	frozen_dihedral = ("
		6 3 2 1
	")
}

ee = optimize('scf')
oeprop('DIPOLE', 'QUADRUPOLE', 'MULLIKEN_CHARGES')
f=open( 'psi4out.xyz', 'w' )
f.write( "13  " )
f.write( str(ee) + "\n" )
f.write( MOL.save_string_xyz() )
f.close()
--------------------------------------------------------------------------

    Molecular point group: c1
  Charge       = 0
  Multiplicity = 1
  Basis Set: CC-PVTZ
  Basis Set:
  @DF-RHF Final Energy:  -231.08039785294565
    Total Energy =                       -231.0803978529455662
    Molecular point group: c1
  Basis Set: CC-PVTZ
  Basis Set:
  Basis Set: CC-PVTZ
  Basis Set:
  @DF-RHF Final Energy:  -231.08034069988477
    Total Energy =                       -231.0803406998847436
  Basis Set: CC-PVTZ
  Basis Set:
  Basis Set: CC-PVTZ
  Basis Set:
  @DF-RHF Final Energy:  -231.07988833321821
    Total Energy =                       -231.0798883332183209
  Basis Set: CC-PVTZ
  Basis Set:
  Basis Set: CC-PVTZ
  Basis Set:
  @DF-RHF Final Energy:  -231.08100375930596
    Total Energy =                       -231.0810037593059860
  Basis Set: CC-PVTZ
  Basis Set:
  Basis Set: CC-PVTZ
  Basis Set:
  @DF-RHF Final Energy:  -231.08101611410501
    Total Energy =                       -231.0810161141048695
  Basis Set: CC-PVTZ
  Basis Set:
  Basis Set: CC-PVTZ
  Basis Set:
  @DF-RHF Final Energy:  -231.08101744408754
    Total Energy =                       -231.0810174440874221
  Basis Set: CC-PVTZ
  Basis Set:
  Charge       = 0
  Multiplicity = 1
  Basis Set: CC-PVTZ
  Basis Set:

    Orbital Energies (a.u.)
    -----------------------

    Doubly Occupied:

       1A    -20.538917     2A    -11.320390     3A    -11.232082
       4A    -11.228463     5A    -11.227180     6A     -1.398421
       7A     -1.068195     8A     -0.996253     9A     -0.887899
      10A     -0.734933    11A     -0.656258    12A     -0.649586
      13A     -0.613659    14A     -0.595525    15A     -0.562578
      16A     -0.542549    17A     -0.530060    18A     -0.503430
      19A     -0.487756    20A     -0.402572

  @DF-RHF Final Energy:  -231.08101840347487

   => Energetics <=

    Nuclear Repulsion Energy =            177.1956956689567448
    One-Electron Energy =                -664.2000123744574012
    Two-Electron Energy =                 255.9232983020258132
    DFT Exchange-Correlation Energy =       0.0000000000000000
    Empirical Dispersion Energy =           0.0000000000000000
    PCM Polarization Energy =               0.0000000000000000
    EFP Energy =                            0.0000000000000000
    Total Energy =                       -231.0810184034748147
    Molecular point group: c1
  Basis Set: CC-PVTZ
  Basis Set:

  -Total Gradient:
     Atom            X                  Y                   Z
    ------   -----------------  -----------------  -----------------
       1       -0.000000789054     0.000077615125    -0.000364741520
       2       -0.000002198099    -0.000072685987     0.000590658001
       3        0.000154139059    -0.000060103826    -0.000693637333
       4       -0.000013881660     0.000024736201     0.000079556456
       5       -0.000052355012    -0.000016512692     0.000111623621
       6       -0.000072198801     0.000027406224     0.000355273406
       7       -0.000033424285     0.000017762442     0.000040527722
       8        0.000028324123    -0.000002925126    -0.000037520030
       9       -0.000009356646    -0.000008376217    -0.000007740238
      10        0.000003013191     0.000032616833    -0.000019798411
      11       -0.000014969029     0.000014063574    -0.000018160116
      12       -0.000004484443    -0.000010135014    -0.000004738193
      13        0.000018180655    -0.000023461541    -0.000031303365

  **** Optimization is complete! (in 7 steps) ****
    Final optimized geometry and variables:
    Molecular point group: c1

    Geometry (in Angstrom), charge = 0, multiplicity = 1:

    O            0.139179830759     1.606334432776    -0.226254015303
    C            0.264205403492     0.425431219092    -0.259624798108
    C           -0.944075016308    -0.490323558695    -0.290019455452
    C            1.633143895662    -0.216817978504    -0.278426422908
    C           -1.116373496497    -1.297672793770     1.000105680795
    H           -1.811119947178     0.133590622523    -0.454639723650
    H           -0.849015866040    -1.168714923125    -1.132316974709
    H           -1.185164679841    -0.642079252685     1.860084047913
    H           -2.026635693242    -1.881711668773     0.953583126317
    H           -0.294533370555    -1.983876490997     1.162622219918
    H            1.728654452424    -0.871089794344    -1.138020028398
    H            2.391678009988     0.549615850932    -0.316055064890
    H            1.779246575365    -0.823983340821     0.607166484728

  Mulliken Charges: (a.u.)
   Center  Symbol    Alpha    Beta     Spin     Total
       1     O     4.17158  4.17158  0.00000 -0.34316
       2     C     2.85443  2.85443  0.00000  0.29113
       3     C     3.09597  3.09597  0.00000 -0.19195
       4     C     3.15745  3.15745  0.00000 -0.31491
       5     C     3.15554  3.15554  0.00000 -0.31108
       6     H     0.43777  0.43777  0.00000  0.12445
       7     H     0.45071  0.45071  0.00000  0.09859
       8     H     0.44598  0.44598  0.00000  0.10805
       9     H     0.44303  0.44303  0.00000  0.11393
      10     H     0.45338  0.45338  0.00000  0.09324
      11     H     0.45058  0.45058  0.00000  0.09883
      12     H     0.43410  0.43410  0.00000  0.13181
      13     H     0.44947  0.44947  0.00000  0.10106

   Total alpha = 20.00000, Total beta = 20.00000, Total charge = -0.00000
