  ==> Input File <==

--------------------------------------------------------------------------
set {
	reference rhf
	basis 6-31G*
}

set_num_threads( 1 )
memory 2 gb

molecule MOL {
0 1

H	 -2.172150	 0.880146	 0.502514
C	 -2.018062	 -0.000025	 -0.114509
O	 -0.774054	 0.001095	 -0.743181
H	 -2.760490	 0.003458	 -0.901350
H	 -2.173624	 -0.884374	 0.496163
C	 -0.492468	 0.968276	 -1.739073
C	 0.937340	 0.642288	 -2.164975
C	 -1.439684	 0.822546	 -2.934370
C	 -0.556073	 2.387357	 -1.165246
H	 0.991209	 -0.370948	 -2.546921
H	 1.606321	 0.717603	 -1.315171
H	 1.279948	 1.322988	 -2.937587
H	 -1.441923	 -0.202846	 -3.288765
H	 -1.119118	 1.464349	 -3.748573
H	 -2.458392	 1.099682	 -2.685402
H	 0.062685	 2.461391	 -0.277153
H	 -0.193317	 3.104325	 -1.894560
H	 -1.567550	 2.677190	 -0.901539

	symmetry c1
}
set optking {
	frozen_dihedral = ("
		2 3 6 7
	")
}

ee = energy('scf')
oeprop('DIPOLE', 'QUADRUPOLE', 'MULLIKEN_CHARGES')
f=open( 'psi4out.xyz', 'w' )
f.write( "18  " )
f.write( str(ee) + "\n" )
f.write( MOL.save_string_xyz() )
f.close()
--------------------------------------------------------------------------

    Molecular point group: c1

    Geometry (in Angstrom), charge = 0, multiplicity = 1:

       Center              X                  Y                   Z               Mass
    ------------   -----------------  -----------------  -----------------  -----------------
           H         -1.431618712975     0.082861818519     1.966446870507     1.007825032070
           C         -1.277530712975    -0.797309181481     1.349423870507    12.000000000000
           O         -0.033522712975    -0.796189181481     0.720751870507    15.994914619560
           H         -2.019958712975    -0.793826181481     0.562582870507     1.007825032070
           H         -1.433092712975    -1.681658181481     1.960095870507     1.007825032070
           C          0.248063287025     0.170991818519    -0.275140129493    12.000000000000
           C          1.677871287025    -0.154996181481    -0.701042129493    12.000000000000
           C         -0.699152712975     0.025261818519    -1.470437129493    12.000000000000
           C          0.184458287025     1.590072818519     0.298686870507    12.000000000000
           H          1.731740287025    -1.168232181481    -1.082988129493     1.007825032070
           H          2.346852287025    -0.079681181481     0.148761870507     1.007825032070
           H          2.020479287025     0.525703818519    -1.473654129493     1.007825032070
           H         -0.701391712975    -1.000130181481    -1.824832129493     1.007825032070
           H         -0.378586712975     0.667064818519    -2.284640129493     1.007825032070
           H         -1.717860712975     0.302397818519    -1.221469129493     1.007825032070
           H          0.803216287025     1.664106818519     1.186779870507     1.007825032070
           H          0.547214287025     2.307040818519    -0.430627129493     1.007825032070
           H         -0.827018712975     1.879905818519     0.562393870507     1.007825032070

  Charge       = 0
  Multiplicity = 1
  Basis Set: 6-31G*
  Basis Set:

    Orbital Energies (a.u.)
    -----------------------

    Doubly Occupied:

       1A    -20.544838     2A    -11.282313     3A    -11.260654
       4A    -11.208967     5A    -11.208807     6A    -11.203401
       7A     -1.369418     8A     -1.072848     9A     -0.946437
      10A     -0.940140    11A     -0.911749    12A     -0.752114
      13A     -0.653947    14A     -0.645580    15A     -0.639527
      16A     -0.593598    17A     -0.576353    18A     -0.549831
      19A     -0.533560    20A     -0.525174    21A     -0.514790
      22A     -0.489161    23A     -0.486411    24A     -0.436333
      25A     -0.402960

  @DF-RHF Final Energy:  -271.17257555567448

   => Energetics <=

    Nuclear Repulsion Energy =            272.4599306180718941
    One-Electron Energy =                -907.7668474005693042
    Two-Electron Energy =                 364.1343412268233806
    DFT Exchange-Correlation Energy =       0.0000000000000000
    Empirical Dispersion Energy =           0.0000000000000000
    PCM Polarization Energy =               0.0000000000000000
    EFP Energy =                            0.0000000000000000
    Total Energy =                       -271.1725755556740296

  Mulliken Charges: (a.u.)
   Center  Symbol    Alpha    Beta     Spin     Total
       1     H     0.42925  0.42925  0.00000  0.14151
       2     C     3.07838  3.07838  0.00000 -0.15676
       3     O     4.32008  4.32008  0.00000 -0.64016
       4     H     0.43083  0.43083  0.00000  0.13833
       5     H     0.41256  0.41256  0.00000  0.17489
       6     C     2.84228  2.84228  0.00000  0.31543
       7     C     3.23272  3.23272  0.00000 -0.46543
       8     C     3.24890  3.24890  0.00000 -0.49780
       9     C     3.24726  3.24726  0.00000 -0.49451
      10     H     0.41401  0.41401  0.00000  0.17198
      11     H     0.41387  0.41387  0.00000  0.17226
      12     H     0.42519  0.42519  0.00000  0.14961
      13     H     0.41295  0.41295  0.00000  0.17410
      14     H     0.41905  0.41905  0.00000  0.16190
      15     H     0.41961  0.41961  0.00000  0.16079
      16     H     0.41312  0.41312  0.00000  0.17376
      17     H     0.41970  0.41970  0.00000  0.16060
      18     H     0.42025  0.42025  0.00000  0.15949

   Total alpha = 25.00000, Total beta = 25.00000, Total charge = -0.00000
