  ==> Input File <==

--------------------------------------------------------------------------
set {
	reference rhf
	basis 6-31G*
}

set_num_threads( 4 )
memory 2 gb

molecule MOL {
0 1

O	 1.064228	 0.694895	 -0.926254
C	 0.576249	 0.131685	 -0.000108
C	 -0.766779	 -0.556801	 -0.000461
O	 1.166586	 0.033950	 1.184211
C	 -1.945214	 0.412366	 0.000161
H	 -0.796911	 -1.211249	 -0.867467
H	 -0.796854	 -1.212390	 0.865687
C	 -3.287791	 -0.317055	 0.000105
H	 -1.876087	 1.060580	 -0.866812
H	 -1.875822	 1.059691	 0.867761
H	 -3.394745	 -0.949193	 -0.877058
H	 -4.111778	 0.388953	 0.000015
H	 -3.394954	 -0.949187	 0.877259
C	 2.438973	 0.640400	 1.320069
H	 3.144402	 0.202410	 0.628639
H	 2.747368	 0.454340	 2.336995
H	 2.374921	 1.703294	 1.136593

	symmetry c1
}
set optking {
	frozen_dihedral = ("
		1 2 3 6
	")
}

ee = optimize('scf')
oeprop('DIPOLE', 'QUADRUPOLE', 'MULLIKEN_CHARGES')
f=open( 'psi4out.xyz', 'w' )
f.write( "17  " )
f.write( str(ee) + "\n" )
f.write( MOL.save_string_xyz() )
f.close()
--------------------------------------------------------------------------

    Molecular point group: c1
  Charge       = 0
  Multiplicity = 1
  Basis Set: 6-31G*
  Basis Set:
  @DF-RHF Final Energy:  -344.90449375402881
    Total Energy =                       -344.9044937540287492
    Molecular point group: c1
  Basis Set: 6-31G*
  Basis Set:
  Basis Set: 6-31G*
  Basis Set:
  @DF-RHF Final Energy:  -344.90473626543928
    Total Energy =                       -344.9047362654392259
  Basis Set: 6-31G*
  Basis Set:
  Basis Set: 6-31G*
  Basis Set:
  @DF-RHF Final Energy:  -344.90520017397421
    Total Energy =                       -344.9052001739743218
  Basis Set: 6-31G*
  Basis Set:
  Basis Set: 6-31G*
  Basis Set:
  @DF-RHF Final Energy:  -344.90525581945531
    Total Energy =                       -344.9052558194555331
  Basis Set: 6-31G*
  Basis Set:
  Basis Set: 6-31G*
  Basis Set:
  @DF-RHF Final Energy:  -344.90525802127195
    Total Energy =                       -344.9052580212720045
  Basis Set: 6-31G*
  Basis Set:
  Charge       = 0
  Multiplicity = 1
  Basis Set: 6-31G*
  Basis Set:

    Orbital Energies (a.u.)
    -----------------------

    Doubly Occupied:

       1A    -20.605996     2A    -20.542377     3A    -11.371445
       4A    -11.280938     5A    -11.234122     6A    -11.230773
       7A    -11.217892     8A     -1.469593     9A     -1.361468
      10A     -1.082954    11A     -1.000272    12A     -0.941704
      13A     -0.829237    14A     -0.772878    15A     -0.698195
      16A     -0.679871    17A     -0.673025    18A     -0.636225
      19A     -0.594783    20A     -0.582794    21A     -0.558035
      22A     -0.537678    23A     -0.525870    24A     -0.504412
      25A     -0.485200    26A     -0.484011    27A     -0.453918
      28A     -0.433594

  @DF-RHF Final Energy:  -344.90525880221196

   => Energetics <=

    Nuclear Repulsion Energy =            313.2640406787739948
    One-Electron Energy =               -1090.7600780234570266
    Two-Electron Energy =                 432.5907785424711278
    DFT Exchange-Correlation Energy =       0.0000000000000000
    Empirical Dispersion Energy =           0.0000000000000000
    PCM Polarization Energy =               0.0000000000000000
    EFP Energy =                            0.0000000000000000
    Total Energy =                       -344.9052588022119039
    Molecular point group: c1
  Basis Set: 6-31G*
  Basis Set:

  -Total Gradient:
     Atom            X                  Y                   Z
    ------   -----------------  -----------------  -----------------
       1        0.000020931853    -0.000103139389     0.000009780839
       2       -0.000072648304     0.000139446591     0.000009720065
       3        0.000048892712    -0.000131823920    -0.000001221350
       4        0.000044484558     0.000003706205     0.000013946387
       5       -0.000028434980     0.000040302661    -0.000002324437
       6       -0.000027495689     0.000033709137    -0.000030558476
       7        0.000019701885     0.000018444987    -0.000029893375
       8        0.000012655240    -0.000003187961     0.000020998036
       9       -0.000000941306    -0.000012951581     0.000000321800
      10       -0.000021093849     0.000016403602    -0.000004299217
      11        0.000000571371     0.000006152732    -0.000006378688
      12        0.000015937683     0.000006704874     0.000008451812
      13       -0.000003194295    -0.000012643853    -0.000001556647
      14       -0.000030724862     0.000009599598     0.000017100115
      15        0.000006078862    -0.000005151744    -0.000006521242
      16        0.000010021928    -0.000000935532     0.000000478124
      17        0.000005257189    -0.000004636407     0.000001956252

  **** Optimization is complete! (in 6 steps) ****
    Final optimized geometry and variables:
    Molecular point group: c1

    Geometry (in Angstrom), charge = 0, multiplicity = 1:

    O            1.081246432909     0.557224238115    -1.141876722065
    C            0.648371979717    -0.046168427562    -0.212253675630
    C           -0.683180132889    -0.756370853800    -0.209436844360
    O            1.281286693094    -0.144031017082     0.948014225461
    C           -1.843187744800     0.249538314853    -0.230673988122
    H           -0.721023129698    -1.372514871283    -1.101391910909
    H           -0.752069958124    -1.401339792534     0.657276116434
    C           -3.203824930797    -0.442767052817    -0.272826358926
    H           -1.728795446530     0.897177117456    -1.093066552145
    H           -1.784867688634     0.883490841767     0.650392895221
    H           -3.301513925899    -1.060564245436    -1.160717401614
    H           -4.008088340124     0.285526820103    -0.285919117760
    H           -3.348513418821    -1.081138577136     0.593854825373
    C            2.530724117562     0.514649169873     1.054155493932
    H            3.228267828994     0.123676984441     0.327627732910
    H            2.883175852538     0.319228717618     2.054886557380
    H            2.413784564468     1.577380457214     0.898235640079

  Mulliken Charges: (a.u.)
   Center  Symbol    Alpha    Beta     Spin     Total
       1     O     4.28687  4.28687  0.00000 -0.57375
       2     C     2.61317  2.61317  0.00000  0.77366
       3     C     3.19749  3.19749  0.00000 -0.39499
       4     O     4.30261  4.30261  0.00000 -0.60522
       5     C     3.16365  3.16365  0.00000 -0.32729
       6     H     0.40131  0.40131  0.00000  0.19737
       7     H     0.40206  0.40206  0.00000  0.19588
       8     C     3.24116  3.24116  0.00000 -0.48233
       9     H     0.40433  0.40433  0.00000  0.19135
      10     H     0.41500  0.41500  0.00000  0.17000
      11     H     0.41862  0.41862  0.00000  0.16276
      12     H     0.41508  0.41508  0.00000  0.16984
      13     H     0.41967  0.41967  0.00000  0.16066
      14     C     3.09345  3.09345  0.00000 -0.18690
      15     H     0.40830  0.40830  0.00000  0.18340
      16     H     0.40847  0.40847  0.00000  0.18305
      17     H     0.40875  0.40875  0.00000  0.18249

   Total alpha = 28.00000, Total beta = 28.00000, Total charge =  0.00000
