  ==> Input File <==

--------------------------------------------------------------------------
set {
	reference rhf
	basis 6-31G*
}

set_num_threads( 4 )
memory 2 gb

molecule MOL {
0 1

H	 -2.798360	 -0.862255	 -0.071053
N	 -1.863561	 -0.715187	 0.256814
C	 -1.344686	 0.554728	 -0.219830
H	 -1.300452	 -1.461917	 -0.101532
C	 0.081427	 0.741154	 0.254071
H	 -1.362155	 0.656231	 -1.305829
H	 -1.952773	 1.354456	 0.191809
O	 0.874168	 -0.245412	 -0.342030
H	 0.444037	 1.730782	 -0.023037
H	 0.121165	 0.653424	 1.337565
C	 1.836787	 -0.794954	 0.499954
H	 2.382795	 -1.537155	 -0.066360
H	 2.535425	 -0.038456	 0.852937
H	 1.381941	 -1.274673	 1.364126

	symmetry c1
}
set optking {
	frozen_dihedral = ("
		11 8 5 3
	")
}

ee = optimize('scf')
oeprop('DIPOLE', 'QUADRUPOLE', 'MULLIKEN_CHARGES')
f=open( 'psi4out.xyz', 'w' )
f.write( "14  " )
f.write( str(ee) + "\n" )
f.write( MOL.save_string_xyz() )
f.close()
--------------------------------------------------------------------------

    Molecular point group: c1
  Charge       = 0
  Multiplicity = 1
  Basis Set: 6-31G*
  Basis Set:
  @DF-RHF Final Energy:  -248.12271750063189
    Total Energy =                       -248.1227175006318930
    Molecular point group: c1
  Basis Set: 6-31G*
  Basis Set:
  Basis Set: 6-31G*
  Basis Set:
  @DF-RHF Final Energy:  -248.12290378104839
    Total Energy =                       -248.1229037810487057
  Basis Set: 6-31G*
  Basis Set:
  Basis Set: 6-31G*
  Basis Set:
  @DF-RHF Final Energy:  -248.12295838935367
    Total Energy =                       -248.1229583893538120
  Basis Set: 6-31G*
  Basis Set:
  Basis Set: 6-31G*
  Basis Set:
  @DF-RHF Final Energy:  -248.12295983184109
    Total Energy =                       -248.1229598318410581
  Basis Set: 6-31G*
  Basis Set:
  Charge       = 0
  Multiplicity = 1
  Basis Set: 6-31G*
  Basis Set:

    Orbital Energies (a.u.)
    -----------------------

    Doubly Occupied:

       1A    -20.554338     2A    -15.530475     3A    -11.264801
       4A    -11.264627     5A    -11.240576     6A     -1.376802
       7A     -1.174856     8A     -0.998657     9A     -0.906735
      10A     -0.814296    11A     -0.684885    12A     -0.669547
      13A     -0.643900    14A     -0.613545    15A     -0.601683
      16A     -0.539378    17A     -0.530352    18A     -0.499631
      19A     -0.470991    20A     -0.414458    21A     -0.380870

  @DF-RHF Final Energy:  -248.12296021992282

   => Energetics <=

    Nuclear Repulsion Energy =            195.6304776448043583
    One-Electron Energy =                -725.1560681878220294
    Two-Electron Energy =                 281.4026303230949679
    DFT Exchange-Correlation Energy =       0.0000000000000000
    Empirical Dispersion Energy =           0.0000000000000000
    PCM Polarization Energy =               0.0000000000000000
    EFP Energy =                            0.0000000000000000
    Total Energy =                       -248.1229602199226747
    Molecular point group: c1
  Basis Set: 6-31G*
  Basis Set:

  -Total Gradient:
     Atom            X                  Y                   Z
    ------   -----------------  -----------------  -----------------
       1       -0.000011798985     0.000003513025     0.000001068297
       2       -0.000001218209     0.000016615062    -0.000007793038
       3       -0.000315276133    -0.001094429544     0.001417868478
       4        0.000009988162     0.000011832770     0.000007216043
       5       -0.000110957402     0.000811564811    -0.001679843925
       6       -0.000003889418    -0.000004586120     0.000014562789
       7       -0.000026508053    -0.000000490636     0.000001024753
       8        0.001820043440     0.001713670319    -0.000363369215
       9       -0.000007202355     0.000013094800    -0.000000073046
      10       -0.000002909634    -0.000009489661     0.000006199081
      11       -0.001355940675    -0.001470779561     0.000589554025
      12        0.000010109343    -0.000007376714     0.000014743035
      13       -0.000003292862     0.000007938239     0.000003370395
      14       -0.000001147217     0.000008923208    -0.000004527671

  **** Optimization is complete! (in 5 steps) ****
    Final optimized geometry and variables:
    Molecular point group: c1

    Geometry (in Angstrom), charge = 0, multiplicity = 1:

    H           -2.734389724446    -0.736675722866    -0.129582658124
    N           -1.782460244239    -0.606304277846     0.153038350301
    C           -1.277611101010     0.673530360493    -0.312741460496
    H           -1.246927222935    -1.343898031624    -0.262024400292
    C            0.150262116953     0.862781540292     0.159279432436
    H           -1.306289085601     0.784928499941    -1.397636725981
    H           -1.889518010185     1.464532518904     0.110350657985
    O            0.955702626166    -0.130924544613    -0.417872516233
    H            0.521932556247     1.845184823078    -0.123360631074
    H            0.172721098056     0.787572011179     1.242347118988
    C            1.925860642286    -0.679145201020     0.419474093197
    H            2.454108446355    -1.433953450345    -0.147516412497
    H            2.641449046330     0.070673267210     0.750996422020
    H            1.477604139008    -1.142429424758     1.294638173259

  Mulliken Charges: (a.u.)
   Center  Symbol    Alpha    Beta     Spin     Total
       1     H     0.33217  0.33217  0.00000  0.33566
       2     N     3.92590  3.92590  0.00000 -0.85179
       3     C     3.06949  3.06949  0.00000 -0.13898
       4     H     0.32554  0.32554  0.00000  0.34891
       5     C     2.98981  2.98981  0.00000  0.02039
       6     H     0.42634  0.42634  0.00000  0.14732
       7     H     0.42135  0.42135  0.00000  0.15730
       8     O     4.31219  4.31219  0.00000 -0.62439
       9     H     0.42611  0.42611  0.00000  0.14778
      10     H     0.42261  0.42261  0.00000  0.15477
      11     C     3.08079  3.08079  0.00000 -0.16158
      12     H     0.41412  0.41412  0.00000  0.17176
      13     H     0.42940  0.42940  0.00000  0.14119
      14     H     0.42417  0.42417  0.00000  0.15165

   Total alpha = 21.00000, Total beta = 21.00000, Total charge = -0.00000
