  ==> Input File <==

--------------------------------------------------------------------------
set {
	reference rhf
	basis 6-31G*
}

set_num_threads( 1 )
memory 2 gb

molecule MOL {
0 1

H	 -4.031818	 -0.453427	 -0.000094
C	 -2.967712	 -0.297022	 -0.000064
C	 -2.458620	 0.992929	 0.000032
C	 -2.109895	 -1.385637	 -0.000122
H	 -3.124998	 1.836319	 0.000077
C	 -1.090278	 1.193236	 0.000070
H	 -2.506361	 -2.384847	 -0.000198
C	 -0.739812	 -1.187531	 -0.000085
H	 -0.678594	 2.184290	 0.000146
C	 -0.226438	 0.104061	 0.000012
H	 -0.072310	 -2.027032	 -0.000131
C	 1.239129	 0.373821	 0.000060
O	 1.956970	 -0.658472	 0.416806
O	 1.725648	 1.407290	 -0.337729
C	 3.362994	 -0.488903	 0.448654
H	 3.740817	 -0.275581	 -0.540557
H	 3.763427	 -1.423287	 0.809809
H	 3.631817	 0.317715	 1.115005

	symmetry c1
}
set optking {
	frozen_dihedral = ("
		12 13 15 16,
		10 12 13 15
	")
}

ee = energy('scf')
oeprop('DIPOLE', 'QUADRUPOLE', 'MULLIKEN_CHARGES')
f=open( 'psi4out.xyz', 'w' )
f.write( "18  " )
f.write( str(ee) + "\n" )
f.write( MOL.save_string_xyz() )
f.close()
--------------------------------------------------------------------------

    Molecular point group: c1

    Geometry (in Angstrom), charge = 0, multiplicity = 1:

       Center              X                  Y                   Z               Mass
    ------------   -----------------  -----------------  -----------------  -----------------
           H         -4.029930536484    -0.463669085592    -0.059206514077     1.007825032070
           C         -2.965824536484    -0.307264085592    -0.059176514077    12.000000000000
           C         -2.456732536484     0.982686914408    -0.059080514077    12.000000000000
           C         -2.108007536484    -1.395879085592    -0.059234514077    12.000000000000
           H         -3.123110536484     1.826076914408    -0.059035514077     1.007825032070
           C         -1.088390536484     1.182993914408    -0.059042514077    12.000000000000
           H         -2.504473536484    -2.395089085592    -0.059310514077     1.007825032070
           C         -0.737924536484    -1.197773085592    -0.059197514077    12.000000000000
           H         -0.676706536484     2.174047914408    -0.058966514077     1.007825032070
           C         -0.224550536484     0.093818914408    -0.059100514077    12.000000000000
           H         -0.070422536484    -2.037274085592    -0.059243514077     1.007825032070
           C          1.241016463516     0.363578914408    -0.059052514077    12.000000000000
           O          1.958857463516    -0.668714085592     0.357693485923    15.994914619560
           O          1.727535463516     1.397047914408    -0.396841514077    15.994914619560
           C          3.364881463516    -0.499145085592     0.389541485923    12.000000000000
           H          3.742704463516    -0.285823085592    -0.599669514077     1.007825032070
           H          3.765314463516    -1.433529085592     0.750696485923     1.007825032070
           H          3.633704463516     0.307472914408     1.055892485923     1.007825032070

  Charge       = 0
  Multiplicity = 1
  Basis Set: 6-31G*
  Basis Set:

    Orbital Energies (a.u.)
    -----------------------

    Doubly Occupied:

       1A    -20.607930     2A    -20.544947     3A    -11.378029
       4A    -11.282954     5A    -11.246383     6A    -11.244873
       7A    -11.244578     8A    -11.242209     9A    -11.237940
      10A    -11.237198    11A     -1.472913    12A     -1.364010
      13A     -1.165571    14A     -1.048278    15A     -1.025156
      16A     -0.978302    17A     -0.860358    18A     -0.835048
      19A     -0.778017    20A     -0.739448    21A     -0.683508
      22A     -0.677508    23A     -0.672784    24A     -0.630930
      25A     -0.624940    26A     -0.597683    27A     -0.585996
      28A     -0.559282    29A     -0.530252    30A     -0.516535
      31A     -0.504298    32A     -0.499794    33A     -0.458670
      34A     -0.444644    35A     -0.344538    36A     -0.341355

  @DF-RHF Final Energy:  -457.34952578792797

   => Energetics <=

    Nuclear Repulsion Energy =            492.8177849165750786
    One-Electron Energy =               -1599.9210275609711971
    Two-Electron Energy =                 649.7537168564672356
    DFT Exchange-Correlation Energy =       0.0000000000000000
    Empirical Dispersion Energy =           0.0000000000000000
    PCM Polarization Energy =               0.0000000000000000
    EFP Energy =                            0.0000000000000000
    Total Energy =                       -457.3495257879289966

  Mulliken Charges: (a.u.)
   Center  Symbol    Alpha    Beta     Spin     Total
       1     H     0.39549  0.39549  0.00000  0.20902
       2     C     3.09075  3.09075  0.00000 -0.18149
       3     C     3.10641  3.10641  0.00000 -0.21282
       4     C     3.10669  3.10669  0.00000 -0.21339
       5     H     0.39532  0.39532  0.00000  0.20936
       6     C     3.08838  3.08838  0.00000 -0.17676
       7     H     0.39614  0.39614  0.00000  0.20771
       8     C     3.08824  3.08824  0.00000 -0.17647
       9     H     0.37781  0.37781  0.00000  0.24439
      10     C     3.06357  3.06357  0.00000 -0.12715
      11     H     0.38237  0.38237  0.00000  0.23527
      12     C     2.59250  2.59250  0.00000  0.81499
      13     O     4.31077  4.31077  0.00000 -0.62154
      14     O     4.28982  4.28982  0.00000 -0.57963
      15     C     3.09295  3.09295  0.00000 -0.18591
      16     H     0.40762  0.40762  0.00000  0.18475
      17     H     0.40777  0.40777  0.00000  0.18445
      18     H     0.40739  0.40739  0.00000  0.18522

   Total alpha = 36.00000, Total beta = 36.00000, Total charge = -0.00000
