  ==> Input File <==

--------------------------------------------------------------------------
set {
	reference rhf
	basis 6-31G*
}

set_num_threads( 4 )
memory 2 gb

molecule MOL {
0 1

H	 1.028962	 -0.638017	 -1.171427
O	 1.654024	 -0.625927	 -0.460906
C	 1.135793	 0.118896	 0.612333
C	 0.031547	 1.023609	 0.088541
H	 1.915668	 0.729681	 1.063582
H	 0.754543	 -0.542641	 1.387006
C	 -1.134819	 0.293262	 -0.585751
H	 0.474374	 1.714721	 -0.623187
H	 -0.338529	 1.620940	 0.920081
C	 -1.917817	 -0.639439	 0.339494
H	 -0.758119	 -0.268455	 -1.433105
H	 -1.813832	 1.041889	 -0.986690
H	 -2.777680	 -1.057197	 -0.174994
H	 -1.310268	 -1.471279	 0.680599
H	 -2.283753	 -0.111424	 1.216626

	symmetry c1
}
set optking {
	frozen_dihedral = ("
		1 2 3 4
	")
}

ee = optimize('scf')
oeprop('DIPOLE', 'QUADRUPOLE', 'MULLIKEN_CHARGES')
f=open( 'psi4out.xyz', 'w' )
f.write( "15  " )
f.write( str(ee) + "\n" )
f.write( MOL.save_string_xyz() )
f.close()
--------------------------------------------------------------------------

    Molecular point group: c1
  Charge       = 0
  Multiplicity = 1
  Basis Set: 6-31G*
  Basis Set:
  @DF-RHF Final Energy:  -232.13783224922915
    Total Energy =                       -232.1378322492291204
    Molecular point group: c1
  Basis Set: 6-31G*
  Basis Set:
  Basis Set: 6-31G*
  Basis Set:
  @DF-RHF Final Energy:  -232.13938770960434
    Total Energy =                       -232.1393877096045912
  Basis Set: 6-31G*
  Basis Set:
  Basis Set: 6-31G*
  Basis Set:
  @DF-RHF Final Energy:  -232.14052056049283
    Total Energy =                       -232.1405205604925186
  Basis Set: 6-31G*
  Basis Set:
  Basis Set: 6-31G*
  Basis Set:
  @DF-RHF Final Energy:  -232.14052659367422
    Total Energy =                       -232.1405265936742808
  Basis Set: 6-31G*
  Basis Set:
  Basis Set: 6-31G*
  Basis Set:
  @DF-RHF Final Energy:  -232.14062266506974
    Total Energy =                       -232.1406226650699978
  Basis Set: 6-31G*
  Basis Set:
  Basis Set: 6-31G*
  Basis Set:
  @DF-RHF Final Energy:  -232.14063489839950
    Total Energy =                       -232.1406348983996395
  Basis Set: 6-31G*
  Basis Set:
  Charge       = 0
  Multiplicity = 1
  Basis Set: 6-31G*
  Basis Set:

    Orbital Energies (a.u.)
    -----------------------

    Doubly Occupied:

       1A    -20.548971     2A    -11.266029     3A    -11.229509
       4A    -11.224525     5A    -11.216643     6A     -1.356502
       7A     -1.075538     8A     -0.977317     9A     -0.883759
      10A     -0.793389    11A     -0.677474    12A     -0.648108
      13A     -0.628080    14A     -0.586756    15A     -0.578505
      16A     -0.549282    17A     -0.506817    18A     -0.485800
      19A     -0.482713    20A     -0.458741    21A     -0.428062

  @DF-RHF Final Energy:  -232.14063558020851

   => Energetics <=

    Nuclear Repulsion Energy =            191.4118237369278575
    One-Electron Energy =                -693.8998732650926513
    Two-Electron Energy =                 270.3474139479561131
    DFT Exchange-Correlation Energy =       0.0000000000000000
    Empirical Dispersion Energy =           0.0000000000000000
    PCM Polarization Energy =               0.0000000000000000
    EFP Energy =                            0.0000000000000000
    Total Energy =                       -232.1406355802086523
    Molecular point group: c1
  Basis Set: 6-31G*
  Basis Set:

  -Total Gradient:
     Atom            X                  Y                   Z
    ------   -----------------  -----------------  -----------------
       1        0.000595119900     0.001116128020    -0.000473229551
       2       -0.000953705558    -0.001655286119     0.000560845709
       3        0.000918677117     0.001094394660    -0.000182535168
       4       -0.000535896002    -0.000599390252     0.000026034323
       5       -0.000027955127     0.000021642727     0.000004423354
       6        0.000000607460     0.000005565120     0.000036322691
       7        0.000007702838     0.000000084238     0.000017249620
       8       -0.000015910915     0.000039865863    -0.000020939928
       9       -0.000001249950    -0.000043175995    -0.000012782662
      10       -0.000010306667    -0.000008378033     0.000031844487
      11       -0.000008169301     0.000030048592     0.000010194623
      12        0.000030138488     0.000007140895    -0.000004644285
      13       -0.000002930796    -0.000000263969    -0.000003535280
      14        0.000008547503    -0.000004282063     0.000008392704
      15       -0.000004669000    -0.000004093681     0.000002359365

  **** Optimization is complete! (in 7 steps) ****
    Final optimized geometry and variables:
    Molecular point group: c1

    Geometry (in Angstrom), charge = 0, multiplicity = 1:

    H            1.238760388906    -0.686350325116    -1.180766265549
    O            1.782257475839    -0.634112169881    -0.409471148525
    C            1.137482033800     0.104594886815     0.598782638270
    C            0.022544660461     1.009830025827     0.082739060922
    H            1.895857770166     0.712149698672     1.078619773635
    H            0.750922923012    -0.576968383652     1.351383232266
    C           -1.166890049759     0.293843748328    -0.573443211432
    H            0.451711496764     1.712374461005    -0.628434464378
    H           -0.342456294964     1.601165858572     0.919555189572
    C           -1.939095677837    -0.639871096840     0.359801651111
    H           -0.839378292277    -0.266168173405    -1.448109397774
    H           -1.843939212318     1.052360659125    -0.956242372050
    H           -2.814203016560    -1.043013458539    -0.139730215863
    H           -1.333982932360    -1.479289301162     0.685025144451
    H           -2.278811488898    -0.111618892675     1.246334990630

  Mulliken Charges: (a.u.)
   Center  Symbol    Alpha    Beta     Spin     Total
       1     H     0.27771  0.27771  0.00000  0.44458
       2     O     4.37897  4.37897  0.00000 -0.75793
       3     C     2.98065  2.98065  0.00000  0.03871
       4     C     3.18376  3.18376  0.00000 -0.36752
       5     H     0.41922  0.41922  0.00000  0.16155
       6     H     0.42733  0.42733  0.00000  0.14533
       7     C     3.15957  3.15957  0.00000 -0.31914
       8     H     0.41516  0.41516  0.00000  0.16968
       9     H     0.41837  0.41837  0.00000  0.16326
      10     C     3.24251  3.24251  0.00000 -0.48503
      11     H     0.42944  0.42944  0.00000  0.14112
      12     H     0.41495  0.41495  0.00000  0.17010
      13     H     0.41671  0.41671  0.00000  0.16657
      14     H     0.41542  0.41542  0.00000  0.16916
      15     H     0.42022  0.42022  0.00000  0.15955

   Total alpha = 21.00000, Total beta = 21.00000, Total charge =  0.00000
