  ==> Input File <==

--------------------------------------------------------------------------
set {
	reference rhf
	basis 6-31G*
}

set_num_threads( 4 )
memory 2 gb

molecule MOL {
0 1

H	 -3.420663	 1.227371	 -1.044276
O	 -3.452007	 0.283848	 -0.965577
C	 -3.181085	 -0.079926	 0.364119
C	 -1.765924	 0.277073	 0.805136
H	 -3.327791	 -1.152017	 0.410903
H	 -3.905698	 0.375695	 1.036898
C	 -0.677594	 -0.417312	 -0.014550
H	 -1.637766	 1.358238	 0.744969
H	 -1.659588	 0.017670	 1.857098
C	 0.738335	 -0.034840	 0.421385
H	 -0.814977	 -0.178223	 -1.064632
H	 -0.802730	 -1.495410	 0.071702
C	 1.822265	 -0.738362	 -0.399735
H	 0.853533	 1.043532	 0.342250
H	 0.871597	 -0.279636	 1.474438
C	 3.258060	 -0.455774	 0.057203
H	 1.718003	 -0.459167	 -1.447053
H	 1.651028	 -1.811884	 -0.354513
C	 3.924697	 0.732315	 -0.638818
H	 3.857539	 -1.345087	 -0.121785
H	 3.267973	 -0.295757	 1.133539
H	 3.918134	 0.605797	 -1.718211
H	 4.959370	 0.831877	 -0.325167
H	 3.425396	 1.668582	 -0.412400

	symmetry c1
}
set optking {
	frozen_dihedral = ("
		20 16 13 17
	")
}

ee = optimize('scf')
oeprop('DIPOLE', 'QUADRUPOLE', 'MULLIKEN_CHARGES')
f=open( 'psi4out.xyz', 'w' )
f.write( "24  " )
f.write( str(ee) + "\n" )
f.write( MOL.save_string_xyz() )
f.close()
--------------------------------------------------------------------------

    Molecular point group: c1
  Charge       = 0
  Multiplicity = 1
  Basis Set: 6-31G*
  Basis Set:
  @DF-RHF Final Energy:  -349.24545786655392
    Total Energy =                       -349.2454578665539202
    Molecular point group: c1
  Basis Set: 6-31G*
  Basis Set:
  Basis Set: 6-31G*
  Basis Set:
  @DF-RHF Final Energy:  -349.24601497588964
    Total Energy =                       -349.2460149758894659
  Basis Set: 6-31G*
  Basis Set:
  Basis Set: 6-31G*
  Basis Set:
  @DF-RHF Final Energy:  -349.24607489968645
    Total Energy =                       -349.2460748996865618
  Basis Set: 6-31G*
  Basis Set:
  Basis Set: 6-31G*
  Basis Set:
  @DF-RHF Final Energy:  -349.24607878384120
    Total Energy =                       -349.2460787838413125
  Basis Set: 6-31G*
  Basis Set:
  Basis Set: 6-31G*
  Basis Set:
  @DF-RHF Final Energy:  -349.24608421382038
    Total Energy =                       -349.2460842138201542
  Basis Set: 6-31G*
  Basis Set:
  Charge       = 0
  Multiplicity = 1
  Basis Set: 6-31G*
  Basis Set:

    Orbital Energies (a.u.)
    -----------------------

    Doubly Occupied:

       1A    -20.553587     2A    -11.267707     3A    -11.217491
       4A    -11.213640     5A    -11.212682     6A    -11.211398
       7A    -11.210988     8A    -11.207954     9A     -1.360182
      10A     -1.088251    11A     -1.048121    12A     -0.986349
      13A     -0.914190    14A     -0.846895    15A     -0.799672
      16A     -0.782134    17A     -0.679000    18A     -0.653860
      19A     -0.623347    20A     -0.619794    21A     -0.597939
      22A     -0.583147    23A     -0.558380    24A     -0.537264
      25A     -0.517945    26A     -0.511444    27A     -0.494846
      28A     -0.473738    29A     -0.467540    30A     -0.458467
      31A     -0.456799    32A     -0.451082    33A     -0.418440

  @DF-RHF Final Energy:  -349.24608509692274

   => Energetics <=

    Nuclear Repulsion Energy =            383.6848229219411337
    One-Electron Energy =               -1233.8132719895513674
    Two-Electron Energy =                 500.8823639706871518
    DFT Exchange-Correlation Energy =       0.0000000000000000
    Empirical Dispersion Energy =           0.0000000000000000
    PCM Polarization Energy =               0.0000000000000000
    EFP Energy =                            0.0000000000000000
    Total Energy =                       -349.2460850969231387
    Molecular point group: c1
  Basis Set: 6-31G*
  Basis Set:

  -Total Gradient:
     Atom            X                  Y                   Z
    ------   -----------------  -----------------  -----------------
       1       -0.000000092998    -0.000001019784     0.000001155994
       2       -0.000003216292    -0.000000106844    -0.000002963694
       3        0.000000955430     0.000000648488    -0.000002911456
       4        0.000008953750     0.000011700695    -0.000007846515
       5        0.000000579369     0.000000052499    -0.000000990951
       6        0.000001421582    -0.000001892102     0.000001372524
       7       -0.000007740143    -0.000025000950     0.000009308255
       8       -0.000009647455     0.000008102434     0.000001779519
       9        0.000009060452     0.000000209292    -0.000007039563
      10        0.000015622394    -0.000003031671     0.000004207044
      11       -0.000002533970     0.000009502689     0.000013412080
      12        0.000000856164    -0.000012611641    -0.000005313001
      13        0.001087594813    -0.003837249037    -0.000316757766
      14        0.000005873068     0.000008249839    -0.000008891319
      15        0.000019011095     0.000013677059     0.000008263599
      16        0.000479633996     0.001950987346    -0.003440733503
      17       -0.000985817977     0.002893404638     0.000794589719
      18       -0.000023779374     0.000012240630    -0.000005082712
      19        0.000005131249    -0.000018242954    -0.000004512086
      20       -0.000582961864    -0.001002895907     0.002945573593
      21        0.000003054306    -0.000009710763     0.000018693876
      22       -0.000007387704     0.000007217892     0.000002636302
      23        0.000003414927    -0.000001230268    -0.000000382579
      24       -0.000017984820    -0.000003001581     0.000002432641

  **** Optimization is complete! (in 6 steps) ****
    Final optimized geometry and variables:
    Molecular point group: c1

    Geometry (in Angstrom), charge = 0, multiplicity = 1:

    H           -3.371088124933     1.356441061446    -0.965544681867
    O           -3.432779447446     0.412446115966    -0.916453854739
    C           -3.194196646800     0.000240063866     0.405302782334
    C           -1.775560175291     0.298510137466     0.877713440911
    H           -3.374990841579    -1.067502821098     0.416864666870
    H           -3.914608769081     0.457958674066     1.081091123456
    C           -0.696832414536    -0.404047388509     0.052275401202
    H           -1.612920326250     1.376447507654     0.853327795915
    H           -1.693481567274     0.003474578399     1.922407472758
    C            0.723177582508    -0.077181178812     0.517205560595
    H           -0.813001329397    -0.131162887092    -0.992031113822
    H           -0.854557492641    -1.480183027104     0.105568124882
    C            1.803038650600    -0.801225178558    -0.293782503218
    H            0.881212377807     0.998353180970     0.456740280311
    H            0.830328869324    -0.340715553948     1.568229091500
    C            3.234741263247    -0.422707739793     0.122222696544
    H            1.657786979873    -0.560420670807    -1.345191002070
    H            1.658133839075    -1.873542177618    -0.192867873537
    C            3.782523738549     0.806750746855    -0.602072318287
    H            3.898536368290    -1.268234641993    -0.037520072244
    H            3.256104347315    -0.243687476117     1.195574114546
    H            3.845321691198     0.632313046196    -1.672363792741
    H            4.777564825856     1.059558461355    -0.248711205760
    H            3.148871241367     1.675138868749    -0.446646642522

  Mulliken Charges: (a.u.)
   Center  Symbol    Alpha    Beta     Spin     Total
       1     H     0.28339  0.28339  0.00000  0.43323
       2     O     4.36829  4.36829  0.00000 -0.73659
       3     C     2.99616  2.99616  0.00000  0.00769
       4     C     3.16900  3.16900  0.00000 -0.33800
       5     H     0.41632  0.41632  0.00000  0.16736
       6     H     0.42816  0.42816  0.00000  0.14368
       7     C     3.15216  3.15216  0.00000 -0.30432
       8     H     0.42832  0.42832  0.00000  0.14336
       9     H     0.42232  0.42232  0.00000  0.15535
      10     C     3.15324  3.15324  0.00000 -0.30648
      11     H     0.41202  0.41202  0.00000  0.17595
      12     H     0.42366  0.42366  0.00000  0.15269
      13     C     3.15349  3.15349  0.00000 -0.30699
      14     H     0.42462  0.42462  0.00000  0.15077
      15     H     0.42479  0.42479  0.00000  0.15043
      16     C     3.15462  3.15462  0.00000 -0.30924
      17     H     0.42248  0.42248  0.00000  0.15505
      18     H     0.42088  0.42088  0.00000  0.15824
      19     C     3.23974  3.23974  0.00000 -0.47947
      20     H     0.42036  0.42036  0.00000  0.15928
      21     H     0.42306  0.42306  0.00000  0.15388
      22     H     0.42117  0.42117  0.00000  0.15767
      23     H     0.41985  0.41985  0.00000  0.16030
      24     H     0.42191  0.42191  0.00000  0.15618

   Total alpha = 33.00000, Total beta = 33.00000, Total charge =  0.00000
