  ==> Input File <==

--------------------------------------------------------------------------
set {
	reference rhf
	basis 6-31G*
}

set_num_threads( 4 )
memory 2 gb

molecule MOL {
0 1

H	 2.601838	 2.161838	 -4.561263
C	 2.950031	 1.977560	 -3.549668
C	 1.790148	 1.992893	 -2.554875
H	 3.455287	 1.016299	 -3.543753
H	 3.685772	 2.740144	 -3.308937
C	 2.247694	 1.742787	 -1.116156
H	 1.063769	 1.238694	 -2.839758
H	 1.282907	 2.954911	 -2.608913
C	 1.110370	 1.770274	 -0.094881
H	 2.751878	 0.784743	 -1.056199
H	 2.975399	 2.501729	 -0.837780
C	 0.169600	 0.576866	 -0.172154
H	 1.521890	 1.775641	 0.913282
H	 0.532553	 2.687796	 -0.181239
C	 -1.181045	 0.701995	 0.511084
O	 0.482010	 -0.430947	 -0.731723
C	 -2.285934	 -0.139295	 -0.145128
H	 -1.449051	 1.751551	 0.493206
H	 -1.071135	 0.403303	 1.551943
C	 -3.651768	 0.085446	 0.506485
H	 -2.346596	 0.110469	 -1.202272
H	 -2.034737	 -1.195320	 -0.088721
C	 -4.759797	 -0.746382	 -0.137905
H	 -3.908762	 1.140117	 0.445781
H	 -3.588286	 -0.154158	 1.565709
H	 -4.868882	 -0.505166	 -1.191300
H	 -4.548009	 -1.809175	 -0.062213
H	 -5.715422	 -0.564821	 0.343442

	symmetry c1
}
set optking {
	frozen_dihedral = ("
		16 12 15 17
	")
}

ee = optimize('scf')
oeprop('DIPOLE', 'QUADRUPOLE', 'MULLIKEN_CHARGES')
f=open( 'psi4out.xyz', 'w' )
f.write( "28  " )
f.write( str(ee) + "\n" )
f.write( MOL.save_string_xyz() )
f.close()
--------------------------------------------------------------------------

    Molecular point group: c1
  Charge       = 0
  Multiplicity = 1
  Basis Set: 6-31G*
  Basis Set:
  @DF-RHF Final Energy:  -426.16939839163012
    Total Energy =                       -426.1693983916297839
    Molecular point group: c1
  Basis Set: 6-31G*
  Basis Set:
  Basis Set: 6-31G*
  Basis Set:
  @DF-RHF Final Energy:  -426.16917650075027
    Total Energy =                       -426.1691765007507229
  Basis Set: 6-31G*
  Basis Set:
  Basis Set: 6-31G*
  Basis Set:
  @DF-RHF Final Energy:  -426.16976972384964
    Total Energy =                       -426.1697697238498677
  Basis Set: 6-31G*
  Basis Set:
  Basis Set: 6-31G*
  Basis Set:
  @DF-RHF Final Energy:  -426.17053697383972
    Total Energy =                       -426.1705369738394893
  Basis Set: 6-31G*
  Basis Set:
  @DF-RHF Final Energy:  -426.17063475707312
    Total Energy =                       -426.1706347570727758
  @DF-RHF Final Energy:  -426.17068554128616
    Total Energy =                       -426.1706855412858204
  Basis Set: 6-31G*
  Basis Set:
  @DF-RHF Final Energy:  -426.17068026755794
    Total Energy =                       -426.1706802675580548
  Basis Set: 6-31G*
  Basis Set:
  Basis Set: 6-31G*
  Basis Set:
  @DF-RHF Final Energy:  -426.17061658726698
    Total Energy =                       -426.1706165872669771
  Basis Set: 6-31G*
  Basis Set:
  Basis Set: 6-31G*
  Basis Set:
  @DF-RHF Final Energy:  -426.17070681579673
    Total Energy =                       -426.1707068157968479
  Basis Set: 6-31G*
  Basis Set:
  Charge       = 0
  Multiplicity = 1
  Basis Set: 6-31G*
  Basis Set:

    Orbital Energies (a.u.)
    -----------------------

    Doubly Occupied:

       1A    -20.549725     2A    -11.324317     3A    -11.231388
       4A    -11.230645     5A    -11.219883     6A    -11.218795
       7A    -11.216742     8A    -11.210532     9A    -11.210488
      10A    -11.204823    11A     -1.395381    12A     -1.088459
      13A     -1.077031    14A     -1.022019    15A     -0.990331
      16A     -0.910339    17A     -0.865262    18A     -0.805172
      19A     -0.792717    20A     -0.724436    21A     -0.668736
      22A     -0.653840    23A     -0.627286    24A     -0.616766
      25A     -0.608051    26A     -0.583470    27A     -0.578385
      28A     -0.573086    29A     -0.534528    30A     -0.532322
      31A     -0.518064    32A     -0.507874    33A     -0.492604
      34A     -0.481108    35A     -0.475087    36A     -0.470050
      37A     -0.467313    38A     -0.464626    39A     -0.456614
      40A     -0.393491

  @DF-RHF Final Energy:  -426.17070677447145

   => Energetics <=

    Nuclear Repulsion Energy =            529.7175170073405752
    One-Electron Energy =               -1627.7928826554020816
    Two-Electron Energy =                 671.9046588735897103
    DFT Exchange-Correlation Energy =       0.0000000000000000
    Empirical Dispersion Energy =           0.0000000000000000
    PCM Polarization Energy =               0.0000000000000000
    EFP Energy =                            0.0000000000000000
    Total Energy =                       -426.1707067744717961
    Molecular point group: c1
  Basis Set: 6-31G*
  Basis Set:

  -Total Gradient:
     Atom            X                  Y                   Z
    ------   -----------------  -----------------  -----------------
       1        0.000000078771     0.000001096494     0.000000324324
       2       -0.000002062241     0.000001065245    -0.000004554247
       3        0.000009052961    -0.000003956412    -0.000014625419
       4       -0.000001551627     0.000000723370     0.000001181089
       5        0.000002144588     0.000002181869    -0.000000387112
       6        0.000003401727     0.000013526501    -0.000006245542
       7        0.000000877623    -0.000003460643    -0.000000999101
       8       -0.000002361183    -0.000001449248     0.000005006379
       9        0.000015303712    -0.000006965800     0.000061209637
      10       -0.000004874979     0.000001892811     0.000000811835
      11        0.000002561544    -0.000000526480    -0.000007716143
      12       -0.000840374007     0.000892283164    -0.001287974311
      13       -0.000003394823     0.000011348736     0.000008223264
      14       -0.000011135707    -0.000005247099    -0.000007085766
      15        0.000529127729    -0.001113302350     0.000851585315
      16        0.000501560544    -0.000468181278     0.000794548391
      17       -0.000225449496     0.000655361422    -0.000383595452
      18        0.000000775030    -0.000006576659    -0.000020121778
      19        0.000014728766    -0.000007627731     0.000015312091
      20       -0.000006127591     0.000025836384     0.000000609613
      21        0.000008011429     0.000024268430    -0.000011907991
      22       -0.000009018354     0.000001794492     0.000002891455
      23        0.000019419146    -0.000025599561     0.000009223791
      24       -0.000015485516     0.000000383687    -0.000015967911
      25        0.000007307444     0.000019373881     0.000005183077
      26        0.000002059862     0.000006323274     0.000007882268
      27       -0.000003437784    -0.000008223413    -0.000008156216
      28        0.000008862433    -0.000006343081     0.000005344463

  **** Optimization is complete! (in 10 steps) ****
    Final optimized geometry and variables:
    Molecular point group: c1

    Geometry (in Angstrom), charge = 0, multiplicity = 1:

    H            3.469446542312     1.352734623685    -3.668349805514
    C            3.648884102959     1.165375526489    -2.614198682107
    C            2.352252901421     1.250347241936    -1.810096473796
    H            4.098413325391     0.180696920253    -2.525617698428
    H            4.376791649705     1.894288781441    -2.267944199416
    C            2.572334538438     1.002767748034    -0.315799235339
    H            1.641061952706     0.528133099342    -2.194746654088
    H            1.908572368307     2.235262736740    -1.947625059743
    C            1.296088029395     1.092847002099     0.520300339416
    H            3.022937833645     0.026248962393    -0.171950974925
    H            3.281297868318     1.735431784407     0.063271333520
    C            0.352714627349    -0.089197674689     0.380446805716
    H            1.537983660539     1.177266006555     1.579378353641
    H            0.740369639912     1.997782673888     0.280162356754
    C           -0.908495295027    -0.048512774348     1.229881030208
    O            0.602356195735    -1.027067287367    -0.314890443381
    C           -2.077280923320    -0.827511373935     0.627406426253
    H           -1.190577604252     0.984406012575     1.415992756199
    H           -0.640491789061    -0.465445590907     2.200522578762
    C           -3.314411251997    -0.822207697250     1.526597406653
    H           -2.329722540602    -0.400500165347    -0.340389033453
    H           -1.761431946562    -1.846840502650     0.436908860988
    C           -4.483404021722    -1.602573334884     0.926730444994
    H           -3.624908342480     0.203641602765     1.714836457630
    H           -3.058213050144    -1.245765988096     2.495652283720
    H           -4.787416326227    -1.181080286997    -0.027117642457
    H           -4.214559628925    -2.641140494111     0.757520046563
    H           -5.345874718966    -1.586356735868     1.585727808765

  Mulliken Charges: (a.u.)
   Center  Symbol    Alpha    Beta     Spin     Total
       1     H     0.41938  0.41938  0.00000  0.16125
       2     C     3.24036  3.24036  0.00000 -0.48072
       3     C     3.15624  3.15624  0.00000 -0.31247
       4     H     0.41880  0.41880  0.00000  0.16240
       5     H     0.42411  0.42411  0.00000  0.15178
       6     C     3.14899  3.14899  0.00000 -0.29799
       7     H     0.40640  0.40640  0.00000  0.18721
       8     H     0.42820  0.42820  0.00000  0.14360
       9     C     3.21038  3.21038  0.00000 -0.42075
      10     H     0.40967  0.40967  0.00000  0.18066
      11     H     0.42184  0.42184  0.00000  0.15631
      12     C     2.73250  2.73250  0.00000  0.53501
      13     H     0.40695  0.40695  0.00000  0.18609
      14     H     0.40913  0.40913  0.00000  0.18174
      15     C     3.20567  3.20567  0.00000 -0.41134
      16     O     4.26859  4.26859  0.00000 -0.53718
      17     C     3.15093  3.15093  0.00000 -0.30186
      18     H     0.41378  0.41378  0.00000  0.17243
      19     H     0.40495  0.40495  0.00000  0.19010
      20     C     3.15325  3.15325  0.00000 -0.30650
      21     H     0.41923  0.41923  0.00000  0.16155
      22     H     0.40503  0.40503  0.00000  0.18995
      23     C     3.23946  3.23946  0.00000 -0.47893
      24     H     0.42410  0.42410  0.00000  0.15179
      25     H     0.42288  0.42288  0.00000  0.15423
      26     H     0.42079  0.42079  0.00000  0.15841
      27     H     0.41940  0.41940  0.00000  0.16121
      28     H     0.41900  0.41900  0.00000  0.16200

   Total alpha = 40.00000, Total beta = 40.00000, Total charge =  0.00000
