  ==> Input File <==

--------------------------------------------------------------------------
set {
	reference rhf
	basis 6-31G*
}

set_num_threads( 4 )
memory 2 gb

molecule MOL {
0 1

H	 -1.044111	 5.561599	 4.816377
C	 -1.812859	 4.797553	 4.754877
C	 -1.716133	 4.021066	 3.442288
H	 -1.691338	 4.136682	 5.608003
H	 -2.776873	 5.289623	 4.851535
C	 -2.791335	 2.939030	 3.320008
H	 -0.734142	 3.565397	 3.367058
H	 -1.806551	 4.713991	 2.607200
C	 -2.730990	 2.156694	 2.007919
H	 -2.704543	 2.244809	 4.148361
H	 -3.772258	 3.402665	 3.396653
C	 -1.542556	 1.213260	 1.894786
H	 -3.624630	 1.543103	 1.904558
H	 -2.736331	 2.829801	 1.153474
C	 -1.181045	 0.701995	 0.511084
O	 -0.923591	 0.868517	 2.856264
C	 -2.285934	 -0.139295	 -0.145128
H	 -0.276405	 0.115291	 0.616528
H	 -0.952976	 1.555695	 -0.124420
C	 -3.651768	 0.085446	 0.506485
H	 -2.346596	 0.110469	 -1.202272
H	 -2.034737	 -1.195320	 -0.088721
C	 -4.759797	 -0.746382	 -0.137905
H	 -3.908762	 1.140117	 0.445781
H	 -3.588286	 -0.154158	 1.565709
H	 -4.868882	 -0.505166	 -1.191300
H	 -4.548009	 -1.809175	 -0.062213
H	 -5.715422	 -0.564821	 0.343442

	symmetry c1
}
set optking {
	frozen_dihedral = ("
		12 15 17 21
	")
}

ee = optimize('scf')
oeprop('DIPOLE', 'QUADRUPOLE', 'MULLIKEN_CHARGES')
f=open( 'psi4out.xyz', 'w' )
f.write( "28  " )
f.write( str(ee) + "\n" )
f.write( MOL.save_string_xyz() )
f.close()
--------------------------------------------------------------------------

    Molecular point group: c1
  Charge       = 0
  Multiplicity = 1
  Basis Set: 6-31G*
  Basis Set:
  @DF-RHF Final Energy:  -426.12944602689095
    Total Energy =                       -426.1294460268906050
    Molecular point group: c1
  Basis Set: 6-31G*
  Basis Set:
  Basis Set: 6-31G*
  Basis Set:
  @DF-RHF Final Energy:  -426.15095609747925
    Total Energy =                       -426.1509560974789110
  Basis Set: 6-31G*
  Basis Set:
  Basis Set: 6-31G*
  Basis Set:
  @DF-RHF Final Energy:  -426.15555601206756
    Total Energy =                       -426.1555560120677910
  Basis Set: 6-31G*
  Basis Set:
  Basis Set: 6-31G*
  Basis Set:
  @DF-RHF Final Energy:  -426.15490151880476
    Total Energy =                       -426.1549015188044223
  Basis Set: 6-31G*
  Basis Set:
  @DF-RHF Final Energy:  -426.15843976849385
    Total Energy =                       -426.1584397684936221
  @DF-RHF Final Energy:  -426.15934127259914
    Total Energy =                       -426.1593412725987946
  @DF-RHF Final Energy:  -426.15979792836526
    Total Energy =                       -426.1597979283657196
  @DF-RHF Final Energy:  -426.16049802827342
    Total Energy =                       -426.1604980282733095
  @DF-RHF Final Energy:  -426.16120281213716
    Total Energy =                       -426.1612028121364801
  @DF-RHF Final Energy:  -426.16182233152529
    Total Energy =                       -426.1618223315255136
  @DF-RHF Final Energy:  -426.16204092107819
    Total Energy =                       -426.1620409210784146
  Basis Set: 6-31G*
  Basis Set:
  @DF-RHF Final Energy:  -426.16204532673362
    Total Energy =                       -426.1620453267340736
  Basis Set: 6-31G*
  Basis Set:
  Basis Set: 6-31G*
  Basis Set:
  @DF-RHF Final Energy:  -426.16207199835651
    Total Energy =                       -426.1620719983565095
  Basis Set: 6-31G*
  Basis Set:
  Basis Set: 6-31G*
  Basis Set:
  @DF-RHF Final Energy:  -426.16207380229321
    Total Energy =                       -426.1620738022933210
  Basis Set: 6-31G*
  Basis Set:
  Charge       = 0
  Multiplicity = 1
  Basis Set: 6-31G*
  Basis Set:

    Orbital Energies (a.u.)
    -----------------------

    Doubly Occupied:

       1A    -20.547509     2A    -11.323777     3A    -11.231233
       4A    -11.230124     5A    -11.226948     6A    -11.216523
       7A    -11.216257     8A    -11.210731     9A    -11.210208
      10A    -11.204882    11A     -1.393778    12A     -1.087118
      13A     -1.075429    14A     -1.020400    15A     -0.989319
      16A     -0.909012    17A     -0.869026    18A     -0.810173
      19A     -0.791740    20A     -0.719868    21A     -0.669419
      22A     -0.642540    23A     -0.630264    24A     -0.616195
      25A     -0.606375    26A     -0.583502    27A     -0.575654
      28A     -0.573762    29A     -0.552358    30A     -0.527371
      31A     -0.517061    32A     -0.509354    33A     -0.492910
      34A     -0.482069    35A     -0.474127    36A     -0.466629
      37A     -0.464828    38A     -0.461385    39A     -0.454973
      40A     -0.391859

  @DF-RHF Final Energy:  -426.16207414099745

   => Energetics <=

    Nuclear Repulsion Energy =            541.7651583009135265
    One-Electron Energy =               -1651.9010820596827216
    Two-Electron Energy =                 683.9738496177711795
    DFT Exchange-Correlation Energy =       0.0000000000000000
    Empirical Dispersion Energy =           0.0000000000000000
    PCM Polarization Energy =               0.0000000000000000
    EFP Energy =                            0.0000000000000000
    Total Energy =                       -426.1620741409980155
    Molecular point group: c1
  Basis Set: 6-31G*
  Basis Set:

  -Total Gradient:
     Atom            X                  Y                   Z
    ------   -----------------  -----------------  -----------------
       1        0.000001853652    -0.000005616960     0.000010199199
       2        0.000001049786    -0.000020743368     0.000001020772
       3       -0.000023067702    -0.000005384894    -0.000019069361
       4       -0.000007600441     0.000005639897     0.000002265034
       5        0.000007650005    -0.000002530724    -0.000005223603
       6        0.000010293233     0.000002773375     0.000014467477
       7        0.000018740235     0.000000191150    -0.000010694722
       8       -0.000004802567     0.000002394706     0.000005371712
       9        0.000132329756    -0.000075899141     0.000103219616
      10        0.000011879998     0.000012047061    -0.000006224972
      11       -0.000021129043     0.000013651155    -0.000017381251
      12       -0.002861483334     0.002217709121    -0.001315197851
      13       -0.000096051931    -0.000025695622    -0.000107071397
      14       -0.000009771614    -0.000014043531     0.000006052031
      15        0.003201056521    -0.002534588241     0.002231480037
      16        0.000018597820    -0.000022741498     0.000046775716
      17        0.003991726302    -0.001626871415    -0.002405929182
      18       -0.000006265187    -0.000009825253    -0.000008752783
      19       -0.000013855594    -0.000020602032    -0.000041552065
      20       -0.000006620147     0.000002477311    -0.000015252320
      21       -0.004326909232     0.002047406840     0.001543207346
      22        0.000023794946     0.000029183895     0.000003302489
      23       -0.000006243187    -0.000010189618    -0.000009131093
      24       -0.000037839071     0.000052900029     0.000022378939
      25        0.000008177849     0.000002680214    -0.000035430057
      26       -0.000002404533    -0.000007201860     0.000003502112
      27        0.000002896626    -0.000003393686    -0.000003835684
      28       -0.000006003150    -0.000003726908     0.000007503856

  **** Optimization is complete! (in 15 steps) ****
    Final optimized geometry and variables:
    Molecular point group: c1

    Geometry (in Angstrom), charge = 0, multiplicity = 1:

    H            1.801672820590     3.070935131927     3.834525761108
    C            0.853314750328     2.804544584937     3.378225772830
    C            1.050937159914     2.296042813737     1.950843467933
    H            0.388537655587     2.045935564945     4.001096482032
    H            0.217310917477     3.685494068071     3.398856097513
    C           -0.269596578885     1.920192651040     1.274559516716
    H            1.708452134006     1.433875528040     1.963310037242
    H            1.548805558032     3.064622550040     1.361627058930
    C           -0.106914765571     1.413359352817    -0.157262683504
    H           -0.776153247228     1.162427461748     1.862936036532
    H           -0.919354886253     2.792384263092     1.257021081406
    C            0.461930631802     0.011636327444    -0.279728337860
    H           -1.068048707203     1.402049308692    -0.671353930407
    H            0.520159532726     2.086835655994    -0.739494695025
    C            0.742516173399    -0.495630364130    -1.687987991025
    O            0.688200816649    -0.669927524782     0.674930936051
    C           -0.023316104371    -1.779682394452    -2.109548728689
    H            1.811773029102    -0.675131148617    -1.741715961510
    H            0.526144291548     0.298194683174    -2.395301459848
    C           -1.290464760288    -2.108425216724    -1.309437636258
    H           -0.329708369663    -1.648712484527    -3.143185306172
    H            0.644153881594    -2.633306699184    -2.074125084490
    C           -2.034134304518    -3.309672062061    -1.892800081293
    H           -1.956189666439    -1.246158287455    -1.306253921260
    H           -1.035023071336    -2.307720302541    -0.276299322608
    H           -2.345281980068    -3.125098540815    -2.917310825012
    H           -1.405198445456    -4.195474480790    -1.893159850817
    H           -2.922932413432    -3.537205708431    -1.312799967360

  Mulliken Charges: (a.u.)
   Center  Symbol    Alpha    Beta     Spin     Total
       1     H     0.41942  0.41942  0.00000  0.16117
       2     C     3.24024  3.24024  0.00000 -0.48048
       3     C     3.15616  3.15616  0.00000 -0.31231
       4     H     0.41872  0.41872  0.00000  0.16256
       5     H     0.42403  0.42403  0.00000  0.15194
       6     C     3.14922  3.14922  0.00000 -0.29843
       7     H     0.40732  0.40732  0.00000  0.18537
       8     H     0.42805  0.42805  0.00000  0.14389
       9     C     3.21485  3.21485  0.00000 -0.42969
      10     H     0.40898  0.40898  0.00000  0.18205
      11     H     0.42195  0.42195  0.00000  0.15611
      12     C     2.73090  2.73090  0.00000  0.53820
      13     H     0.40576  0.40576  0.00000  0.18847
      14     H     0.40899  0.40899  0.00000  0.18202
      15     C     3.20555  3.20555  0.00000 -0.41110
      16     O     4.27006  4.27006  0.00000 -0.54012
      17     C     3.14763  3.14763  0.00000 -0.29526
      18     H     0.39977  0.39977  0.00000  0.20045
      19     H     0.41445  0.41445  0.00000  0.17109
      20     C     3.16627  3.16627  0.00000 -0.33254
      21     H     0.41917  0.41917  0.00000  0.16165
      22     H     0.41296  0.41296  0.00000  0.17409
      23     C     3.24025  3.24025  0.00000 -0.48050
      24     H     0.42766  0.42766  0.00000  0.14468
      25     H     0.40102  0.40102  0.00000  0.19796
      26     H     0.42320  0.42320  0.00000  0.15361
      27     H     0.42001  0.42001  0.00000  0.15997
      28     H     0.41741  0.41741  0.00000  0.16518

   Total alpha = 40.00000, Total beta = 40.00000, Total charge = -0.00000
