                              Psi4 1.0.54 Driver

  ==> Input File <==

--------------------------------------------------------------------------
set {
	reference rhf
	basis cc-pvtz
}

set_num_threads( 4 )
memory 2 gb

molecule MOL {
0 1

H	 2.243170	 0.902103	 1.148117
O	 1.379462	 0.521417	 1.201244
C	 1.050374	 0.054877	 0.000135
C	 -0.318151	 -0.570512	 0.000144
O	 1.776060	 0.141751	 -0.929274
C	 -1.454884	 0.441630	 -0.000560
H	 -0.371613	 -1.223646	 -0.864985
H	 -0.371920	 -1.222758	 0.865929
C	 -2.822577	 -0.232186	 0.000063
H	 -1.359760	 1.084704	 -0.867077
H	 -1.359641	 1.085996	 0.864983
H	 -2.954352	 -0.858985	 -0.875745
H	 -3.615886	 0.505352	 0.000019
H	 -2.953878	 -0.858359	 0.876394

	symmetry c1
}
set optking {
	frozen_dihedral = ("
		2 3 4 7
	")
}

ee,wfn = optimize('scf', return_wfn=True)
oeprop( wfn, 'DIPOLE', 'QUADRUPOLE', 'MULLIKEN_CHARGES')
f=open( 'psi4out.xyz', 'w' )
f.write( "14  " )
f.write( str(ee) + "\n" )
f.write( MOL.save_string_xyz() )
f.close()
--------------------------------------------------------------------------

    Molecular point group: c1
  Charge       = 0
  Multiplicity = 1
  Basis Set: CC-PVTZ
  Basis Set:
  @DF-RHF Final Energy:  -305.99920643459251
    Total Energy =                       -305.9992064345924518
    Molecular point group: c1
  Basis Set: CC-PVTZ
  Basis Set:
  Basis Set: CC-PVTZ
  Basis Set:
  @DF-RHF Final Energy:  -305.99967301876137
    Total Energy =                       -305.9996730187612002
  Basis Set: CC-PVTZ
  Basis Set:
  Basis Set: CC-PVTZ
  Basis Set:
  @DF-RHF Final Energy:  -305.99973505153048
    Total Energy =                       -305.9997350515304788
  Basis Set: CC-PVTZ
  Basis Set:
  Basis Set: CC-PVTZ
  Basis Set:
  @DF-RHF Final Energy:  -305.99967574986692
    Total Energy =                       -305.9996757498669240
  Basis Set: CC-PVTZ
  Basis Set:
  Basis Set: CC-PVTZ
  Basis Set:
  @DF-RHF Final Energy:  -305.99974157290018
    Total Energy =                       -305.9997415728998931
  Basis Set: CC-PVTZ
  Basis Set:
  Charge       = 0
  Multiplicity = 1
  Basis Set: CC-PVTZ
  Basis Set:

    Orbital Energies (a.u.)
    -----------------------

    Doubly Occupied:

       1A    -20.605040     2A    -20.539138     3A    -11.372630
       4A    -11.238100     5A    -11.234229     6A    -11.219500
       7A     -1.477391     8A     -1.368150     9A     -1.087905
      10A     -0.980984    11A     -0.852533    12A     -0.812193
      13A     -0.706113    14A     -0.688528    15A     -0.643547
      16A     -0.639270    17A     -0.596540    18A     -0.568263
      19A     -0.554335    20A     -0.519769    21A     -0.501212
      22A     -0.489774    23A     -0.476303    24A     -0.441260

  @DF-RHF Final Energy:  -305.99974194445105

   => Energetics <=

    Nuclear Repulsion Energy =            240.9176006477848091
    One-Electron Energy =                -894.6092681140085006
    Two-Electron Energy =                 347.6919255217728164
    DFT Exchange-Correlation Energy =       0.0000000000000000
    Empirical Dispersion Energy =           0.0000000000000000
    PCM Polarization Energy =               0.0000000000000000
    EFP Energy =                            0.0000000000000000
    Total Energy =                       -305.9997419444508182
    Molecular point group: c1
  Basis Set: CC-PVTZ
  Basis Set:

  -Total Gradient:
     Atom            X                  Y                   Z
    ------   -----------------  -----------------  -----------------
       1       -0.000007989916    -0.000000520268    -0.000010863320
       2        0.000064933597    -0.000135565407    -0.000003294454
       3       -0.000120315913     0.000125888729     0.000102090227
       4       -0.000055283950     0.000130129391    -0.000120261279
       5        0.000032942037     0.000006159750    -0.000054383376
       6        0.000023227017    -0.000001713761    -0.000002975320
       7        0.000074194014    -0.000137313322     0.000085864203
       8        0.000003802631     0.000008756671    -0.000007212399
       9       -0.000012469928    -0.000003061156     0.000005553758
      10       -0.000008398802    -0.000007114864     0.000005234409
      11       -0.000011098319     0.000005925755    -0.000000385587
      12        0.000008908399     0.000005669179    -0.000000389438
      13        0.000001943882     0.000003395775     0.000002700561
      14        0.000005605250    -0.000000636469    -0.000001677986

  **** Optimization is complete! (in 6 steps) ****
    Final optimized geometry and variables:
    Molecular point group: c1

    Geometry (in Angstrom), charge = 0, multiplicity = 1:

    H            2.273997411753     0.852686515974     1.067407719649
    O            1.434585107675     0.424354545777     1.143895561353
    C            1.076681001364    -0.017087287594    -0.058565712096
    C           -0.273864771119    -0.678037831202    -0.051199891176
    O            1.761134863912     0.130207174693    -1.012023851998
    C           -1.406203205016     0.356062058414    -0.052650811629
    H           -0.332508557230    -1.301989440171    -0.931499037366
    H           -0.350877039460    -1.305784675566     0.828074924308
    C           -2.781084603743    -0.301543075124    -0.067868173549
    H           -1.298450598234     0.996751165220    -0.921247311708
    H           -1.313293964821     0.990385420624     0.821329064825
    H           -2.908161908642    -0.923000244854    -0.947414421372
    H           -3.565716666712     0.445351697958    -0.073234435591
    H           -2.925060432399    -0.928109869395     0.805642916031

  Mulliken Charges: (a.u.)
   Center  Symbol    Alpha    Beta     Spin     Total
       1     H     0.38034  0.38034  0.00000  0.23932
       2     O     4.16418  4.16418  0.00000 -0.32836
       3     C     2.80491  2.80491  0.00000  0.39018
       4     C     3.08700  3.08700  0.00000 -0.17400
       5     O     4.19640  4.19640  0.00000 -0.39281
       6     C     3.09446  3.09446  0.00000 -0.18892
       7     H     0.43740  0.43740  0.00000  0.12520
       8     H     0.44380  0.44380  0.00000  0.11239
       9     C     3.14975  3.14975  0.00000 -0.29950
      10     H     0.44492  0.44492  0.00000  0.11016
      11     H     0.44476  0.44476  0.00000  0.11049
      12     H     0.45264  0.45264  0.00000  0.09471
      13     H     0.44568  0.44568  0.00000  0.10864
      14     H     0.45375  0.45375  0.00000  0.09249

   Total alpha = 24.00000, Total beta = 24.00000, Total charge = -0.00000

*** Psi4 exiting successfully. Buy a developer a beer!
