  ==> Input File <==

--------------------------------------------------------------------------
set {
	reference rhf
	basis 6-31G*
}

set_num_threads( 4 )
memory 2 gb

molecule MOL {
0 1

H	 3.141436	 -1.998258	 -3.571535
C	 2.655383	 -2.056131	 -2.602952
C	 1.416630	 -1.162747	 -2.554793
H	 2.396320	 -3.096222	 -2.425963
H	 3.383021	 -1.764451	 -1.850814
C	 0.703126	 -1.214119	 -1.207696
H	 0.714110	 -1.453941	 -3.329428
H	 1.705520	 -0.135059	 -2.768784
N	 -0.481594	 -0.378720	 -1.209739
H	 0.391573	 -2.235465	 -1.005824
H	 1.403869	 -0.941534	 -0.411433
C	 -1.217365	 -0.386708	 0.039277
H	 -0.224553	 0.562858	 -1.438651
C	 -2.452633	 0.504241	 -0.042481
H	 -1.525730	 -1.409436	 0.239019
H	 -0.599140	 -0.078634	 0.889143
C	 -3.758029	 -0.289423	 -0.010781
H	 -2.394220	 1.093569	 -0.952170
H	 -2.440793	 1.210787	 0.785871
H	 -3.816659	 -0.981993	 -0.845726
H	 -4.617837	 0.370165	 -0.069296
H	 -3.847478	 -0.867502	 0.904682

	symmetry c1
}
set optking {
	frozen_dihedral = ("
		15 12 14 18
	")
}

ee = optimize('scf')
oeprop('DIPOLE', 'QUADRUPOLE', 'MULLIKEN_CHARGES')
f=open( 'psi4out.xyz', 'w' )
f.write( "22  " )
f.write( str(ee) + "\n" )
f.write( MOL.save_string_xyz() )
f.close()
--------------------------------------------------------------------------

    Molecular point group: c1
  Charge       = 0
  Multiplicity = 1
  Basis Set: 6-31G*
  Basis Set:
  @DF-RHF Final Energy:  -290.37722625917155
    Total Energy =                       -290.3772262591711524
    Molecular point group: c1
  Basis Set: 6-31G*
  Basis Set:
  Basis Set: 6-31G*
  Basis Set:
  @DF-RHF Final Energy:  -290.37760241239022
    Total Energy =                       -290.3776024123902744
  Basis Set: 6-31G*
  Basis Set:
  Basis Set: 6-31G*
  Basis Set:
  @DF-RHF Final Energy:  -290.37772170096486
    Total Energy =                       -290.3777217009645142
  Basis Set: 6-31G*
  Basis Set:
  Basis Set: 6-31G*
  Basis Set:
  @DF-RHF Final Energy:  -290.37772386287168
    Total Energy =                       -290.3777238628716191
  Basis Set: 6-31G*
  Basis Set:
  Charge       = 0
  Multiplicity = 1
  Basis Set: 6-31G*
  Basis Set:

    Orbital Energies (a.u.)
    -----------------------

    Doubly Occupied:

       1A    -15.534105     2A    -11.238051     3A    -11.237699
       4A    -11.213655     5A    -11.213187     6A    -11.209776
       7A    -11.206024     8A     -1.204998     9A     -1.057141
      10A     -1.023500    11A     -0.926514    12A     -0.868915
      13A     -0.810886    14A     -0.793942    15A     -0.662640
      16A     -0.631794    17A     -0.614005    18A     -0.606824
      19A     -0.572392    20A     -0.563082    21A     -0.539702
      22A     -0.523802    23A     -0.507224    24A     -0.487336
      25A     -0.475939    26A     -0.475311    27A     -0.466743
      28A     -0.449625    29A     -0.358246

  @DF-RHF Final Energy:  -290.37772395760686

   => Energetics <=

    Nuclear Repulsion Energy =            314.6825437026079157
    One-Electron Energy =               -1015.1744168314714898
    Two-Electron Energy =                 410.1141491712564289
    DFT Exchange-Correlation Energy =       0.0000000000000000
    Empirical Dispersion Energy =           0.0000000000000000
    PCM Polarization Energy =               0.0000000000000000
    EFP Energy =                            0.0000000000000000
    Total Energy =                       -290.3777239576070883
    Molecular point group: c1
  Basis Set: 6-31G*
  Basis Set:

  -Total Gradient:
     Atom            X                  Y                   Z
    ------   -----------------  -----------------  -----------------
       1       -0.000003449397     0.000001427057     0.000000733345
       2       -0.000004835695    -0.000000242088     0.000001781297
       3        0.000009257348     0.000001172706     0.000002415698
       4        0.000000060256    -0.000001302564     0.000000459068
       5        0.000000016100     0.000001277079    -0.000000014078
       6        0.000004764645     0.000001635919    -0.000015361813
       7       -0.000001109978    -0.000001106335    -0.000003363533
       8        0.000001997576     0.000002101058    -0.000001719655
       9        0.000007469756    -0.000005144521     0.000032072593
      10       -0.000001400440    -0.000003036938     0.000000592095
      11        0.000003508465     0.000000580396     0.000000272455
      12       -0.000107778081     0.000119696133     0.002607181775
      13        0.000001471161    -0.000005423739     0.000003975363
      14        0.001357083677     0.002030190722     0.000880087920
      15       -0.000145328036    -0.000404806948    -0.002346445867
      16       -0.000010127583     0.000020787098    -0.000021349408
      17       -0.000000016320    -0.000009856391     0.000007583257
      18       -0.001123013999    -0.001728391699    -0.001162795623
      19        0.000013637636    -0.000027397040     0.000013121307
      20        0.000018433837    -0.000009547147     0.000014595440
      21       -0.000006352712     0.000003373165    -0.000010261668
      22       -0.000014288215     0.000014014080    -0.000003559969

  **** Optimization is complete! (in 5 steps) ****
    Final optimized geometry and variables:
    Molecular point group: c1

    Geometry (in Angstrom), charge = 0, multiplicity = 1:

    H            3.559618653954    -1.300211097722    -2.508058526199
    C            3.082108543079    -1.353389145021    -1.534947395746
    C            1.850088606257    -0.451375040902    -1.476833183329
    H            2.817504272833    -2.391377967973    -1.354030847890
    H            3.818589356044    -1.065634165166    -0.789934663836
    C            1.147905587091    -0.496869800611    -0.123530090326
    H            1.138958084183    -0.738434755159    -2.245124752270
    H            2.144284828858     0.574134392517    -1.694272387164
    N           -0.031589513534     0.345574145260    -0.116366296955
    H            0.832294236310    -1.516219015401     0.082585749429
    H            1.857233982273    -0.227506626679     0.666398848530
    C           -0.750244879198     0.348593378761     1.146737364787
    H            0.230483923209     1.284458988156    -0.350824096542
    C           -2.013586253296     1.226494967052     1.064945928282
    H           -1.032318091311    -0.680619174201     1.346634132594
    H           -0.115692304113     0.667300782850     1.977793028639
    C           -3.307290894952     0.411260435783     1.036841876374
    H           -1.967605857879     1.817424004262     0.155230695381
    H           -2.043376226450     1.923005793203     1.897669963144
    H           -3.303342315965    -0.281555903407     0.200936219254
    H           -4.176186742818     1.054401822430     0.934946898284
    H           -3.428461796566    -0.166648373929     1.948858171453

  Mulliken Charges: (a.u.)
   Center  Symbol    Alpha    Beta     Spin     Total
       1     H     0.41775  0.41775  0.00000  0.16451
       2     C     3.24324  3.24324  0.00000 -0.48649
       3     C     3.15549  3.15549  0.00000 -0.31098
       4     H     0.42069  0.42069  0.00000  0.15863
       5     H     0.42166  0.42166  0.00000  0.15669
       6     C     3.04735  3.04735  0.00000 -0.09470
       7     H     0.41305  0.41305  0.00000  0.17390
       8     H     0.42669  0.42669  0.00000  0.14662
       9     N     3.85752  3.85752  0.00000 -0.71503
      10     H     0.42176  0.42176  0.00000  0.15648
      11     H     0.43635  0.43635  0.00000  0.12730
      12     C     3.05475  3.05475  0.00000 -0.10951
      13     H     0.33521  0.33521  0.00000  0.32959
      14     C     3.15705  3.15705  0.00000 -0.31410
      15     H     0.41867  0.41867  0.00000  0.16265
      16     H     0.43281  0.43281  0.00000  0.13438
      17     C     3.24198  3.24198  0.00000 -0.48396
      18     H     0.41667  0.41667  0.00000  0.16666
      19     H     0.42188  0.42188  0.00000  0.15624
      20     H     0.41528  0.41528  0.00000  0.16945
      21     H     0.42105  0.42105  0.00000  0.15790
      22     H     0.42311  0.42311  0.00000  0.15377

   Total alpha = 29.00000, Total beta = 29.00000, Total charge =  0.00000
