  ==> Input File <==

--------------------------------------------------------------------------
set {
	reference rhf
	basis 6-31G*
}

set_num_threads( 4 )
memory 2 gb

molecule MOL {
0 1

H	 -3.135461	 -1.215070	 0.001379
O	 -2.310168	 -0.871793	 -0.309793
C	 -2.026376	 0.340750	 0.341611
C	 -0.673256	 0.843270	 -0.132153
H	 -2.792215	 1.080697	 0.115987
H	 -2.013526	 0.200402	 1.421792
C	 0.486613	 -0.083066	 0.235839
H	 -0.715586	 0.970948	 -1.210718
H	 -0.508072	 1.829858	 0.297090
C	 1.840406	 0.433480	 -0.254303
H	 0.300215	 -1.068318	 -0.178947
H	 0.519509	 -0.203625	 1.318070
C	 2.269737	 1.727207	 0.436796
H	 2.597355	 -0.330570	 -0.090069
H	 1.799678	 0.595869	 -1.329670
H	 2.353304	 1.587609	 1.510769
H	 3.233522	 2.068467	 0.071277
H	 1.549788	 2.522178	 0.262997

	symmetry c1
}
set optking {
	frozen_dihedral = ("
		14 10 7 11
	")
}

ee = optimize('scf')
oeprop('DIPOLE', 'QUADRUPOLE', 'MULLIKEN_CHARGES')
f=open( 'psi4out.xyz', 'w' )
f.write( "18  " )
f.write( str(ee) + "\n" )
f.write( MOL.save_string_xyz() )
f.close()
--------------------------------------------------------------------------

    Molecular point group: c1
  Charge       = 0
  Multiplicity = 1
  Basis Set: 6-31G*
  Basis Set:
  @DF-RHF Final Energy:  -271.17787256532097
    Total Energy =                       -271.1778725653211382
    Molecular point group: c1
  Basis Set: 6-31G*
  Basis Set:
  Basis Set: 6-31G*
  Basis Set:
  @DF-RHF Final Energy:  -271.17817180389409
    Total Energy =                       -271.1781718038938607
  Basis Set: 6-31G*
  Basis Set:
  Basis Set: 6-31G*
  Basis Set:
  @DF-RHF Final Energy:  -271.17840097439341
    Total Energy =                       -271.1784009743934121
  Basis Set: 6-31G*
  Basis Set:
  Basis Set: 6-31G*
  Basis Set:
  @DF-RHF Final Energy:  -271.17840958377280
    Total Energy =                       -271.1784095837728046
  Basis Set: 6-31G*
  Basis Set:
  Charge       = 0
  Multiplicity = 1
  Basis Set: 6-31G*
  Basis Set:

    Orbital Energies (a.u.)
    -----------------------

    Doubly Occupied:

       1A    -20.553051     2A    -11.268079     3A    -11.211599
       4A    -11.210910     5A    -11.206457     6A    -11.205435
       7A     -1.359781     8A     -1.074507     9A     -1.006287
      10A     -0.914810    11A     -0.828476    12A     -0.772612
      13A     -0.705435    14A     -0.634544    15A     -0.616992
      16A     -0.606678    17A     -0.567915    18A     -0.549611
      19A     -0.523699    20A     -0.502895    21A     -0.493095
      22A     -0.460647    23A     -0.457422    24A     -0.448508
      25A     -0.427982

  @DF-RHF Final Energy:  -271.17841005604873

   => Energetics <=

    Nuclear Repulsion Energy =            251.3110042756478322
    One-Electron Energy =                -865.7639725614292274
    Two-Electron Energy =                 343.2745582297325768
    DFT Exchange-Correlation Energy =       0.0000000000000000
    Empirical Dispersion Energy =           0.0000000000000000
    PCM Polarization Energy =               0.0000000000000000
    EFP Energy =                            0.0000000000000000
    Total Energy =                       -271.1784100560487900
    Molecular point group: c1
  Basis Set: 6-31G*
  Basis Set:

  -Total Gradient:
     Atom            X                  Y                   Z
    ------   -----------------  -----------------  -----------------
       1       -0.000003066188     0.000003353067    -0.000001303229
       2       -0.000034183994     0.000033593310    -0.000020750669
       3        0.000020789004    -0.000029570583     0.000066810677
       4        0.000018014896    -0.000050423775    -0.000074418952
       5       -0.000009341752    -0.000019339113    -0.000010363231
       6       -0.000003492149     0.000009767191     0.000008009096
       7       -0.000139623751     0.000126953731    -0.000241676287
       8       -0.000006067472     0.000013721482    -0.000017752106
       9        0.000024642063    -0.000019138208    -0.000003056050
      10        0.000047585478     0.000154678587     0.000304962235
      11        0.000107497406    -0.000071892374     0.000210964678
      12       -0.000032439197    -0.000021910979     0.000038358077
      13        0.000040110797    -0.000053135913     0.000014578750
      14       -0.000034413751    -0.000069588306    -0.000233512782
      15        0.000020576730     0.000011942787    -0.000034227640
      16       -0.000009810129     0.000011511664     0.000003076218
      17        0.000008633201     0.000006380033     0.000007501374
      18       -0.000015411192    -0.000036902597    -0.000017200157

  **** Optimization is complete! (in 5 steps) ****
    Final optimized geometry and variables:
    Molecular point group: c1

    Geometry (in Angstrom), charge = 0, multiplicity = 1:

    H           -2.990277138489    -1.639861991053    -0.122128092459
    O           -2.170975283167    -1.264427864418    -0.411236215683
    C           -1.924749442226    -0.070582070976     0.288214889922
    C           -0.578342041609     0.483453904506    -0.147304304901
    H           -2.705754159876     0.658252789044     0.079096803236
    H           -1.922684293860    -0.250287020925     1.362649307873
    C            0.595608438716    -0.430524080370     0.212308493970
    H           -0.606538536446     0.640254070316    -1.222782694918
    H           -0.455736707153     1.460473810239     0.312986447921
    C            1.955686222979     0.061249214966    -0.295524547542
    H            0.402636660182    -1.416301453355    -0.196087901438
    H            0.639329861986    -0.548288541392     1.294772428561
    C            2.450204274293     1.353394510730     0.357037817901
    H            2.690786488767    -0.720973570462    -0.122796474455
    H            1.908194763943     0.196479256159    -1.374233508367
    H            2.499698127045     1.250588050230     1.437911272408
    H            3.445053709880     1.608426953075     0.004681249207
    H            1.802134890966     2.194887217799     0.134401298791

  Mulliken Charges: (a.u.)
   Center  Symbol    Alpha    Beta     Spin     Total
       1     H     0.28057  0.28057  0.00000  0.43887
       2     O     4.36977  4.36977  0.00000 -0.73953
       3     C     2.99690  2.99690  0.00000  0.00621
       4     C     3.16191  3.16191  0.00000 -0.32382
       5     H     0.42917  0.42917  0.00000  0.14165
       6     H     0.43260  0.43260  0.00000  0.13481
       7     C     3.15567  3.15567  0.00000 -0.31134
       8     H     0.41545  0.41545  0.00000  0.16910
       9     H     0.42230  0.42230  0.00000  0.15540
      10     C     3.15328  3.15328  0.00000 -0.30656
      11     H     0.40552  0.40552  0.00000  0.18896
      12     H     0.42809  0.42809  0.00000  0.14383
      13     C     3.24102  3.24102  0.00000 -0.48204
      14     H     0.42110  0.42110  0.00000  0.15780
      15     H     0.42262  0.42262  0.00000  0.15476
      16     H     0.42307  0.42307  0.00000  0.15386
      17     H     0.41959  0.41959  0.00000  0.16082
      18     H     0.42138  0.42138  0.00000  0.15724

   Total alpha = 25.00000, Total beta = 25.00000, Total charge = -0.00000
