  ==> Input File <==

--------------------------------------------------------------------------
set {
	reference rhf
	basis cc-pvtz
}

set_num_threads( 4 )
memory 2 gb

molecule MOL {
0 1

H	 2.085000	 -0.899000	 1.171000
C	 2.071000	 -0.225000	 0.306000
C	 0.813000	 0.588000	 0.145000
O	 3.006000	 -0.176000	 -0.427000
C	 -0.437000	 -0.299000	 0.075000
H	 0.914000	 1.199000	 -0.744000
H	 0.735000	 1.253000	 1.005000
C	 -1.730000	 0.510000	 -0.033000
H	 -0.356000	 -0.966000	 -0.781000
H	 -0.483000	 -0.935000	 0.957000
C	 -2.976000	 -0.370000	 -0.112000
H	 -1.681000	 1.149000	 -0.911000
H	 -1.810000	 1.175000	 0.825000
H	 -2.941000	 -1.023000	 -0.980000
H	 -3.876000	 0.231000	 -0.187000
H	 -3.070000	 -0.998000	 0.770000

	symmetry c1
}
ee = optimize('scf')
oeprop('DIPOLE', 'QUADRUPOLE', 'MULLIKEN_CHARGES')
f=open( 'psi4out.xyz', 'w' )
f.write( "16  " )
f.write( str(ee) + "\n" )
f.write( MOL.save_string_xyz() )
f.close()
--------------------------------------------------------------------------

    Molecular point group: c1
  Charge       = 0
  Multiplicity = 1
  Basis Set: CC-PVTZ
  Basis Set:
  @DF-RHF Final Energy:  -270.11910887856141
    Total Energy =                       -270.1191088785612919
    Molecular point group: c1
  Basis Set: CC-PVTZ
  Basis Set:
  Basis Set: CC-PVTZ
  Basis Set:
  @DF-RHF Final Energy:  -270.11921764972033
    Total Energy =                       -270.1192176497206674
  Basis Set: CC-PVTZ
  Basis Set:
  Basis Set: CC-PVTZ
  Basis Set:
  @DF-RHF Final Energy:  -270.11729437938089
    Total Energy =                       -270.1172943793809509
  Basis Set: CC-PVTZ
  Basis Set:
  Basis Set: CC-PVTZ
  Basis Set:
  @DF-RHF Final Energy:  -270.11923962438334
    Total Energy =                       -270.1192396243833400
  Basis Set: CC-PVTZ
  Basis Set:
  Basis Set: CC-PVTZ
  Basis Set:
  @DF-RHF Final Energy:  -270.11924433937656
    Total Energy =                       -270.1192443393765643
  Basis Set: CC-PVTZ
  Basis Set:
  Basis Set: CC-PVTZ
  Basis Set:
  @DF-RHF Final Energy:  -270.11923426176418
    Total Energy =                       -270.1192342617642339
  Basis Set: CC-PVTZ
  Basis Set:
  Basis Set: CC-PVTZ
  Basis Set:
  @DF-RHF Final Energy:  -270.11924596167745
    Total Energy =                       -270.1192459616773931
  Basis Set: CC-PVTZ
  Basis Set:
  Charge       = 0
  Multiplicity = 1
  Basis Set: CC-PVTZ
  Basis Set:

    Orbital Energies (a.u.)
    -----------------------

    Doubly Occupied:

       1A    -20.552084     2A    -11.321310     3A    -11.234686
       4A    -11.233977     5A    -11.227523     6A    -11.216714
       7A     -1.406864     8A     -1.097988     9A     -1.020203
      10A     -0.906874    11A     -0.812622    12A     -0.794020
      13A     -0.681011    14A     -0.649248    15A     -0.634231
      16A     -0.604604    17A     -0.582745    18A     -0.552430
      19A     -0.530230    20A     -0.510253    21A     -0.488679
      22A     -0.483084    23A     -0.480182    24A     -0.411569

  @DF-RHF Final Energy:  -270.11924602290190

   => Energetics <=

    Nuclear Repulsion Energy =            229.3692356846952976
    One-Electron Energy =                -820.1107018052164221
    Two-Electron Energy =                 320.6222200976191061
    DFT Exchange-Correlation Energy =       0.0000000000000000
    Empirical Dispersion Energy =           0.0000000000000000
    PCM Polarization Energy =               0.0000000000000000
    EFP Energy =                            0.0000000000000000
    Total Energy =                       -270.1192460229020753
    Molecular point group: c1
  Basis Set: CC-PVTZ
  Basis Set:

  -Total Gradient:
     Atom            X                  Y                   Z
    ------   -----------------  -----------------  -----------------
       1        0.000006709497    -0.000003493534    -0.000008273149
       2        0.000022584211     0.000018002608    -0.000016953987
       3       -0.000023831800    -0.000036131283    -0.000007815271
       4       -0.000006137976    -0.000005242854     0.000022883904
       5        0.000004880662     0.000027895214     0.000006594294
       6       -0.000000190459     0.000002548727     0.000005919039
       7        0.000008180480     0.000004945220     0.000004502316
       8       -0.000002621000    -0.000010207261    -0.000011862031
       9       -0.000000157009     0.000000905996     0.000003556156
      10       -0.000004510813    -0.000000555911    -0.000000338924
      11       -0.000005758136     0.000004446356     0.000005833267
      12        0.000000033932    -0.000002158073    -0.000001303507
      13        0.000001588057    -0.000002783305    -0.000004090311
      14        0.000001075221     0.000004857115     0.000001315747
      15       -0.000003112544    -0.000002013717     0.000002642165
      16        0.000001267675    -0.000001015299    -0.000002609708

  **** Optimization is complete! (in 8 steps) ****
    Final optimized geometry and variables:
    Molecular point group: c1

    Geometry (in Angstrom), charge = 0, multiplicity = 1:

    H            1.967309640453    -0.875294891163     1.199436837764
    C            1.948179551954    -0.217872938836     0.320185232500
    C            0.692262036609     0.592428417352     0.156231758892
    O            2.872369529428    -0.188604988310    -0.416463221909
    C           -0.554654082927    -0.292621386522     0.086567191105
    H            0.791857715822     1.203694385976    -0.731050891743
    H            0.617378771390     1.254357803821     1.016533555511
    C           -1.846384687053     0.513195280672    -0.016346237350
    H           -0.473986378972    -0.956114715998    -0.769708416825
    H           -0.597929481161    -0.929214887268     0.966651219089
    C           -3.089953342452    -0.365048735838    -0.098563512840
    H           -1.798267443911     1.154820299860    -0.891142668557
    H           -1.925397912831     1.173265539785     0.842888622784
    H           -3.055079177939    -1.012299201046    -0.968244695896
    H           -3.988402984414     0.236438374954    -0.170014288940
    H           -3.183054865749    -0.995885403304     0.779078775416

  Mulliken Charges: (a.u.)
   Center  Symbol    Alpha    Beta     Spin     Total
       1     H     0.46535  0.46535  0.00000  0.06930
       2     C     2.90931  2.90931  0.00000  0.18137
       3     C     3.07659  3.07659  0.00000 -0.15319
       4     O     4.16414  4.16414  0.00000 -0.32829
       5     C     3.10226  3.10226  0.00000 -0.20451
       6     H     0.44243  0.44243  0.00000  0.11513
       7     H     0.45016  0.45016  0.00000  0.09967
       8     C     3.08463  3.08463  0.00000 -0.16925
       9     H     0.44577  0.44577  0.00000  0.10846
      10     H     0.45198  0.45198  0.00000  0.09604
      11     C     3.14906  3.14906  0.00000 -0.29812
      12     H     0.45064  0.45064  0.00000  0.09873
      13     H     0.45329  0.45329  0.00000  0.09342
      14     H     0.45320  0.45320  0.00000  0.09359
      15     H     0.44663  0.44663  0.00000  0.10674
      16     H     0.45455  0.45455  0.00000  0.09090

   Total alpha = 24.00000, Total beta = 24.00000, Total charge =  0.00000
