  ==> Input File <==

--------------------------------------------------------------------------
set {
	reference rhf
	basis cc-pvtz
}

set_num_threads( 4 )
memory 2 gb

molecule MOL {
0 1

H	 1.380902	 0.738359	 -0.911517
C	 0.848385	 0.440008	 0.000011
C	 -0.623497	 0.751021	 0.000090
O	 1.432354	 -0.082369	 0.885080
C	 -1.523725	 -0.474323	 -0.000013
H	 -0.813143	 1.382932	 -0.864897
H	 -0.813071	 1.382716	 0.865253
H	 -1.342980	 -1.087348	 -0.873016
H	 -2.565269	 -0.177464	 0.000070
H	 -1.342898	 -1.087564	 0.872820

	symmetry c1
}
set optking {
	frozen_dihedral = ("
		4 2 3 6
	")
}

ee = optimize('scf')
oeprop('DIPOLE', 'QUADRUPOLE', 'MULLIKEN_CHARGES')
f=open( 'psi4out.xyz', 'w' )
f.write( "10  " )
f.write( str(ee) + "\n" )
f.write( MOL.save_string_xyz() )
f.close()
--------------------------------------------------------------------------

    Molecular point group: c1
  Charge       = 0
  Multiplicity = 1
  Basis Set: CC-PVTZ
  Basis Set:
  @DF-RHF Final Energy:  -192.02060217299800
    Total Energy =                       -192.0206021729979113
    Molecular point group: c1
  Basis Set: CC-PVTZ
  Basis Set:
  Basis Set: CC-PVTZ
  Basis Set:
  @DF-RHF Final Energy:  -192.02131955341406
    Total Energy =                       -192.0213195534139743
  Basis Set: CC-PVTZ
  Basis Set:
  Basis Set: CC-PVTZ
  Basis Set:
  @DF-RHF Final Energy:  -192.02142733154204
    Total Energy =                       -192.0214273315419860
  Basis Set: CC-PVTZ
  Basis Set:
  Basis Set: CC-PVTZ
  Basis Set:
  @DF-RHF Final Energy:  -192.02147856997124
    Total Energy =                       -192.0214785699712365
  Basis Set: CC-PVTZ
  Basis Set:
  Basis Set: CC-PVTZ
  Basis Set:
  @DF-RHF Final Energy:  -192.02148397756244
    Total Energy =                       -192.0214839775623261
  Basis Set: CC-PVTZ
  Basis Set:
  Charge       = 0
  Multiplicity = 1
  Basis Set: CC-PVTZ
  Basis Set:

    Orbital Energies (a.u.)
    -----------------------

    Doubly Occupied:

       1A    -20.553446     2A    -11.323297     3A    -11.237555
       4A    -11.227242     5A     -1.408907     6A     -1.062399
       7A     -0.905726     8A     -0.785785     9A     -0.685821
      10A     -0.642485    11A     -0.609226    12A     -0.573269
      13A     -0.539582    14A     -0.511380    15A     -0.496433
      16A     -0.414383

  @DF-RHF Final Energy:  -192.02148465058062

   => Energetics <=

    Nuclear Repulsion Energy =            118.7085968922273480
    One-Electron Energy =                -495.5062940854487579
    Two-Electron Energy =                 184.7762125426409341
    DFT Exchange-Correlation Energy =       0.0000000000000000
    Empirical Dispersion Energy =           0.0000000000000000
    PCM Polarization Energy =               0.0000000000000000
    EFP Energy =                            0.0000000000000000
    Total Energy =                       -192.0214846505805042
    Molecular point group: c1
  Basis Set: CC-PVTZ
  Basis Set:

  -Total Gradient:
     Atom            X                  Y                   Z
    ------   -----------------  -----------------  -----------------
       1       -0.000005460427    -0.000003560183     0.000012529985
       2        0.000114164954     0.000625188476     0.000133518819
       3        0.000071777000     0.000349971296     0.000264849595
       4       -0.000088217692    -0.000513946876    -0.000135621249
       5        0.000008856609    -0.000018299308     0.000018538522
       6       -0.000094174660    -0.000411453626    -0.000284362654
       7        0.000010610139    -0.000011673258    -0.000014193053
       8        0.000000093561     0.000011840763     0.000005113013
       9        0.000001708696    -0.000009503661    -0.000002298268
      10       -0.000019358179    -0.000018563624     0.000001925290

  **** Optimization is complete! (in 6 steps) ****
    Final optimized geometry and variables:
    Molecular point group: c1

    Geometry (in Angstrom), charge = 0, multiplicity = 1:

    H            1.379395614027     0.508926808884    -1.151571631615
    C            0.819334432894     0.281047164490    -0.236923121364
    C           -0.649028941029     0.636667775085    -0.236555127968
    O            1.365415821100    -0.234219766015     0.676580464162
    C           -1.522682936652    -0.620612637715    -0.234980151608
    H           -0.874219894550     1.250544500318    -1.100817107211
    H           -0.845110720269     1.221794696571     0.654333753285
    H           -1.350626959478    -1.220029084888    -1.121947167261
    H           -2.570918326499    -0.351171598846    -0.213839760086
    H           -1.306133101162    -1.230373876056     0.631511773806

  Mulliken Charges: (a.u.)
   Center  Symbol    Alpha    Beta     Spin     Total
       1     H     0.45857  0.45857  0.00000  0.08287
       2     C     2.90683  2.90683  0.00000  0.18634
       3     C     3.08348  3.08348  0.00000 -0.16696
       4     O     4.16817  4.16817  0.00000 -0.33633
       5     C     3.14436  3.14436  0.00000 -0.28872
       6     H     0.45068  0.45068  0.00000  0.09864
       7     H     0.44366  0.44366  0.00000  0.11269
       8     H     0.45409  0.45409  0.00000  0.09183
       9     H     0.44776  0.44776  0.00000  0.10448
      10     H     0.44241  0.44241  0.00000  0.11517

   Total alpha = 16.00000, Total beta = 16.00000, Total charge = -0.00000
