                              Psi4 1.0.54 Driver

  ==> Input File <==

--------------------------------------------------------------------------
set {
	reference rhf
	basis cc-pvtz
}

set_num_threads( 4 )
memory 2 gb

molecule MOL {
0 1

H	 -3.436473	 1.252944	 -1.023892
O	 -3.458596	 0.315260	 -0.960865
C	 -3.176635	 -0.080824	 0.355601
C	 -1.763371	 0.265266	 0.799691
H	 -3.321825	 -1.153438	 0.379502
H	 -3.895468	 0.357385	 1.043382
C	 -0.673390	 -0.426948	 -0.013392
H	 -1.631049	 1.344913	 0.747560
H	 -1.664587	 -0.001624	 1.849167
C	 0.737842	 -0.043159	 0.423759
H	 -0.806103	 -0.190518	 -1.063345
H	 -0.797221	 -1.503753	 0.074146
C	 1.824000	 -0.743224	 -0.390623
H	 0.850588	 1.033777	 0.343840
H	 0.868587	 -0.286314	 1.476203
C	 2.871314	 -1.488023	 0.438989
H	 2.322832	 -0.013737	 -1.024551
H	 1.349843	 -1.452940	 -1.063006
C	 3.759852	 -0.592098	 1.298618
H	 3.502536	 -2.057080	 -0.236665
H	 2.373838	 -2.216974	 1.073472
H	 4.266140	 0.151494	 0.691313
H	 4.519770	 -1.176448	 1.804881
H	 3.193379	 -0.067919	 2.058848

	symmetry c1
}
set optking {
	frozen_dihedral = ("
		17 13 10 7
	")
}

ee,wfn = optimize('scf', return_wfn=True)
oeprop( wfn, 'DIPOLE', 'QUADRUPOLE', 'MULLIKEN_CHARGES')
f=open( 'psi4out.xyz', 'w' )
f.write( "24  " )
f.write( str(ee) + "\n" )
f.write( MOL.save_string_xyz() )
f.close()
--------------------------------------------------------------------------

    Molecular point group: c1
  Charge       = 0
  Multiplicity = 1
  Basis Set: CC-PVTZ
  Basis Set:
  @DF-RHF Final Energy:  -349.37539887730867
    Total Energy =                       -349.3753988773092942
    Molecular point group: c1
  Basis Set: CC-PVTZ
  Basis Set:
  Basis Set: CC-PVTZ
  Basis Set:
  @DF-RHF Final Energy:  -349.37571256179507
    Total Energy =                       -349.3757125617954102
  Basis Set: CC-PVTZ
  Basis Set:
  Basis Set: CC-PVTZ
  Basis Set:
  @DF-RHF Final Energy:  -349.37574333602930
    Total Energy =                       -349.3757433360288474
  Basis Set: CC-PVTZ
  Basis Set:
  Basis Set: CC-PVTZ
  Basis Set:
  @DF-RHF Final Energy:  -349.37578798734995
    Total Energy =                       -349.3757879873502930
  Basis Set: CC-PVTZ
  Basis Set:
  Basis Set: CC-PVTZ
  Basis Set:
  @DF-RHF Final Energy:  -349.37579249365331
    Total Energy =                       -349.3757924936530799
  Basis Set: CC-PVTZ
  Basis Set:
  Charge       = 0
  Multiplicity = 1
  Basis Set: CC-PVTZ
  Basis Set:

    Orbital Energies (a.u.)
    -----------------------

    Doubly Occupied:

       1A    -20.546294     2A    -11.265646     3A    -11.215088
       4A    -11.212123     5A    -11.210423     6A    -11.209539
       7A    -11.209135     8A    -11.205210     9A     -1.364176
      10A     -1.088691    11A     -1.049449    12A     -0.985330
      13A     -0.915386    14A     -0.851527    15A     -0.803668
      16A     -0.775575    17A     -0.682665    18A     -0.651599
      19A     -0.627691    20A     -0.619180    21A     -0.598614
      22A     -0.588614    23A     -0.553085    24A     -0.546034
      25A     -0.517512    26A     -0.504895    27A     -0.501665
      28A     -0.476124    29A     -0.468538    30A     -0.460879
      31A     -0.452308    32A     -0.449248    33A     -0.421413

  @DF-RHF Final Energy:  -349.37579326809112

   => Energetics <=

    Nuclear Repulsion Energy =            385.0106348647776713
    One-Electron Energy =               -1236.7182084111534550
    Two-Electron Energy =                 502.3317802782844410
    DFT Exchange-Correlation Energy =       0.0000000000000000
    Empirical Dispersion Energy =           0.0000000000000000
    PCM Polarization Energy =               0.0000000000000000
    EFP Energy =                            0.0000000000000000
    Total Energy =                       -349.3757932680913427
    Molecular point group: c1
  Basis Set: CC-PVTZ
  Basis Set:

  -Total Gradient:
     Atom            X                  Y                   Z
    ------   -----------------  -----------------  -----------------
       1       -0.000001854836     0.000007707240    -0.000004156420
       2       -0.000006143619     0.000009050521     0.000003888078
       3        0.000004109891    -0.000025079336     0.000006548708
       4       -0.000010530673     0.000009512967    -0.000001185653
       5       -0.000002492867    -0.000006223456     0.000002684046
       6       -0.000002753110     0.000003294018    -0.000003600961
       7        0.000016282401    -0.001226472455     0.001041413423
       8        0.000004527584    -0.000000289223    -0.000002449101
       9       -0.000001803201     0.000002441851    -0.000001453351
      10        0.000353956988     0.001811320621    -0.001084646990
      11        0.000004737930     0.000008494636     0.000012597743
      12        0.000005911319    -0.000003133326    -0.000004276857
      13       -0.001833898374    -0.000974672492    -0.001555775126
      14       -0.000015096008    -0.000000654041    -0.000008108277
      15       -0.000000676113     0.000003384654     0.000005995857
      16        0.000032822212     0.000008049335    -0.000049402964
      17        0.001464667927     0.000376619327     0.001648199309
      18        0.000012758259    -0.000012918697    -0.000007009848
      19       -0.000037457197    -0.000008597251     0.000000743635
      20        0.000000010797    -0.000015434188    -0.000008450190
      21       -0.000004162646     0.000020643004    -0.000004236976
      22        0.000020437605     0.000018899220    -0.000029203220
      23        0.000007399571    -0.000029166455     0.000014184811
      24       -0.000010753845     0.000023223527     0.000027700322

  **** Optimization is complete! (in 6 steps) ****
    Final optimized geometry and variables:
    Molecular point group: c1

    Geometry (in Angstrom), charge = 0, multiplicity = 1:

    H           -3.408908954228     1.570868341239    -1.245393217025
    O           -3.429615350663     0.633002455883    -1.184776056681
    C           -3.145091256697     0.233999133682     0.130131734563
    C           -1.732042659352     0.582303590801     0.573534431294
    H           -3.287633820352    -0.839055198400     0.150849823538
    H           -3.864280047709     0.668248024556     0.820053879983
    C           -0.641301752006    -0.102060481429    -0.244314031185
    H           -1.602807581176     1.662581475924     0.526715255154
    H           -1.630699106578     0.310605314046     1.621622323531
    C            0.770764274028     0.272006962587     0.201492546624
    H           -0.771634825697     0.144012750922    -1.292548476932
    H           -0.763351488889    -1.180033841257    -0.167821990036
    C            1.873979633961    -0.421259743035    -0.624310608274
    H            0.887548704155     1.350028517406     0.154562083618
    H            0.879494039642     0.007340491740     1.249526786447
    C            2.930817871898    -1.144416463580     0.213474060097
    H            2.381341445382     0.309568319959    -1.247063414306
    H            1.420213655851    -1.138238353934    -1.300003285244
    C            3.811494736261    -0.211093416462     1.039937401000
    H            3.564124060146    -1.727285170318    -0.448589564981
    H            2.440380188701    -1.857641659054     0.871115768870
    H            4.349728086792     0.480202848464     0.399308793139
    H            4.544013704291    -0.770947179363     1.610282566524
    H            3.229950684829     0.376128166017     1.741477972004

  Mulliken Charges: (a.u.)
   Center  Symbol    Alpha    Beta     Spin     Total
       1     H     0.39525  0.39525  0.00000  0.20951
       2     O     4.20379  4.20379  0.00000 -0.40757
       3     C     2.97766  2.97766  0.00000  0.04468
       4     C     3.10305  3.10305  0.00000 -0.20611
       5     H     0.45893  0.45893  0.00000  0.08214
       6     H     0.46037  0.46037  0.00000  0.07926
       7     C     3.08669  3.08669  0.00000 -0.17338
       8     H     0.45901  0.45901  0.00000  0.08198
       9     H     0.45324  0.45324  0.00000  0.09351
      10     C     3.09825  3.09825  0.00000 -0.19651
      11     H     0.44542  0.44542  0.00000  0.10916
      12     H     0.45499  0.45499  0.00000  0.09002
      13     C     3.09931  3.09931  0.00000 -0.19862
      14     H     0.44900  0.44900  0.00000  0.10200
      15     H     0.45509  0.45509  0.00000  0.08982
      16     C     3.08872  3.08872  0.00000 -0.17744
      17     H     0.45079  0.45079  0.00000  0.09843
      18     H     0.44787  0.44787  0.00000  0.10425
      19     C     3.15019  3.15019  0.00000 -0.30038
      20     H     0.44935  0.44935  0.00000  0.10129
      21     H     0.45580  0.45580  0.00000  0.08839
      22     H     0.45497  0.45497  0.00000  0.09007
      23     H     0.44783  0.44783  0.00000  0.10433
      24     H     0.45442  0.45442  0.00000  0.09116

   Total alpha = 33.00000, Total beta = 33.00000, Total charge = -0.00000

*** Psi4 exiting successfully. Buy a developer a beer!
