  ==> Input File <==

--------------------------------------------------------------------------
set {
	reference rhf
	basis 6-31G*
}

set_num_threads( 4 )
memory 2 gb

molecule MOL {
0 1

O	 1.846825	 1.296220	 0.000415
C	 1.705091	 0.115954	 0.001797
C	 0.381791	 -0.609817	 0.001258
O	 2.721346	 -0.737485	 -0.000216
C	 -0.823008	 0.326187	 0.001381
H	 0.371250	 -1.265087	 -0.865474
H	 0.370908	 -1.265746	 0.867490
C	 -1.331570	 0.617810	 -1.411199
H	 -0.554605	 1.254426	 0.495872
H	 -1.617451	 -0.113554	 0.596189
C	 -2.539555	 1.556046	 -1.429778
H	 -0.529334	 1.055286	 -2.003676
H	 -1.596826	 -0.317084	 -1.902619
C	 -3.047995	 1.846083	 -2.841379
H	 -2.275429	 2.491438	 -0.941495
H	 -3.342098	 1.120008	 -0.839072
H	 -2.277729	 2.314906	 -3.447275
H	 -3.904153	 2.513199	 -2.821326
H	 -3.352465	 0.932437	 -3.344231
C	 4.024888	 -0.184556	 -0.001949
H	 4.179030	 0.422472	 -0.882452
H	 4.701782	 -1.024608	 -0.003642
H	 4.181981	 0.421185	 0.878906

	symmetry c1
}
set optking {
	frozen_dihedral = ("
		9 5 3 6
	")
}

ee = optimize('scf')
oeprop('DIPOLE', 'QUADRUPOLE', 'MULLIKEN_CHARGES')
f=open( 'psi4out.xyz', 'w' )
f.write( "23  " )
f.write( str(ee) + "\n" )
f.write( MOL.save_string_xyz() )
f.close()
--------------------------------------------------------------------------

    Molecular point group: c1
  Charge       = 0
  Multiplicity = 1
  Basis Set: 6-31G*
  Basis Set:
  @DF-RHF Final Energy:  -422.97386000583293
    Total Energy =                       -422.9738600058336715
    Molecular point group: c1
  Basis Set: 6-31G*
  Basis Set:
  Basis Set: 6-31G*
  Basis Set:
  @DF-RHF Final Energy:  -422.97416250670005
    Total Energy =                       -422.9741625066995994
  Basis Set: 6-31G*
  Basis Set:
  Basis Set: 6-31G*
  Basis Set:
  @DF-RHF Final Energy:  -422.97338291726481
    Total Energy =                       -422.9733829172654396
  Basis Set: 6-31G*
  Basis Set:
  Basis Set: 6-31G*
  Basis Set:
  @DF-RHF Final Energy:  -422.97425343549133
    Total Energy =                       -422.9742534354916188
  Basis Set: 6-31G*
  Basis Set:
  @DF-RHF Final Energy:  -422.97425462731820
    Total Energy =                       -422.9742546273174639
  Basis Set: 6-31G*
  Basis Set:
  @DF-RHF Final Energy:  -422.97426194706321
    Total Energy =                       -422.9742619470625868
  Basis Set: 6-31G*
  Basis Set:
  Basis Set: 6-31G*
  Basis Set:
  @DF-RHF Final Energy:  -422.97426563218136
    Total Energy =                       -422.9742656321813001
  Basis Set: 6-31G*
  Basis Set:
  Basis Set: 6-31G*
  Basis Set:
  @DF-RHF Final Energy:  -422.97426679786548
    Total Energy =                       -422.9742667978653117
  Basis Set: 6-31G*
  Basis Set:
  Charge       = 0
  Multiplicity = 1
  Basis Set: 6-31G*
  Basis Set:

    Orbital Energies (a.u.)
    -----------------------

    Doubly Occupied:

       1A    -20.604371     2A    -20.546462     3A    -11.372991
       4A    -11.281385     5A    -11.235649     6A    -11.218184
       7A    -11.213385     8A    -11.212787     9A    -11.206629
      10A     -1.470214    11A     -1.363511    12A     -1.090487
      13A     -1.041378    14A     -0.986071    15A     -0.930085
      16A     -0.843221    17A     -0.793123    18A     -0.766456
      19A     -0.702128    20A     -0.681114    21A     -0.672173
      22A     -0.639590    23A     -0.613478    24A     -0.598740
      25A     -0.569306    26A     -0.556009    27A     -0.553481
      28A     -0.531493    29A     -0.522660    30A     -0.498833
      31A     -0.490795    32A     -0.465130    33A     -0.464564
      34A     -0.455898    35A     -0.450541    36A     -0.438083

  @DF-RHF Final Energy:  -422.97426726291110

   => Energetics <=

    Nuclear Repulsion Energy =            460.1940626494520075
    One-Electron Energy =               -1488.1758421534891568
    Two-Electron Energy =                 605.0075122411258235
    DFT Exchange-Correlation Energy =       0.0000000000000000
    Empirical Dispersion Energy =           0.0000000000000000
    PCM Polarization Energy =               0.0000000000000000
    EFP Energy =                            0.0000000000000000
    Total Energy =                       -422.9742672629113258
    Molecular point group: c1
  Basis Set: 6-31G*
  Basis Set:

  -Total Gradient:
     Atom            X                  Y                   Z
    ------   -----------------  -----------------  -----------------
       1       -0.000010979800    -0.000014817831     0.000020535527
       2        0.000012080977     0.000005715758    -0.000056257629
       3       -0.002141099734    -0.002834080166     0.001684873449
       4        0.000008234156     0.000000120657     0.000008077131
       5       -0.000841533241    -0.001066397426     0.003387832940
       6        0.001914698478     0.002517216858    -0.001887728129
       7        0.000003754358    -0.000025026465     0.000010865322
       8        0.000004710566     0.000030414251     0.000014836550
       9        0.001057475997     0.001376047484    -0.003192928916
      10       -0.000004965942     0.000002950140     0.000015947722
      11        0.000009514484     0.000020889207    -0.000017613811
      12        0.000006277317    -0.000003887127    -0.000005165025
      13       -0.000003032765     0.000004916200     0.000013469379
      14       -0.000018003423    -0.000017781424     0.000004683580
      15        0.000007620814     0.000002808920     0.000008738276
      16        0.000000089799     0.000004133930    -0.000010016483
      17       -0.000000171971     0.000001201954     0.000011278795
      18       -0.000001889874    -0.000002974069     0.000001078674
      19        0.000000736234    -0.000002099414    -0.000011465719
      20       -0.000004882288     0.000000648470    -0.000001696916
      21        0.000000026450    -0.000000240479    -0.000000170911
      22       -0.000000382046    -0.000000389864     0.000000419595
      23        0.000001721450     0.000000630433     0.000000406599

  **** Optimization is complete! (in 9 steps) ****
    Final optimized geometry and variables:
    Molecular point group: c1

    Geometry (in Angstrom), charge = 0, multiplicity = 1:

    O            1.455506099219     0.822234608710     0.557826101403
    C            1.326151306167    -0.357795802607     0.626239347702
    C            0.012222862363    -1.105358558487     0.675343013645
    O            2.352526679252    -1.197796189068     0.661047442845
    C           -1.213009491260    -0.185749965789     0.656561057076
    H            0.020778944490    -1.768899431471    -0.185065597197
    H            0.036580207565    -1.739531112201     1.555284630184
    C           -1.695448842060     0.131552821035    -0.761645506520
    H           -0.960389360690     0.748025637864     1.144653334301
    H           -2.018826900798    -0.648336425467     1.218814109698
    C           -2.888678278043     1.087288194676    -0.787822205472
    H           -0.874493498189     0.567442935597    -1.326624687160
    H           -1.965336600083    -0.794044019191    -1.268612692087
    C           -3.372851563285     1.397918154594    -2.203657086195
    H           -2.616060437534     2.013936286568    -0.288174103525
    H           -3.707065671950     0.658487252665    -0.212743338608
    H           -2.586312603730     1.860030787534    -2.793332468551
    H           -4.218701743373     2.078305156199    -2.189695726239
    H           -3.684340792345     0.493805437993    -2.719484251322
    C            3.649615641860    -0.631604854515     0.612301072143
    H            3.787341497882    -0.075913079113    -0.304066516307
    H            4.336018659876    -1.462966131424     0.652264533827
    H            3.808902761947     0.026420510253     1.454346921468

  Mulliken Charges: (a.u.)
   Center  Symbol    Alpha    Beta     Spin     Total
       1     O     4.28647  4.28647  0.00000 -0.57295
       2     C     2.60946  2.60946  0.00000  0.78108
       3     C     3.20845  3.20845  0.00000 -0.41691
       4     O     4.30625  4.30625  0.00000 -0.61250
       5     C     3.15875  3.15875  0.00000 -0.31749
       6     H     0.39948  0.39948  0.00000  0.20104
       7     H     0.39720  0.39720  0.00000  0.20559
       8     C     3.15479  3.15479  0.00000 -0.30958
       9     H     0.40185  0.40185  0.00000  0.19630
      10     H     0.41886  0.41886  0.00000  0.16228
      11     C     3.15252  3.15252  0.00000 -0.30503
      12     H     0.41544  0.41544  0.00000  0.16911
      13     H     0.42621  0.42621  0.00000  0.14758
      14     C     3.23949  3.23949  0.00000 -0.47898
      15     H     0.41929  0.41929  0.00000  0.16141
      16     H     0.42429  0.42429  0.00000  0.15143
      17     H     0.42044  0.42044  0.00000  0.15912
      18     H     0.41937  0.41937  0.00000  0.16125
      19     H     0.42275  0.42275  0.00000  0.15449
      20     C     3.09223  3.09223  0.00000 -0.18446
      21     H     0.40911  0.40911  0.00000  0.18178
      22     H     0.40837  0.40837  0.00000  0.18326
      23     H     0.40892  0.40892  0.00000  0.18216

   Total alpha = 36.00000, Total beta = 36.00000, Total charge =  0.00000
