  ==> Input File <==

--------------------------------------------------------------------------
set {
	reference rhf
	basis cc-pvtz
}

set_num_threads( 4 )
memory 2 gb

molecule MOL {
0 1

H	 -1.131000	 -1.374000	 0.166000
O	 -1.483000	 -0.581000	 -0.212000
C	 -0.792000	 0.532000	 0.294000
C	 0.620000	 0.665000	 -0.267000
H	 -1.380000	 1.396000	 0.015000
H	 -0.760000	 0.499000	 1.383000
C	 1.539000	 -0.500000	 0.103000
H	 0.556000	 0.750000	 -1.347000
H	 1.047000	 1.595000	 0.102000
H	 1.180000	 -1.436000	 -0.313000
H	 2.541000	 -0.342000	 -0.280000
H	 1.614000	 -0.617000	 1.182000

	symmetry c1
}
ee = optimize('scf')
oeprop('DIPOLE', 'QUADRUPOLE', 'MULLIKEN_CHARGES')
f=open( 'psi4out.xyz', 'w' )
f.write( "12  " )
f.write( str(ee) + "\n" )
f.write( MOL.save_string_xyz() )
f.close()
--------------------------------------------------------------------------

    Molecular point group: c1
  Charge       = 0
  Multiplicity = 1
  Basis Set: CC-PVTZ
  Basis Set:
  @DF-RHF Final Energy:  -193.19050220363573
    Total Energy =                       -193.1905022036357593
    Molecular point group: c1
  Basis Set: CC-PVTZ
  Basis Set:
  Basis Set: CC-PVTZ
  Basis Set:
  @DF-RHF Final Energy:  -193.19059990410739
    Total Energy =                       -193.1905999041073301
  Basis Set: CC-PVTZ
  Basis Set:
  Basis Set: CC-PVTZ
  Basis Set:
  @DF-RHF Final Energy:  -193.19060038412806
    Total Energy =                       -193.1906003841280040
  Basis Set: CC-PVTZ
  Basis Set:
  Basis Set: CC-PVTZ
  Basis Set:
  @DF-RHF Final Energy:  -193.19061047113985
    Total Energy =                       -193.1906104711397916
  Basis Set: CC-PVTZ
  Basis Set:
  Charge       = 0
  Multiplicity = 1
  Basis Set: CC-PVTZ
  Basis Set:

    Orbital Energies (a.u.)
    -----------------------

    Doubly Occupied:

       1A    -20.546230     2A    -11.266008     3A    -11.217002
       4A    -11.214905     5A     -1.364278     6A     -1.051979
       7A     -0.928435     8A     -0.810198     9A     -0.699144
      10A     -0.637696    11A     -0.602466    12A     -0.590087
      13A     -0.540951    14A     -0.511150    15A     -0.492953
      16A     -0.469879    17A     -0.432928

  @DF-RHF Final Energy:  -193.19061067208330

   => Energetics <=

    Nuclear Repulsion Energy =            133.2035256946488460
    One-Electron Energy =                -526.0356893344908258
    Two-Electron Energy =                 199.6415529677585710
    DFT Exchange-Correlation Energy =       0.0000000000000000
    Empirical Dispersion Energy =           0.0000000000000000
    PCM Polarization Energy =               0.0000000000000000
    EFP Energy =                            0.0000000000000000
    Total Energy =                       -193.1906106720833805
    Molecular point group: c1
  Basis Set: CC-PVTZ
  Basis Set:

  -Total Gradient:
     Atom            X                  Y                   Z
    ------   -----------------  -----------------  -----------------
       1        0.000058727231    -0.000118906997     0.000062499284
       2       -0.000051585179     0.000095315064    -0.000086202227
       3       -0.000010455150     0.000026035677     0.000010160404
       4       -0.000012505285    -0.000004768918    -0.000014563459
       5       -0.000005029658     0.000006019051     0.000004570059
       6        0.000002987078    -0.000004200393     0.000015820842
       7        0.000003018686    -0.000035086096    -0.000027120938
       8        0.000011615400     0.000006135691    -0.000012566517
       9       -0.000002862691     0.000025955671     0.000008797047
      10       -0.000025602411    -0.000002807692     0.000010327189
      11        0.000012356268     0.000004758678    -0.000006303245
      12        0.000019335710     0.000001550265     0.000034581560

  **** Optimization is complete! (in 5 steps) ****
    Final optimized geometry and variables:
    Molecular point group: c1

    Geometry (in Angstrom), charge = 0, multiplicity = 1:

    H           -1.088255283331    -1.364742578081     0.152233160174
    O           -1.432053135954    -0.565243819214    -0.200812228080
    C           -0.727158183917     0.534527176433     0.310686045126
    C            0.680222298879     0.664432726934    -0.252228969522
    H           -1.306801272750     1.408000569908     0.044210915832
    H           -0.690820879401     0.490157369883     1.397609349721
    C            1.605391018946    -0.489360576824     0.123098407636
    H            0.615089728918     0.745646547270    -1.332226261125
    H            1.101413826341     1.597893125742     0.110949859340
    H            1.247626855496    -1.432484942903    -0.275204193189
    H            2.601435055249    -0.332815982760    -0.273061645618
    H            1.691776161743    -0.589902126023     1.200774564817

  Mulliken Charges: (a.u.)
   Center  Symbol    Alpha    Beta     Spin     Total
       1     H     0.39251  0.39251  0.00000  0.21498
       2     O     4.20540  4.20540  0.00000 -0.41080
       3     C     2.97638  2.97638  0.00000  0.04724
       4     C     3.08233  3.08233  0.00000 -0.16465
       5     H     0.45000  0.45000  0.00000  0.10001
       6     H     0.47045  0.47045  0.00000  0.05909
       7     C     3.15956  3.15956  0.00000 -0.31913
       8     H     0.45149  0.45149  0.00000  0.09702
       9     H     0.45656  0.45656  0.00000  0.08687
      10     H     0.45667  0.45667  0.00000  0.08666
      11     H     0.44472  0.44472  0.00000  0.11055
      12     H     0.45392  0.45392  0.00000  0.09215

   Total alpha = 17.00000, Total beta = 17.00000, Total charge = -0.00000
