                              Psi4 1.0.54 Driver

  ==> Input File <==

--------------------------------------------------------------------------
set {
	reference rhf
	basis cc-pvtz
}

set_num_threads( 4 )
memory 2 gb

molecule MOL {
0 1

H	 -2.698799	 -0.000846	 0.036018
C	 -1.694291	 -0.000483	 0.434279
O	 -0.828718	 -0.000608	 -0.655022
H	 -1.576855	 0.881100	 1.056504
H	 -1.576401	 -0.881658	 1.057001
C	 0.557892	 0.000078	 -0.420099
C	 0.966056	 0.980399	 0.673813
C	 1.111753	 -1.399713	 -0.179118
H	 0.967191	 0.360397	 -1.355654
H	 0.525428	 1.952950	 0.492014
H	 2.044129	 1.091771	 0.683860
H	 0.663576	 0.644636	 1.658877
H	 0.772238	 -2.077745	 -0.952453
H	 2.195137	 -1.374868	 -0.199961
H	 0.813048	 -1.798660	 0.783254

	symmetry c1
}
set optking {
	frozen_dihedral = ("
		9 6 3 2
	")
}

ee,wfn = optimize('scf', return_wfn=True)
oeprop( wfn, 'DIPOLE', 'QUADRUPOLE', 'MULLIKEN_CHARGES')
f=open( 'psi4out.xyz', 'w' )
f.write( "15  " )
f.write( str(ee) + "\n" )
f.write( MOL.save_string_xyz() )
f.close()
--------------------------------------------------------------------------

    Molecular point group: c1
  Charge       = 0
  Multiplicity = 1
  Basis Set: CC-PVTZ
  Basis Set:
  @DF-RHF Final Energy:  -232.22496659663636
    Total Energy =                       -232.2249665966364773
    Molecular point group: c1
  Basis Set: CC-PVTZ
  Basis Set:
  Basis Set: CC-PVTZ
  Basis Set:
  @DF-RHF Final Energy:  -232.22525045093815
    Total Energy =                       -232.2252504509381197
  Basis Set: CC-PVTZ
  Basis Set:
  Basis Set: CC-PVTZ
  Basis Set:
  @DF-RHF Final Energy:  -232.22547989617374
    Total Energy =                       -232.2254798961736242
  Basis Set: CC-PVTZ
  Basis Set:
  Basis Set: CC-PVTZ
  Basis Set:
  @DF-RHF Final Energy:  -232.22548272001015
    Total Energy =                       -232.2254827200102909
  Basis Set: CC-PVTZ
  Basis Set:
  Basis Set: CC-PVTZ
  Basis Set:
  @DF-RHF Final Energy:  -232.22548944662216
    Total Energy =                       -232.2254894466221913
  Basis Set: CC-PVTZ
  Basis Set:
  Charge       = 0
  Multiplicity = 1
  Basis Set: CC-PVTZ
  Basis Set:

    Orbital Energies (a.u.)
    -----------------------

    Doubly Occupied:

       1A    -20.541251     2A    -11.272696     3A    -11.259068
       4A    -11.210969     5A    -11.206631     6A     -1.372896
       7A     -1.051818     8A     -0.943442     9A     -0.927938
      10A     -0.781437    11A     -0.676235    12A     -0.643325
      13A     -0.634531    14A     -0.575722    15A     -0.560180
      16A     -0.552682    17A     -0.534614    18A     -0.502457
      19A     -0.495737    20A     -0.445482    21A     -0.407549

  @DF-RHF Final Energy:  -232.22548962778217

   => Energetics <=

    Nuclear Repulsion Energy =            199.0106089870031383
    One-Electron Energy =                -709.2788757820592309
    Two-Electron Energy =                 278.0427771672739254
    DFT Exchange-Correlation Energy =       0.0000000000000000
    Empirical Dispersion Energy =           0.0000000000000000
    PCM Polarization Energy =               0.0000000000000000
    EFP Energy =                            0.0000000000000000
    Total Energy =                       -232.2254896277821672
    Molecular point group: c1
  Basis Set: CC-PVTZ
  Basis Set:

  -Total Gradient:
     Atom            X                  Y                   Z
    ------   -----------------  -----------------  -----------------
       1        0.000020122539    -0.000000331290     0.000002390370
       2        0.000024815785     0.002084729140     0.000038153896
       3       -0.000041025301    -0.002663931310     0.000046592233
       4       -0.000007659387    -0.000005431784     0.000005164051
       5       -0.000018511308     0.000012438142    -0.000003530732
       6        0.000057574582    -0.001696575688    -0.000921055800
       7        0.000037911928     0.000027490050     0.000004709448
       8        0.000057539892    -0.000009750363    -0.000026499380
       9       -0.000155474877     0.002241267322     0.000866490646
      10        0.000013654427     0.000008261583    -0.000003058015
      11        0.000011773142     0.000004052699     0.000008178720
      12       -0.000011105217     0.000001600283    -0.000003427533
      13        0.000006420356    -0.000007541027    -0.000003444077
      14        0.000000629397    -0.000014843226     0.000003254149
      15        0.000003334040     0.000018565470    -0.000013917974

  **** Optimization is complete! (in 6 steps) ****
    Final optimized geometry and variables:
    Molecular point group: c1

    Geometry (in Angstrom), charge = 0, multiplicity = 1:

    H           -2.693932085632    -0.042153458974     0.055734703247
    C           -1.696230131804     0.084321296991     0.451264826116
    O           -0.829679067125     0.104608093848    -0.636707740148
    H           -1.668243550363     1.010205448553     1.016056085641
    H           -1.494744475922    -0.739954415137     1.130012273167
    C            0.558983571994     0.094735973711    -0.404865437934
    C            1.002658966803     1.046478219493     0.701036819307
    C            1.065206958469    -1.324729265811    -0.184400884577
    H            0.976260193454     0.473129035566    -1.330061751797
    H            0.607595756187     2.041333699076     0.534065195198
    H            2.084218524519     1.111412610281     0.705467026146
    H            0.690133263509     0.712397566578     1.683442103567
    H            0.750187422770    -1.963474087697    -0.999639110267
    H            2.148303890702    -1.338584064091    -0.135745384116
    H            0.687104585040    -1.743435402993     0.741717610005

  Mulliken Charges: (a.u.)
   Center  Symbol    Alpha    Beta     Spin     Total
       1     H     0.44176  0.44176  0.00000  0.11649
       2     C     3.03943  3.03943  0.00000 -0.07886
       3     O     4.18502  4.18502  0.00000 -0.37004
       4     H     0.46768  0.46768  0.00000  0.06463
       5     H     0.47098  0.47098  0.00000  0.05803
       6     C     2.93391  2.93391  0.00000  0.13217
       7     C     3.16613  3.16613  0.00000 -0.33227
       8     C     3.14778  3.14778  0.00000 -0.29555
       9     H     0.44757  0.44757  0.00000  0.10486
      10     H     0.44402  0.44402  0.00000  0.11196
      11     H     0.44642  0.44642  0.00000  0.10715
      12     H     0.45317  0.45317  0.00000  0.09365
      13     H     0.44551  0.44551  0.00000  0.10898
      14     H     0.45386  0.45386  0.00000  0.09228
      15     H     0.45675  0.45675  0.00000  0.08651

   Total alpha = 21.00000, Total beta = 21.00000, Total charge =  0.00000

*** Psi4 exiting successfully. Buy a developer a beer!
