  ==> Input File <==

--------------------------------------------------------------------------
set {
	reference rhf
	basis cc-pvtz
}

set_num_threads( 4 )
memory 2 gb

molecule MOL {
0 1

H	 -2.123894	 -0.667238	 -0.609809
O	 -2.041679	 -0.058866	 0.103463
C	 -0.959304	 0.780994	 -0.094939
C	 0.354905	 0.037902	 -0.006215
H	 -0.985899	 1.279578	 -1.057596
H	 -0.969809	 1.529522	 0.682889
F	 0.460166	 -0.854561	 -0.974834
F	 1.363232	 0.876062	 -0.126055
F	 0.495274	 -0.599843	 1.131128

	symmetry c1
}
set optking {
	frozen_dihedral = ("
		7 4 3 5
	")
}

ee = optimize('scf')
oeprop('DIPOLE', 'QUADRUPOLE', 'MULLIKEN_CHARGES')
f=open( 'psi4out.xyz', 'w' )
f.write( "9  " )
f.write( str(ee) + "\n" )
f.write( MOL.save_string_xyz() )
f.close()
--------------------------------------------------------------------------

    Molecular point group: c1
  Charge       = 0
  Multiplicity = 1
  Basis Set: CC-PVTZ
  Basis Set:
  @DF-RHF Final Energy:  -450.84711804014091
    Total Energy =                       -450.8471180401410265
    Molecular point group: c1
  Basis Set: CC-PVTZ
  Basis Set:
  Basis Set: CC-PVTZ
  Basis Set:
  @DF-RHF Final Energy:  -450.84713597392948
    Total Energy =                       -450.8471359739294257
  Basis Set: CC-PVTZ
  Basis Set:
  Basis Set: CC-PVTZ
  Basis Set:
  @DF-RHF Final Energy:  -450.84714097542337
    Total Energy =                       -450.8471409754233719
  Basis Set: CC-PVTZ
  Basis Set:
  Charge       = 0
  Multiplicity = 1
  Basis Set: CC-PVTZ
  Basis Set:

    Orbital Energies (a.u.)
    -----------------------

    Doubly Occupied:

       1A    -26.339268     2A    -26.338802     3A    -26.335916
       4A    -20.583681     5A    -11.493407     6A    -11.310146
       7A     -1.747544     8A     -1.644140     9A     -1.643069
      10A     -1.407030    11A     -1.050462    12A     -0.929646
      13A     -0.837901    14A     -0.835809    15A     -0.810686
      16A     -0.732828    17A     -0.718493    18A     -0.703582
      19A     -0.671314    20A     -0.665631    21A     -0.649086
      22A     -0.633017    23A     -0.618666    24A     -0.534596
      25A     -0.484649

  @DF-RHF Final Energy:  -450.84714129543471

   => Energetics <=

    Nuclear Repulsion Energy =            277.6650950765344419
    One-Electron Energy =               -1177.5857363176910440
    Two-Electron Energy =                 449.0734999457217782
    DFT Exchange-Correlation Energy =       0.0000000000000000
    Empirical Dispersion Energy =           0.0000000000000000
    PCM Polarization Energy =               0.0000000000000000
    EFP Energy =                            0.0000000000000000
    Total Energy =                       -450.8471412954347670
    Molecular point group: c1
  Basis Set: CC-PVTZ
  Basis Set:

  -Total Gradient:
     Atom            X                  Y                   Z
    ------   -----------------  -----------------  -----------------
       1        0.000001603806    -0.000010380225     0.000006957978
       2       -0.000014864745     0.000003186334     0.000005175021
       3        0.000921030389     0.001730331589     0.000461701952
       4       -0.000800667950    -0.001273528960     0.000817970980
       5       -0.000613385518    -0.001168350848    -0.000601300312
       6        0.000000303194    -0.000035028628     0.000006907898
       7        0.000537512463     0.000841909392    -0.000746499581
       8       -0.000064835946    -0.000071475535    -0.000002740605
       9        0.000033304301    -0.000016663118     0.000051826669

  **** Optimization is complete! (in 4 steps) ****
    Final optimized geometry and variables:
    Molecular point group: c1

    Geometry (in Angstrom), charge = 0, multiplicity = 1:

    H           -2.132138270327    -0.656883425146    -0.624777651942
    O           -2.042511465876    -0.063148323018     0.099787124930
    C           -0.960179617006     0.779878536779    -0.091115522828
    C            0.354095331185     0.036738596026    -0.003841347752
    H           -0.987460187514     1.274048315633    -1.055892990402
    H           -0.974999265318     1.525882276205     0.688657455495
    F            0.455815751032    -0.859309929523    -0.969852852379
    F            1.360569771815     0.875854307062    -0.137474489057
    F            0.503253948853    -0.592864924537     1.135917724482

  Mulliken Charges: (a.u.)
   Center  Symbol    Alpha    Beta     Spin     Total
       1     H     0.38689  0.38689  0.00000  0.22622
       2     O     4.19247  4.19247  0.00000 -0.38493
       3     C     2.99066  2.99066  0.00000  0.01868
       4     C     2.68469  2.68469  0.00000  0.63062
       5     H     0.46147  0.46147  0.00000  0.07706
       6     H     0.44697  0.44697  0.00000  0.10607
       7     F     4.61754  4.61754  0.00000 -0.23509
       8     F     4.61260  4.61260  0.00000 -0.22520
       9     F     4.60671  4.60671  0.00000 -0.21343

   Total alpha = 25.00000, Total beta = 25.00000, Total charge = -0.00000
