  ==> Input File <==

--------------------------------------------------------------------------
set {
	reference rhf
	basis 6-31G*
}

set_num_threads( 4 )
memory 2 gb

molecule MOL {
0 1

O	 0.749854	 1.307668	 -0.000040
C	 0.576249	 0.131685	 -0.000108
C	 -0.766779	 -0.556801	 -0.000461
O	 1.568443	 -0.749345	 -0.000005
C	 -1.945214	 0.412366	 0.000161
H	 -0.796911	 -1.211249	 -0.867467
H	 -0.796854	 -1.212390	 0.865687
C	 -3.042613	 -0.019561	 0.971614
H	 -2.348158	 0.486665	 -1.004189
H	 -1.592168	 1.404984	 0.258315
H	 -3.435292	 -0.999517	 0.714826
H	 -3.870624	 0.681564	 0.956652
H	 -2.671244	 -0.069924	 1.991429
C	 2.886820	 -0.232538	 0.000322
H	 3.059106	 0.369571	 -0.880203
H	 3.540187	 -1.091012	 0.000050
H	 3.059019	 0.368956	 0.881266

	symmetry c1
}
set optking {
	frozen_dihedral = ("
		9 5 3 6
	")
}

ee = optimize('scf')
oeprop('DIPOLE', 'QUADRUPOLE', 'MULLIKEN_CHARGES')
f=open( 'psi4out.xyz', 'w' )
f.write( "17  " )
f.write( str(ee) + "\n" )
f.write( MOL.save_string_xyz() )
f.close()
--------------------------------------------------------------------------

    Molecular point group: c1
  Charge       = 0
  Multiplicity = 1
  Basis Set: 6-31G*
  Basis Set:
  @DF-RHF Final Energy:  -344.90254900805166
    Total Energy =                       -344.9025490080517216
    Molecular point group: c1
  Basis Set: 6-31G*
  Basis Set:
  Basis Set: 6-31G*
  Basis Set:
  @DF-RHF Final Energy:  -344.90285301227357
    Total Energy =                       -344.9028530122735106
  Basis Set: 6-31G*
  Basis Set:
  Basis Set: 6-31G*
  Basis Set:
  @DF-RHF Final Energy:  -344.90284732037657
    Total Energy =                       -344.9028473203770773
  Basis Set: 6-31G*
  Basis Set:
  Basis Set: 6-31G*
  Basis Set:
  @DF-RHF Final Energy:  -344.90291767913101
    Total Energy =                       -344.9029176791312921
  Basis Set: 6-31G*
  Basis Set:
  Basis Set: 6-31G*
  Basis Set:
  @DF-RHF Final Energy:  -344.90294786665572
    Total Energy =                       -344.9029478666559498
  Basis Set: 6-31G*
  Basis Set:
  Basis Set: 6-31G*
  Basis Set:
  @DF-RHF Final Energy:  -344.90294891200602
    Total Energy =                       -344.9029489120063090
  Basis Set: 6-31G*
  Basis Set:
  Charge       = 0
  Multiplicity = 1
  Basis Set: 6-31G*
  Basis Set:

    Orbital Energies (a.u.)
    -----------------------

    Doubly Occupied:

       1A    -20.604085     2A    -20.546385     3A    -11.373185
       4A    -11.281190     5A    -11.236079     6A    -11.220455
       7A    -11.213660     8A     -1.470057     9A     -1.363433
      10A     -1.077913    11A     -1.001509    12A     -0.938990
      13A     -0.827727    14A     -0.766803    15A     -0.700765
      16A     -0.682541    17A     -0.672705    18A     -0.631954
      19A     -0.599182    20A     -0.572230    21A     -0.570301
      22A     -0.529738    23A     -0.523973    24A     -0.491229
      25A     -0.486399    26A     -0.475772    27A     -0.457457
      28A     -0.439174

  @DF-RHF Final Energy:  -344.90294915513999

   => Energetics <=

    Nuclear Repulsion Energy =            312.6990196459193498
    One-Electron Energy =               -1089.6941594600461940
    Two-Electron Energy =                 432.0921906589868513
    DFT Exchange-Correlation Energy =       0.0000000000000000
    Empirical Dispersion Energy =           0.0000000000000000
    PCM Polarization Energy =               0.0000000000000000
    EFP Energy =                            0.0000000000000000
    Total Energy =                       -344.9029491551399360
    Molecular point group: c1
  Basis Set: 6-31G*
  Basis Set:

  -Total Gradient:
     Atom            X                  Y                   Z
    ------   -----------------  -----------------  -----------------
       1       -0.000007582540     0.000003152999    -0.000038686287
       2        0.000021998785     0.000002471140     0.000057474834
       3       -0.002489536375    -0.003073286459     0.002134717156
       4       -0.000013939368    -0.000012737641    -0.000009251433
       5        0.002701389323     0.003355025319    -0.001107504065
       6        0.001650532256     0.002009715176    -0.001579968182
       7        0.000007719967    -0.000004541452    -0.000021296705
       8       -0.000008594830    -0.000009282260    -0.000010506830
       9       -0.001852258332    -0.002263924606     0.000577697989
      10       -0.000002967638    -0.000007112998    -0.000004177403
      11       -0.000000251839    -0.000005433287     0.000005931466
      12        0.000002198978    -0.000004737442    -0.000005660926
      13       -0.000001298498     0.000008625383     0.000002783756
      14       -0.000005812177     0.000002993155     0.000002950247
      15       -0.000000885521     0.000000651645    -0.000000828970
      16       -0.000000242523    -0.000000992159    -0.000001495069
      17       -0.000000469670    -0.000000586517    -0.000002179579

  **** Optimization is complete! (in 7 steps) ****
    Final optimized geometry and variables:
    Molecular point group: c1

    Geometry (in Angstrom), charge = 0, multiplicity = 1:

    O            0.741503529818     1.270951814930    -0.130123389013
    C            0.550865971393     0.097711768049    -0.132237767464
    C           -0.797184366248    -0.588185156207    -0.110327883268
    O            1.532797523393    -0.794901845072    -0.154387925336
    C           -1.992355683896     0.376146070794    -0.126817230888
    H           -0.807354734345    -1.251208335181    -0.969674582343
    H           -0.807658572635    -1.228420925137     0.766627455749
    C           -3.119388979481    -0.075788392323     0.803947510503
    H           -2.387165613703     0.439686274838    -1.135949614935
    H           -1.661657716087     1.368236022252     0.149608494887
    H           -3.476720325849    -1.068128657444     0.542636565390
    H           -3.963688286168     0.603793216552     0.748445233168
    H           -2.785887215137    -0.105759114344     1.837431098453
    C            2.857143312304    -0.294002554644    -0.173299998246
    H            3.022015410812     0.310917067705    -1.053269400978
    H            3.499927775092    -1.160334459308    -0.189218891253
    H            3.051404110389     0.300273663515     0.707931467257

  Mulliken Charges: (a.u.)
   Center  Symbol    Alpha    Beta     Spin     Total
       1     O     4.28476  4.28476  0.00000 -0.56953
       2     C     2.61341  2.61341  0.00000  0.77318
       3     C     3.20731  3.20731  0.00000 -0.41461
       4     O     4.30527  4.30527  0.00000 -0.61054
       5     C     3.15925  3.15925  0.00000 -0.31851
       6     H     0.39815  0.39815  0.00000  0.20371
       7     H     0.39852  0.39852  0.00000  0.20296
       8     C     3.24328  3.24328  0.00000 -0.48657
       9     H     0.41727  0.41727  0.00000  0.16547
      10     H     0.39525  0.39525  0.00000  0.20950
      11     H     0.42198  0.42198  0.00000  0.15604
      12     H     0.41666  0.41666  0.00000  0.16669
      13     H     0.42033  0.42033  0.00000  0.15933
      14     C     3.09208  3.09208  0.00000 -0.18416
      15     H     0.40896  0.40896  0.00000  0.18208
      16     H     0.40844  0.40844  0.00000  0.18312
      17     H     0.40908  0.40908  0.00000  0.18185

   Total alpha = 28.00000, Total beta = 28.00000, Total charge =  0.00000
