  ==> Input File <==

--------------------------------------------------------------------------
set {
	reference rhf
	basis 6-31G*
}

set_num_threads( 4 )
memory 2 gb

molecule MOL {
0 1

H	 -3.892951	 0.981613	 -0.358725
C	 -3.196921	 0.361773	 0.172313
C	 -2.076860	 -0.007332	 -0.404944
H	 -3.439953	 0.057760	 1.173024
O	 -1.180634	 -0.819263	 0.215062
H	 -1.811520	 0.292194	 -1.403480
C	 0.051604	 -1.018856	 -0.387932
C	 1.043764	 0.054862	 -0.001873
H	 -0.017620	 -1.041351	 -1.469781
H	 0.437898	 -1.966374	 -0.042284
F	 2.041462	 -0.490846	 0.678280
F	 1.560382	 0.650488	 -1.064025
F	 0.497674	 0.984622	 0.754250

	symmetry c1
}
set optking {
	frozen_dihedral = ("
		11 8 7 9
	")
}

ee = optimize('scf')
oeprop('DIPOLE', 'QUADRUPOLE', 'MULLIKEN_CHARGES')
f=open( 'psi4out.xyz', 'w' )
f.write( "13  " )
f.write( str(ee) + "\n" )
f.write( MOL.save_string_xyz() )
f.close()
--------------------------------------------------------------------------

    Molecular point group: c1
  Charge       = 0
  Multiplicity = 1
  Basis Set: 6-31G*
  Basis Set:
  @DF-RHF Final Energy:  -527.52827153577164
    Total Energy =                       -527.5282715357717507
    Molecular point group: c1
  Basis Set: 6-31G*
  Basis Set:
  Basis Set: 6-31G*
  Basis Set:
  @DF-RHF Final Energy:  -527.52891791048705
    Total Energy =                       -527.5289179104872801
  Basis Set: 6-31G*
  Basis Set:
  Basis Set: 6-31G*
  Basis Set:
  @DF-RHF Final Energy:  -527.52919159541648
    Total Energy =                       -527.5291915954161368
  Basis Set: 6-31G*
  Basis Set:
  Basis Set: 6-31G*
  Basis Set:
  @DF-RHF Final Energy:  -527.52921216909317
    Total Energy =                       -527.5292121690932845
  Basis Set: 6-31G*
  Basis Set:
  @DF-RHF Final Energy:  -527.52922176132483
    Total Energy =                       -527.5292217613246066
  @DF-RHF Final Energy:  -527.52922842614703
    Total Energy =                       -527.5292284261472560
  Basis Set: 6-31G*
  Basis Set:
  @DF-RHF Final Energy:  -527.52923199568795
    Total Energy =                       -527.5292319956879510
  Basis Set: 6-31G*
  Basis Set:
  Basis Set: 6-31G*
  Basis Set:
  @DF-RHF Final Energy:  -527.52923446148111
    Total Energy =                       -527.5292344614808826
  Basis Set: 6-31G*
  Basis Set:
  Basis Set: 6-31G*
  Basis Set:
  @DF-RHF Final Energy:  -527.52923669646475
    Total Energy =                       -527.5292366964649773
  Basis Set: 6-31G*
  Basis Set:
  Charge       = 0
  Multiplicity = 1
  Basis Set: 6-31G*
  Basis Set:

    Orbital Energies (a.u.)
    -----------------------

    Doubly Occupied:

       1A    -26.343753     2A    -26.341877     3A    -26.341369
       4A    -20.607458     5A    -11.504949     6A    -11.318627
       7A    -11.299579     8A    -11.216404     9A     -1.742133
      10A     -1.640000    11A     -1.636900    12A     -1.437930
      13A     -1.080203    14A     -1.015022    15A     -0.925638
      16A     -0.837176    17A     -0.829697    18A     -0.821445
      19A     -0.789402    20A     -0.724928    21A     -0.715551
      22A     -0.695001    23A     -0.674354    24A     -0.660432
      25A     -0.654697    26A     -0.642179    27A     -0.626642
      28A     -0.584382    29A     -0.562019    30A     -0.524972
      31A     -0.511667    32A     -0.351773

  @DF-RHF Final Energy:  -527.52923747864133

   => Energetics <=

    Nuclear Repulsion Energy =            412.6097429239829921
    One-Electron Energy =               -1548.9616453110334078
    Two-Electron Energy =                 608.8226649084094788
    DFT Exchange-Correlation Energy =       0.0000000000000000
    Empirical Dispersion Energy =           0.0000000000000000
    PCM Polarization Energy =               0.0000000000000000
    EFP Energy =                            0.0000000000000000
    Total Energy =                       -527.5292374786408800
    Molecular point group: c1
  Basis Set: 6-31G*
  Basis Set:

  -Total Gradient:
     Atom            X                  Y                   Z
    ------   -----------------  -----------------  -----------------
       1        0.000003264327     0.000001320926     0.000003494899
       2       -0.000009360523     0.000011493880    -0.000007675083
       3        0.000035881560    -0.000037585442     0.000024701921
       4        0.000001307391    -0.000000150342     0.000003808087
       5       -0.000048106235     0.000016399668    -0.000013929794
       6       -0.000003812217     0.000007352404    -0.000002335457
       7       -0.000652719678     0.000637070701    -0.000171155556
       8       -0.000234561776     0.000116016476     0.000490998983
       9        0.000617627607    -0.000572965807    -0.000012338117
      10        0.000001888082     0.000019680162     0.000011986189
      11        0.000405253512    -0.000172897347    -0.000529150857
      12       -0.000090277080    -0.000050886049     0.000182823254
      13       -0.000026384973     0.000025150768     0.000018771527

  **** Optimization is complete! (in 10 steps) ****
    Final optimized geometry and variables:
    Molecular point group: c1

    Geometry (in Angstrom), charge = 0, multiplicity = 1:

    H           -3.890491979477     1.013107694632    -0.330801048982
    C           -3.243143932941     0.318511183093     0.168296053225
    C           -2.057844037586     0.053188968234    -0.330348719003
    H           -3.585845044766    -0.141454201635     1.076132408706
    O           -1.207665334248    -0.827191806169     0.258843129191
    H           -1.695707574612     0.508386393301    -1.236058570452
    C            0.020826243962    -1.037877204755    -0.344909474268
    C            1.050151900245     0.053671126003    -0.018695410116
    H           -0.063829437203    -1.109489940739    -1.422704863297
    H            0.401402887742    -1.973576985648     0.034186590457
    F            2.065402473201    -0.437887611405     0.673023141021
    F            1.558555601125     0.565701876508    -1.132173839496
    F            0.533245142349     1.045825775123     0.672940638741

  Mulliken Charges: (a.u.)
   Center  Symbol    Alpha    Beta     Spin     Total
       1     H     0.40692  0.40692  0.00000  0.18617
       2     C     3.23584  3.23584  0.00000 -0.47169
       3     C     2.89584  2.89584  0.00000  0.20833
       4     H     0.40198  0.40198  0.00000  0.19603
       5     O     4.29788  4.29788  0.00000 -0.59576
       6     H     0.40709  0.40709  0.00000  0.18581
       7     C     3.08429  3.08429  0.00000 -0.16859
       8     C     2.44639  2.44639  0.00000  1.10723
       9     H     0.39991  0.39991  0.00000  0.20018
      10     H     0.38443  0.38443  0.00000  0.23113
      11     F     4.68210  4.68210  0.00000 -0.36420
      12     F     4.68508  4.68508  0.00000 -0.37015
      13     F     4.67225  4.67225  0.00000 -0.34449

   Total alpha = 32.00000, Total beta = 32.00000, Total charge =  0.00000
