  ==> Input File <==

--------------------------------------------------------------------------
set {
	reference rhf
	basis cc-pvtz
}

set_num_threads( 4 )
memory 2 gb

molecule MOL {
0 1

H	 -2.362939	 -1.309000	 -0.383250
C	 -1.359344	 -1.272457	 0.020748
C	 -0.684082	 0.000127	 -0.464918
H	 -0.825835	 -2.151141	 -0.318537
H	 -1.416276	 -1.292399	 1.099455
C	 -1.359089	 1.272668	 0.021259
N	 0.742439	 -0.000109	 0.007333
H	 -0.596914	 0.000345	 -1.538146
H	 -2.362696	 1.309620	 -0.382686
H	 -0.825392	 2.151374	 -0.317674
H	 -1.415983	 1.292181	 1.099973
O	 0.933468	 0.182364	 1.162260
O	 1.587110	 -0.182920	 -0.804702

	symmetry c1
}
set optking {
	frozen_dihedral = ("
		12 7 3 8
	")
}

ee = optimize('scf')
oeprop('DIPOLE', 'QUADRUPOLE', 'MULLIKEN_CHARGES')
f=open( 'psi4out.xyz', 'w' )
f.write( "13  " )
f.write( str(ee) + "\n" )
f.write( MOL.save_string_xyz() )
f.close()
--------------------------------------------------------------------------

    Molecular point group: c1
  Charge       = 0
  Multiplicity = 1
  Basis Set: CC-PVTZ
  Basis Set:
  @DF-RHF Final Energy:  -321.86450009138014
    Total Energy =                       -321.8645000913800232
    Molecular point group: c1
  Basis Set: CC-PVTZ
  Basis Set:
  Basis Set: CC-PVTZ
  Basis Set:
  @DF-RHF Final Energy:  -321.86265197402304
    Total Energy =                       -321.8626519740229242
  Basis Set: CC-PVTZ
  Basis Set:
  Basis Set: CC-PVTZ
  Basis Set:
  @DF-RHF Final Energy:  -321.86453812108073
    Total Energy =                       -321.8645381210808409
  Basis Set: CC-PVTZ
  Basis Set:
  Basis Set: CC-PVTZ
  Basis Set:
  @DF-RHF Final Energy:  -321.86457423636756
    Total Energy =                       -321.8645742363672753
  Basis Set: CC-PVTZ
  Basis Set:
  Charge       = 0
  Multiplicity = 1
  Basis Set: CC-PVTZ
  Basis Set:

    Orbital Energies (a.u.)
    -----------------------

    Doubly Occupied:

       1A    -20.590171     2A    -20.587881     3A    -15.832580
       4A    -11.304238     5A    -11.244572     6A    -11.241721
       7A     -1.633899     8A     -1.418105     9A     -1.142632
      10A     -0.974234    11A     -0.957253    12A     -0.816608
      13A     -0.751796    14A     -0.732900    15A     -0.726557
      16A     -0.650480    17A     -0.595209    18A     -0.588602
      19A     -0.570940    20A     -0.529884    21A     -0.522773
      22A     -0.485562    23A     -0.469730    24A     -0.452235

  @DF-RHF Final Energy:  -321.86457450387087

   => Energetics <=

    Nuclear Repulsion Energy =            257.3254024730097740
    One-Electron Energy =                -948.7388317500319772
    Two-Electron Energy =                 369.5488547731513336
    DFT Exchange-Correlation Energy =       0.0000000000000000
    Empirical Dispersion Energy =           0.0000000000000000
    PCM Polarization Energy =               0.0000000000000000
    EFP Energy =                            0.0000000000000000
    Total Energy =                       -321.8645745038709265
    Molecular point group: c1
  Basis Set: CC-PVTZ
  Basis Set:

  -Total Gradient:
     Atom            X                  Y                   Z
    ------   -----------------  -----------------  -----------------
       1       -0.000023451751    -0.000028509973     0.000006285758
       2       -0.000049629758     0.000024538499    -0.000034842748
       3        0.000008564883    -0.000318804690     0.000038476309
       4        0.000000193756    -0.000007537353     0.000001739103
       5        0.000003547583     0.000009741107    -0.000018904651
       6       -0.000023408385     0.000025224843    -0.000012481061
       7       -0.000185656385    -0.000301937985     0.000105040896
       8       -0.000018769905     0.000326829373     0.000026617558
       9       -0.000001410115     0.000004577850     0.000001667955
      10        0.000001126894     0.000001246775    -0.000003999821
      11        0.000002852558    -0.000011497999    -0.000003277676
      12        0.000138329794     0.000274541575    -0.000209114936
      13        0.000147710830     0.000001587976     0.000102793313

  **** Optimization is complete! (in 5 steps) ****
    Final optimized geometry and variables:
    Molecular point group: c1

    Geometry (in Angstrom), charge = 0, multiplicity = 1:

    H           -2.359615415941    -1.302442304494    -0.373284374437
    C           -1.352315254557    -1.263121409988     0.020652115097
    C           -0.684110634006     0.015191833757    -0.464414919764
    H           -0.817597838844    -2.137597117643    -0.326711492536
    H           -1.400361544439    -1.285694296781     1.100406674500
    C           -1.367283160747     1.282026834861     0.020278001220
    N            0.742792865058    -0.000285883783     0.007513806573
    H           -0.596716539953     0.012910237449    -1.537707905075
    H           -2.366217606624     1.315808088082    -0.395921856413
    H           -0.833864262810     2.164564264086    -0.308825283235
    H           -1.436518382019     1.299418670930     1.097790890531
    O            0.941400687696     0.181340334442     1.162146971526
    O            1.580074932732    -0.210890690154    -0.804115775921

  Mulliken Charges: (a.u.)
   Center  Symbol    Alpha    Beta     Spin     Total
       1     H     0.44866  0.44866  0.00000  0.10269
       2     C     3.14360  3.14360  0.00000 -0.28719
       3     C     3.00760  3.00760  0.00000 -0.01521
       4     H     0.43964  0.43964  0.00000  0.12072
       5     H     0.43999  0.43999  0.00000  0.12003
       6     C     3.14472  3.14472  0.00000 -0.28944
       7     N     3.27529  3.27529  0.00000  0.44942
       8     H     0.42481  0.42481  0.00000  0.15038
       9     H     0.44958  0.44958  0.00000  0.10084
      10     H     0.44127  0.44127  0.00000  0.11745
      11     H     0.43810  0.43810  0.00000  0.12379
      12     O     4.17740  4.17740  0.00000 -0.35480
      13     O     4.16934  4.16934  0.00000 -0.33868

   Total alpha = 24.00000, Total beta = 24.00000, Total charge =  0.00000
