  ==> Input File <==

--------------------------------------------------------------------------
set {
	reference rhf
	basis 6-31G*
}

set_num_threads( 1 )
memory 2 gb

molecule MOL {
0 1

H	 -2.520069	 -0.158526	 -0.706361
O	 -2.035884	 -0.060112	 0.102722
C	 -0.955155	 0.788182	 -0.092531
C	 0.353668	 0.040312	 -0.004810
H	 -0.985057	 1.290372	 -1.054184
H	 -0.974469	 1.533190	 0.688632
F	 0.394464	 -0.937475	 -0.903053
F	 1.368604	 0.853376	 -0.249821
F	 0.546173	 -0.502608	 1.179981

	symmetry c1
}
set optking {
	frozen_dihedral = ("
		7 4 3 5
	")
}

ee = energy('scf')
oeprop('DIPOLE', 'QUADRUPOLE', 'MULLIKEN_CHARGES')
f=open( 'psi4out.xyz', 'w' )
f.write( "9  " )
f.write( str(ee) + "\n" )
f.write( MOL.save_string_xyz() )
f.close()
--------------------------------------------------------------------------

    Molecular point group: c1

    Geometry (in Angstrom), charge = 0, multiplicity = 1:

       Center              X                  Y                   Z               Mass
    ------------   -----------------  -----------------  -----------------  -----------------
           H         -2.515825666363    -0.163723648394    -0.705457388707     1.007825032070
           O         -2.031640666363    -0.065309648394     0.103625611293    15.994914619560
           C         -0.950911666363     0.782984351606    -0.091627388707    12.000000000000
           C          0.357911333637     0.035114351606    -0.003906388707    12.000000000000
           H         -0.980813666363     1.285174351606    -1.053280388707     1.007825032070
           H         -0.970225666363     1.527992351606     0.689535611293     1.007825032070
           F          0.398707333637    -0.942672648394    -0.902149388707    18.998403224000
           F          1.372847333637     0.848178351606    -0.248917388707    18.998403224000
           F          0.550416333637    -0.507805648394     1.180884611293    18.998403224000

  Charge       = 0
  Multiplicity = 1
  Basis Set: 6-31G*
  Basis Set:

    Orbital Energies (a.u.)
    -----------------------

    Doubly Occupied:

       1A    -26.340194     2A    -26.334680     3A    -26.332727
       4A    -20.589788     5A    -11.496001     6A    -11.309586
       7A     -1.734073     8A     -1.634118     9A     -1.628902
      10A     -1.402017    11A     -1.046793    12A     -0.918478
      13A     -0.825400    14A     -0.823205    15A     -0.791178
      16A     -0.735784    17A     -0.706164    18A     -0.697374
      19A     -0.660698    20A     -0.652724    21A     -0.636147
      22A     -0.630545    23A     -0.599776    24A     -0.533515
      25A     -0.478423

  @DF-RHF Final Energy:  -450.66000856536220

   => Energetics <=

    Nuclear Repulsion Energy =            276.4324786543658092
    One-Electron Energy =               -1175.1085371337071592
    Two-Electron Energy =                 448.0160499139794297
    DFT Exchange-Correlation Energy =       0.0000000000000000
    Empirical Dispersion Energy =           0.0000000000000000
    PCM Polarization Energy =               0.0000000000000000
    EFP Energy =                            0.0000000000000000
    Total Energy =                       -450.6600085653619203

  Mulliken Charges: (a.u.)
   Center  Symbol    Alpha    Beta     Spin     Total
       1     H     0.27104  0.27104  0.00000  0.45792
       2     O     4.36121  4.36121  0.00000 -0.72241
       3     C     3.05884  3.05884  0.00000 -0.11768
       4     C     2.45544  2.45544  0.00000  1.08912
       5     H     0.40972  0.40972  0.00000  0.18056
       6     H     0.40107  0.40107  0.00000  0.19786
       7     F     4.68440  4.68440  0.00000 -0.36879
       8     F     4.68256  4.68256  0.00000 -0.36512
       9     F     4.67572  4.67572  0.00000 -0.35145

   Total alpha = 25.00000, Total beta = 25.00000, Total charge =  0.00000
