                              Psi4 1.0.54 Driver

  ==> Input File <==

--------------------------------------------------------------------------
set {
	reference rhf
	basis cc-pvtz
}

set_num_threads( 4 )
memory 2 gb

molecule MOL {
0 1

O	 -0.954430	 -1.413721	 -0.409510
C	 -0.664649	 -0.261928	 -0.254207
C	 -1.747487	 0.797451	 -0.250769
N	 0.622280	 0.144970	 -0.099307
H	 -1.586593	 1.528611	 -1.032986
H	 -2.687318	 0.298080	 -0.417620
H	 -1.784540	 1.320708	 0.696756
C	 1.664396	 -0.854993	 0.000772
C	 1.003799	 1.476609	 0.306816
H	 2.462727	 -0.615153	 -0.690869
H	 1.261798	 -1.821849	 -0.240651
H	 2.081615	 -0.891605	 1.003877
H	 1.949184	 1.732045	 -0.154309
H	 0.280900	 2.210801	 -0.005072
H	 1.128032	 1.552392	 1.384715

	symmetry c1
}
set optking {
	frozen_dihedral = ("
		2 4 8 10
	")
}

ee,wfn = optimize('scf', return_wfn=True)
oeprop( wfn, 'DIPOLE', 'QUADRUPOLE', 'MULLIKEN_CHARGES')
f=open( 'psi4out.xyz', 'w' )
f.write( "15  " )
f.write( str(ee) + "\n" )
f.write( MOL.save_string_xyz() )
f.close()
--------------------------------------------------------------------------

    Molecular point group: c1
  Charge       = 0
  Multiplicity = 1
  Basis Set: CC-PVTZ
  Basis Set:
  @DF-RHF Final Energy:  -286.13546739969092
    Total Energy =                       -286.1354673996906968
    Molecular point group: c1
  Basis Set: CC-PVTZ
  Basis Set:
  Basis Set: CC-PVTZ
  Basis Set:
  @DF-RHF Final Energy:  -286.13555535594253
    Total Energy =                       -286.1355553559426994
  Basis Set: CC-PVTZ
  Basis Set:
  Basis Set: CC-PVTZ
  Basis Set:
  @DF-RHF Final Energy:  -286.13551016882172
    Total Energy =                       -286.1355101688218383
  Basis Set: CC-PVTZ
  Basis Set:
  Basis Set: CC-PVTZ
  Basis Set:
  @DF-RHF Final Energy:  -286.13560020867703
    Total Energy =                       -286.1356002086771468
  Basis Set: CC-PVTZ
  Basis Set:
  @DF-RHF Final Energy:  -286.13560651920710
    Total Energy =                       -286.1356065192067035
  Basis Set: CC-PVTZ
  Basis Set:
  @DF-RHF Final Energy:  -286.13560962908701
    Total Energy =                       -286.1356096290869573
  Basis Set: CC-PVTZ
  Basis Set:
  Basis Set: CC-PVTZ
  Basis Set:
  @DF-RHF Final Energy:  -286.13561196895967
    Total Energy =                       -286.1356119689598927
  Basis Set: CC-PVTZ
  Basis Set:
  Basis Set: CC-PVTZ
  Basis Set:
  @DF-RHF Final Energy:  -286.13561391689467
    Total Energy =                       -286.1356139168944992
  Basis Set: CC-PVTZ
  Basis Set:
  Charge       = 0
  Multiplicity = 1
  Basis Set: CC-PVTZ
  Basis Set:

    Orbital Energies (a.u.)
    -----------------------

    Doubly Occupied:

       1A    -20.502633     2A    -15.578733     3A    -11.335280
       4A    -11.264115     5A    -11.246445     6A    -11.226401
       7A     -1.386644     8A     -1.246589     9A     -1.015106
      10A     -0.973399    11A     -0.921444    12A     -0.739310
      13A     -0.683334    14A     -0.662197    15A     -0.653823
      16A     -0.590510    17A     -0.577877    18A     -0.566951
      19A     -0.561747    20A     -0.548706    21A     -0.530432
      22A     -0.507725    23A     -0.413007    24A     -0.369888

  @DF-RHF Final Energy:  -286.13561452340622

   => Energetics <=

    Nuclear Repulsion Energy =            252.8239546527620973
    One-Electron Energy =                -889.7145482059801225
    Two-Electron Energy =                 350.7549790298118069
    DFT Exchange-Correlation Energy =       0.0000000000000000
    Empirical Dispersion Energy =           0.0000000000000000
    PCM Polarization Energy =               0.0000000000000000
    EFP Energy =                            0.0000000000000000
    Total Energy =                       -286.1356145234061614
    Molecular point group: c1
  Basis Set: CC-PVTZ
  Basis Set:

  -Total Gradient:
     Atom            X                  Y                   Z
    ------   -----------------  -----------------  -----------------
       1        0.000000367629     0.000011114706    -0.000017320011
       2        0.000000152525     0.000001716542    -0.000097300857
       3        0.000000997086    -0.000003910542     0.000022480933
       4       -0.000045938661    -0.000031181148     0.000142536791
       5       -0.000005891934    -0.000003909355    -0.000016840023
       6       -0.000005284974    -0.000006135373     0.000004543692
       7        0.000017048870     0.000006851322    -0.000011501901
       8        0.000093181930     0.000098114097     0.000077578559
       9       -0.000013236672    -0.000010306899     0.000014392576
      10       -0.000059981286    -0.000075485814    -0.000109545691
      11       -0.000000579658     0.000001562172    -0.000005206352
      12        0.000004791371     0.000005404710    -0.000002531720
      13        0.000011817141    -0.000000492986     0.000013213209
      14        0.000014225589     0.000000308004    -0.000013616319
      15       -0.000011668955     0.000006350565    -0.000000882888

  **** Optimization is complete! (in 9 steps) ****
    Final optimized geometry and variables:
    Molecular point group: c1

    Geometry (in Angstrom), charge = 0, multiplicity = 1:

    O           -0.951149150469    -1.393946154691    -0.338045353663
    C           -0.661707091646    -0.247049241606    -0.147230720443
    C           -1.744158436793     0.813148605948    -0.140064949224
    N            0.619685525278     0.152531296937     0.052790240455
    H           -1.587801052431     1.538741865719    -0.928643367003
    H           -2.684670074157     0.312993720333    -0.300428266421
    H           -1.776133402326     1.342717160359     0.803815719312
    C            1.671017132530    -0.838647334085     0.132358270068
    C            1.012663392462     1.492899105074     0.414035310143
    H            2.486561066478    -0.567407197185    -0.528684165219
    H            1.283586029706    -1.798043610868    -0.157519046181
    H            2.061522217390    -0.906052379956     1.143935467011
    H            1.936181715168     1.744549742167    -0.092961448521
    H            0.273522759722     2.219049530936     0.123482194502
    H            1.184634676182     1.586553036366     1.483507463836

  Mulliken Charges: (a.u.)
   Center  Symbol    Alpha    Beta     Spin     Total
       1     O     4.22198  4.22198  0.00000 -0.44396
       2     C     2.84627  2.84627  0.00000  0.30745
       3     C     3.16052  3.16052  0.00000 -0.32103
       4     N     3.55946  3.55946  0.00000 -0.11891
       5     H     0.44912  0.44912  0.00000  0.10177
       6     H     0.42857  0.42857  0.00000  0.14285
       7     H     0.44951  0.44951  0.00000  0.10097
       8     C     3.10056  3.10056  0.00000 -0.20111
       9     C     3.09541  3.09541  0.00000 -0.19082
      10     H     0.45625  0.45625  0.00000  0.08750
      11     H     0.42518  0.42518  0.00000  0.14964
      12     H     0.45807  0.45807  0.00000  0.08385
      13     H     0.45022  0.45022  0.00000  0.09955
      14     H     0.44501  0.44501  0.00000  0.10998
      15     H     0.45387  0.45387  0.00000  0.09225

   Total alpha = 24.00000, Total beta = 24.00000, Total charge =  0.00000

*** Psi4 exiting successfully. Buy a developer a beer!
