                              Psi4 1.0.54 Driver

  ==> Input File <==

--------------------------------------------------------------------------
set {
	reference rhf
	basis cc-pvtz
}

set_num_threads( 4 )
memory 2 gb

molecule MOL {
0 1

O	 -1.510770	 1.240811	 -0.054933
C	 -1.081510	 0.147522	 0.122720
C	 0.327029	 -0.064006	 0.641890
C	 -1.903028	 -1.084121	 -0.174656
C	 1.349460	 -0.017068	 -0.500215
H	 0.399029	 -1.014606	 1.159950
H	 0.538021	 0.726928	 1.350471
C	 1.995313	 -1.373341	 -0.759336
H	 0.867970	 0.331786	 -1.409229
H	 2.111742	 0.712254	 -0.252543
H	 2.720489	 -1.309937	 -1.561912
H	 1.254581	 -2.114745	 -1.039317
H	 2.508947	 -1.735223	 0.124458
H	 -1.341891	 -1.779207	 -0.789259
H	 -2.820449	 -0.808163	 -0.671328
H	 -2.133314	 -1.593056	 0.755831

	symmetry c1
}
set optking {
	frozen_dihedral = ("
		9 5 3 2
	")
}

ee,wfn = optimize('scf', return_wfn=True)
oeprop( wfn, 'DIPOLE', 'QUADRUPOLE', 'MULLIKEN_CHARGES')
f=open( 'psi4out.xyz', 'w' )
f.write( "16  " )
f.write( str(ee) + "\n" )
f.write( MOL.save_string_xyz() )
f.close()
--------------------------------------------------------------------------

    Molecular point group: c1
  Charge       = 0
  Multiplicity = 1
  Basis Set: CC-PVTZ
  Basis Set:
  @DF-RHF Final Energy:  -270.12325784381255
    Total Energy =                       -270.1232578438126097
    Molecular point group: c1
  Basis Set: CC-PVTZ
  Basis Set:
  Basis Set: CC-PVTZ
  Basis Set:
  @DF-RHF Final Energy:  -270.12359315343838
    Total Energy =                       -270.1235931534384918
  Basis Set: CC-PVTZ
  Basis Set:
  Basis Set: CC-PVTZ
  Basis Set:
  @DF-RHF Final Energy:  -270.12365172628915
    Total Energy =                       -270.1236517262891539
  Basis Set: CC-PVTZ
  Basis Set:
  Basis Set: CC-PVTZ
  Basis Set:
  @DF-RHF Final Energy:  -270.12372645104045
    Total Energy =                       -270.1237264510406249
  Basis Set: CC-PVTZ
  Basis Set:
  @DF-RHF Final Energy:  -270.12379778542174
    Total Energy =                       -270.1237977854218570
  @DF-RHF Final Energy:  -270.12384856036255
    Total Energy =                       -270.1238485603628305
  @DF-RHF Final Energy:  -270.12389570552170
    Total Energy =                       -270.1238957055219316
  @DF-RHF Final Energy:  -270.12393821076762
    Total Energy =                       -270.1239382107676192
  Basis Set: CC-PVTZ
  Basis Set:
  @DF-RHF Final Energy:  -270.12400736170480
    Total Energy =                       -270.1240073617049688
  Basis Set: CC-PVTZ
  Basis Set:
  Basis Set: CC-PVTZ
  Basis Set:
  @DF-RHF Final Energy:  -270.12401808458503
    Total Energy =                       -270.1240180845849750
  Basis Set: CC-PVTZ
  Basis Set:
  Basis Set: CC-PVTZ
  Basis Set:
  @DF-RHF Final Energy:  -270.12401945645354
    Total Energy =                       -270.1240194564535386
  Basis Set: CC-PVTZ
  Basis Set:
  Charge       = 0
  Multiplicity = 1
  Basis Set: CC-PVTZ
  Basis Set:

    Orbital Energies (a.u.)
    -----------------------

    Doubly Occupied:

       1A    -20.537390     2A    -11.319593     3A    -11.234325
       4A    -11.228442     5A    -11.227016     6A    -11.221156
       7A     -1.397284     8A     -1.083667     9A     -1.011459
      10A     -0.954026    11A     -0.834652    12A     -0.736221
      13A     -0.659524    14A     -0.651095    15A     -0.615993
      16A     -0.597408    17A     -0.590188    18A     -0.560814
      19A     -0.545898    20A     -0.517068    21A     -0.501264
      22A     -0.484718    23A     -0.476979    24A     -0.400641

  @DF-RHF Final Energy:  -270.12401950725797

   => Energetics <=

    Nuclear Repulsion Energy =            239.3704284531467579
    One-Electron Energy =                -840.2152526699323971
    Two-Electron Energy =                 330.7208047095276697
    DFT Exchange-Correlation Energy =       0.0000000000000000
    Empirical Dispersion Energy =           0.0000000000000000
    PCM Polarization Energy =               0.0000000000000000
    EFP Energy =                            0.0000000000000000
    Total Energy =                       -270.1240195072579127
    Molecular point group: c1
  Basis Set: CC-PVTZ
  Basis Set:

  -Total Gradient:
     Atom            X                  Y                   Z
    ------   -----------------  -----------------  -----------------
       1        0.000014404513    -0.000023567727    -0.000000137478
       2        0.000033113648     0.000425952652    -0.000013887970
       3       -0.000094086913    -0.000687662301     0.000004405081
       4       -0.000001824226    -0.000000319817     0.000007286951
       5        0.000182312933     0.000818692659     0.000026472134
       6        0.000006202445     0.000001721393     0.000000782167
       7       -0.000008624139    -0.000002372118    -0.000001989012
       8       -0.000007689439     0.000007979805     0.000006753624
       9       -0.000128919296    -0.000543156445    -0.000035316895
      10       -0.000006442742    -0.000001400788     0.000003907110
      11        0.000002523251     0.000002613243     0.000003244611
      12       -0.000000605533    -0.000001200841    -0.000003843162
      13       -0.000002378604    -0.000004365554     0.000001461373
      14       -0.000004344411     0.000002936564     0.000004634141
      15        0.000014815425     0.000000501573     0.000004399960
      16        0.000001543091     0.000003647704    -0.000008172636

  **** Optimization is complete! (in 12 steps) ****
    Final optimized geometry and variables:
    Molecular point group: c1

    Geometry (in Angstrom), charge = 0, multiplicity = 1:

    O           -1.515686438898     1.421718772009     0.360270041865
    C           -0.945933497030     0.381108483640     0.300464438044
    C            0.507276646198     0.253876199807     0.710002044722
    C           -1.641656244924    -0.867395896950    -0.192254818165
    C            1.456523916197     0.124003338300    -0.508031970187
    H            0.620195436279    -0.609020385030     1.358125559909
    H            0.746836133329     1.135235304204     1.286290272736
    C            2.138622739431    -1.236446596543    -0.617134558846
    H            0.912708607842     0.325552925023    -1.425051143627
    H            2.213588340699     0.894514615327    -0.439765778775
    H            2.788471600596    -1.276256478402    -1.483472419968
    H            1.415322585021    -2.039416799440    -0.709457516733
    H            2.742529731767    -1.438310570027     0.260795655016
    H           -1.071883153596    -1.343671323373    -0.981220333858
    H           -2.628544120834    -0.619766636596    -0.551585218920
    H           -1.721045150959    -1.579617479800     0.622452902714

  Mulliken Charges: (a.u.)
   Center  Symbol    Alpha    Beta     Spin     Total
       1     O     4.17347  4.17347  0.00000 -0.34694
       2     C     2.85736  2.85736  0.00000  0.28528
       3     C     3.10101  3.10101  0.00000 -0.20202
       4     C     3.15852  3.15852  0.00000 -0.31705
       5     C     3.10394  3.10394  0.00000 -0.20788
       6     H     0.45117  0.45117  0.00000  0.09766
       7     H     0.43497  0.43497  0.00000  0.13005
       8     C     3.14674  3.14674  0.00000 -0.29347
       9     H     0.44708  0.44708  0.00000  0.10585
      10     H     0.43932  0.43932  0.00000  0.12136
      11     H     0.44641  0.44641  0.00000  0.10719
      12     H     0.45527  0.45527  0.00000  0.08946
      13     H     0.45231  0.45231  0.00000  0.09538
      14     H     0.45012  0.45012  0.00000  0.09976
      15     H     0.43380  0.43380  0.00000  0.13241
      16     H     0.44851  0.44851  0.00000  0.10298

   Total alpha = 24.00000, Total beta = 24.00000, Total charge = -0.00000

*** Psi4 exiting successfully. Buy a developer a beer!
