                              Psi4 1.0.54 Driver

  ==> Input File <==

--------------------------------------------------------------------------
set {
	reference rhf
	basis cc-pvtz
}

set_num_threads( 4 )
memory 2 gb

molecule MOL {
0 1

H	 2.230918	 -0.934777	 -2.142358
C	 1.507491	 -1.132948	 -1.362190
C	 1.322304	 0.099773	 -0.484271
H	 0.577028	 -1.421349	 -1.838040
H	 1.865257	 -1.977952	 -0.784857
C	 0.308557	 -0.162619	 0.622645
H	 0.980755	 0.935562	 -1.082212
H	 2.266383	 0.383251	 -0.035614
N	 -1.069352	 -0.004081	 0.085342
H	 0.371632	 -1.172932	 0.991288
H	 0.400391	 0.548875	 1.426218
O	 -1.584901	 -0.965470	 -0.377818
O	 -1.548033	 1.079343	 0.130056

	symmetry c1
}
set optking {
	frozen_dihedral = ("
		7 3 6 9
	")
}

ee,wfn = optimize('scf', return_wfn=True)
oeprop( wfn, 'DIPOLE', 'QUADRUPOLE', 'MULLIKEN_CHARGES')
f=open( 'psi4out.xyz', 'w' )
f.write( "13  " )
f.write( str(ee) + "\n" )
f.write( MOL.save_string_xyz() )
f.close()
--------------------------------------------------------------------------

    Molecular point group: c1
  Charge       = 0
  Multiplicity = 1
  Basis Set: CC-PVTZ
  Basis Set:
  @DF-RHF Final Energy:  -321.85889522939436
    Total Energy =                       -321.8588952293943066
    Molecular point group: c1
  Basis Set: CC-PVTZ
  Basis Set:
  Basis Set: CC-PVTZ
  Basis Set:
  @DF-RHF Final Energy:  -321.85913545888729
    Total Energy =                       -321.8591354588872377
  Basis Set: CC-PVTZ
  Basis Set:
  Basis Set: CC-PVTZ
  Basis Set:
  @DF-RHF Final Energy:  -321.85000417448293
    Total Energy =                       -321.8500041744830469
  Basis Set: CC-PVTZ
  Basis Set:
  Basis Set: CC-PVTZ
  Basis Set:
  @DF-RHF Final Energy:  -321.85735873588243
    Total Energy =                       -321.8573587358823147
  Basis Set: CC-PVTZ
  Basis Set:
  @DF-RHF Final Energy:  -321.85951741753252
    Total Energy =                       -321.8595174175325724
  @DF-RHF Final Energy:  -321.85958208413115
    Total Energy =                       -321.8595820841312616
  @DF-RHF Final Energy:  -321.85963146911820
    Total Energy =                       -321.8596314691182556
  @DF-RHF Final Energy:  -321.85969068074274
    Total Energy =                       -321.8596906807425739
  Basis Set: CC-PVTZ
  Basis Set:
  @DF-RHF Final Energy:  -321.85972913208968
    Total Energy =                       -321.8597291320895692
  Basis Set: CC-PVTZ
  Basis Set:
  Basis Set: CC-PVTZ
  Basis Set:
  @DF-RHF Final Energy:  -321.85974071169949
    Total Energy =                       -321.8597407116994873
  Basis Set: CC-PVTZ
  Basis Set:
  Basis Set: CC-PVTZ
  Basis Set:
  @DF-RHF Final Energy:  -321.85974251899410
    Total Energy =                       -321.8597425189940395
  Basis Set: CC-PVTZ
  Basis Set:
  Charge       = 0
  Multiplicity = 1
  Basis Set: CC-PVTZ
  Basis Set:

    Orbital Energies (a.u.)
    -----------------------

    Doubly Occupied:

       1A    -20.592976     2A    -20.589294     3A    -15.837535
       4A    -11.297754     5A    -11.252623     6A    -11.229950
       7A     -1.636652     8A     -1.420863     9A     -1.132131
      10A     -1.022708    11A     -0.890993    12A     -0.826783
      13A     -0.763219    14A     -0.740641    15A     -0.728711
      16A     -0.643566    17A     -0.628200    18A     -0.596462
      19A     -0.530461    20A     -0.518491    21A     -0.514699
      22A     -0.487292    23A     -0.475315    24A     -0.453518

  @DF-RHF Final Energy:  -321.85974276115905

   => Energetics <=

    Nuclear Repulsion Energy =            251.6786255300800406
    One-Electron Energy =                -937.4550597277907400
    Two-Electron Energy =                 363.9166914365516163
    DFT Exchange-Correlation Energy =       0.0000000000000000
    Empirical Dispersion Energy =           0.0000000000000000
    PCM Polarization Energy =               0.0000000000000000
    EFP Energy =                            0.0000000000000000
    Total Energy =                       -321.8597427611591115
    Molecular point group: c1
  Basis Set: CC-PVTZ
  Basis Set:

  -Total Gradient:
     Atom            X                  Y                   Z
    ------   -----------------  -----------------  -----------------
       1       -0.000001803705     0.000000788101     0.000001103931
       2        0.000007656684    -0.000001192929     0.000006601311
       3        0.003118626720     0.003805621989     0.002365953520
       4       -0.000002148856    -0.000000409844    -0.000001597228
       5       -0.000001009527    -0.000002473734    -0.000001269844
       6       -0.001118965276    -0.004200974450    -0.001022297716
       7       -0.002420335947    -0.002322097182    -0.001798561713
       8        0.000005845722    -0.000001887198    -0.000006697102
       9        0.000378614841     0.002608214506     0.000484925198
      10       -0.000001941869     0.000001159444    -0.000001994410
      11        0.000001487668    -0.000000140727    -0.000003748858
      12        0.000035847905     0.000035537996    -0.000004374896
      13       -0.000001874363     0.000077854028    -0.000018042190

  **** Optimization is complete! (in 12 steps) ****
    Final optimized geometry and variables:
    Molecular point group: c1

    Geometry (in Angstrom), charge = 0, multiplicity = 1:

    H            2.086344764587    -1.080402260114    -2.218113952016
    C            1.473293990747    -1.188842114744    -1.332211037684
    C            1.503188092459     0.092835194815    -0.503616221994
    H            0.466386754708    -1.428573814229    -1.653035997386
    H            1.851281758767    -2.032368135631    -0.765659376635
    C            0.639494972619     0.015470987165     0.753169702985
    H            1.158819533831     0.921436969435    -1.107191962017
    H            2.516632004977     0.310959420900    -0.191039475294
    N           -0.792356937869     0.286843501473     0.435350162950
    H            0.666657005241    -0.952227082168     1.222994065287
    H            0.910050991671     0.786093831694     1.457763851798
    O           -1.560890535315    -0.607671994484     0.549951404264
    O           -1.066696138706     1.386170311065     0.086213157188

  Mulliken Charges: (a.u.)
   Center  Symbol    Alpha    Beta     Spin     Total
       1     H     0.44529  0.44529  0.00000  0.10943
       2     C     3.14389  3.14389  0.00000 -0.28779
       3     C     3.09757  3.09757  0.00000 -0.19514
       4     H     0.44626  0.44626  0.00000  0.10748
       5     H     0.45428  0.45428  0.00000  0.09143
       6     C     3.04712  3.04712  0.00000 -0.09425
       7     H     0.43565  0.43565  0.00000  0.12869
       8     H     0.44550  0.44550  0.00000  0.10901
       9     N     3.27794  3.27794  0.00000  0.44412
      10     H     0.43399  0.43399  0.00000  0.13202
      11     H     0.42829  0.42829  0.00000  0.14342
      12     O     4.16993  4.16993  0.00000 -0.33985
      13     O     4.17429  4.17429  0.00000 -0.34857

   Total alpha = 24.00000, Total beta = 24.00000, Total charge = -0.00000

*** Psi4 exiting successfully. Buy a developer a beer!
