                              Psi4 1.0.54 Driver

  ==> Input File <==

--------------------------------------------------------------------------
set {
	reference rhf
	basis cc-pvtz
}

set_num_threads( 4 )
memory 2 gb

molecule MOL {
0 1

O	 0.623971	 1.347241	 -0.000777
C	 0.485107	 0.171416	 -0.000134
C	 1.606966	 -0.836201	 0.000174
O	 -0.695554	 -0.422406	 0.000602
C	 2.988788	 -0.202529	 -0.000115
H	 1.465110	 -1.474645	 -0.864821
H	 1.465209	 -1.474077	 0.865596
H	 3.131767	 0.419673	 -0.873407
H	 3.750876	 -0.972315	 0.000098
H	 3.131883	 0.420264	 0.872742
C	 -0.757122	 -1.774829	 0.431240
C	 -2.197565	 -2.222036	 0.343955
H	 -0.381725	 -1.840650	 1.442720
H	 -0.116176	 -2.375480	 -0.198624
H	 -2.829755	 -1.612960	 0.977781
H	 -2.280395	 -3.253186	 0.666600
H	 -2.562689	 -2.150908	 -0.672901

	symmetry c1
}
set optking {
	frozen_dihedral = ("
		11 4 2 3
	")
}

ee,wfn = optimize('scf', return_wfn=True)
oeprop( wfn, 'DIPOLE', 'QUADRUPOLE', 'MULLIKEN_CHARGES')
f=open( 'psi4out.xyz', 'w' )
f.write( "17  " )
f.write( str(ee) + "\n" )
f.write( MOL.save_string_xyz() )
f.close()
--------------------------------------------------------------------------

    Molecular point group: c1
  Charge       = 0
  Multiplicity = 1
  Basis Set: CC-PVTZ
  Basis Set:
  @DF-RHF Final Energy:  -345.01638558814142
    Total Energy =                       -345.0163855881415884
    Molecular point group: c1
  Basis Set: CC-PVTZ
  Basis Set:
  Basis Set: CC-PVTZ
  Basis Set:
  @DF-RHF Final Energy:  -345.00375360663963
    Total Energy =                       -345.0037536066394068
  Basis Set: CC-PVTZ
  Basis Set:
  Basis Set: CC-PVTZ
  Basis Set:
  @DF-RHF Final Energy:  -345.02347983871340
    Total Energy =                       -345.0234798387133424
  Basis Set: CC-PVTZ
  Basis Set:
  Basis Set: CC-PVTZ
  Basis Set:
  @DF-RHF Final Energy:  -345.02563041373708
    Total Energy =                       -345.0256304137369057
  Basis Set: CC-PVTZ
  Basis Set:
  @DF-RHF Final Energy:  -345.02224861424611
    Total Energy =                       -345.0222486142457683
  @DF-RHF Final Energy:  -345.02616299302991
    Total Energy =                       -345.0261629930296294
  Basis Set: CC-PVTZ
  Basis Set:
  @DF-RHF Final Energy:  -345.02631153072883
    Total Energy =                       -345.0263115307284352
  Basis Set: CC-PVTZ
  Basis Set:
  Basis Set: CC-PVTZ
  Basis Set:
  @DF-RHF Final Energy:  -345.02632059873764
    Total Energy =                       -345.0263205987373567
  Basis Set: CC-PVTZ
  Basis Set:
  Basis Set: CC-PVTZ
  Basis Set:
  @DF-RHF Final Energy:  -345.02632960781330
    Total Energy =                       -345.0263296078134658
  Basis Set: CC-PVTZ
  Basis Set:
  Charge       = 0
  Multiplicity = 1
  Basis Set: CC-PVTZ
  Basis Set:

    Orbital Energies (a.u.)
    -----------------------

    Doubly Occupied:

       1A    -20.590702     2A    -20.527952     3A    -11.364980
       4A    -11.296971     5A    -11.244972     6A    -11.225372
       7A    -11.217647     8A     -1.463977     9A     -1.366583
      10A     -1.064203    11A     -1.047378    12A     -0.901902
      13A     -0.881476    14A     -0.771752    15A     -0.706613
      16A     -0.697518    17A     -0.658331    18A     -0.635457
      19A     -0.593079    20A     -0.574896    21A     -0.560923
      22A     -0.538495    23A     -0.525788    24A     -0.521485
      25A     -0.508571    26A     -0.498384    27A     -0.448043
      28A     -0.433395

  @DF-RHF Final Energy:  -345.02633001709108

   => Energetics <=

    Nuclear Repulsion Energy =            315.8917575111060501
    One-Electron Energy =               -1096.1024826800471601
    Two-Electron Energy =                 435.1843951518499125
    DFT Exchange-Correlation Energy =       0.0000000000000000
    Empirical Dispersion Energy =           0.0000000000000000
    PCM Polarization Energy =               0.0000000000000000
    EFP Energy =                            0.0000000000000000
    Total Energy =                       -345.0263300170911407
    Molecular point group: c1
  Basis Set: CC-PVTZ
  Basis Set:

  -Total Gradient:
     Atom            X                  Y                   Z
    ------   -----------------  -----------------  -----------------
       1       -0.000025746495     0.000060428726    -0.000005297339
       2       -0.000295516226     0.000656833445     0.002795285620
       3        0.000073759947    -0.000225517951    -0.001329510610
       4        0.000516803175    -0.001173742940    -0.002798447250
       5       -0.000008293443    -0.000000353548    -0.000007277596
       6        0.000017933380    -0.000012879168     0.000000289355
       7        0.000000255782    -0.000005434814     0.000012172065
       8        0.000002767542    -0.000001029279    -0.000002910766
       9        0.000010442306    -0.000012981129    -0.000003235842
      10       -0.000003825415     0.000013131199     0.000011795506
      11       -0.000294767313     0.000634875361     0.001366603093
      12       -0.000005323385     0.000034882900    -0.000031804197
      13        0.000015879557     0.000014212885    -0.000003952229
      14       -0.000000150473     0.000023345506    -0.000007320330
      15       -0.000006826908     0.000004947666     0.000002423134
      16        0.000014243413    -0.000007735365     0.000003891429
      17       -0.000011635442    -0.000002983495    -0.000002704041

  **** Optimization is complete! (in 10 steps) ****
    Final optimized geometry and variables:
    Molecular point group: c1

    Geometry (in Angstrom), charge = 0, multiplicity = 1:

    O            0.293614391743     1.786766480274    -0.422366295070
    C            0.244764216694     0.632939820341    -0.184221252925
    C            1.477112753603    -0.227163457519    -0.000083666009
    O           -0.942092019801     0.032152560648    -0.129878043779
    C            2.770056226929     0.561390619185    -0.139765260909
    H            1.433428048445    -1.025651164546    -0.733584922423
    H            1.429581484498    -0.708012115517     0.970613206442
    H            2.840158564799     1.021615351805    -1.115387718439
    H            3.620528469244    -0.096296770033    -0.006177058590
    H            2.825185337312     1.349256305807     0.598750505536
    C           -1.149058473628    -1.227314487707     0.475737774939
    C           -2.626599561761    -1.535503052943     0.391026382605
    H           -0.828983491666    -1.193641423228     1.510382734454
    H           -0.575178832189    -1.991177651590    -0.033636864308
    H           -3.203057309751    -0.777263236348     0.904233133360
    H           -2.829546010232    -2.496478661674     0.849141877884
    H           -2.948871356937    -1.569412193586    -0.641580702684

  Mulliken Charges: (a.u.)
   Center  Symbol    Alpha    Beta     Spin     Total
       1     O     4.18125  4.18125  0.00000 -0.36249
       2     C     2.81529  2.81529  0.00000  0.36942
       3     C     3.12248  3.12248  0.00000 -0.24495
       4     O     4.13003  4.13003  0.00000 -0.26006
       5     C     3.13894  3.13894  0.00000 -0.27789
       6     H     0.43916  0.43916  0.00000  0.12167
       7     H     0.44209  0.44209  0.00000  0.11582
       8     H     0.44481  0.44481  0.00000  0.11038
       9     H     0.45158  0.45158  0.00000  0.09684
      10     H     0.44632  0.44632  0.00000  0.10737
      11     C     2.98653  2.98653  0.00000  0.02695
      12     C     3.13235  3.13235  0.00000 -0.26470
      13     H     0.45895  0.45895  0.00000  0.08210
      14     H     0.45972  0.45972  0.00000  0.08055
      15     H     0.44604  0.44604  0.00000  0.10791
      16     H     0.45652  0.45652  0.00000  0.08695
      17     H     0.44794  0.44794  0.00000  0.10412

   Total alpha = 28.00000, Total beta = 28.00000, Total charge = -0.00000

*** Psi4 exiting successfully. Buy a developer a beer!
