  ==> Input File <==

--------------------------------------------------------------------------
set {
	reference rhf
	basis 6-31G*
}

set_num_threads( 4 )
memory 2 gb

molecule MOL {
0 1

H	 -0.369554	 0.069849	 -2.095845
C	 -0.210393	 -0.484033	 -1.193199
C	 -0.209005	 -1.867295	 -1.185326
C	 0.000000	 0.183220	 0.000000
H	 -0.370547	 -2.404452	 -2.101477
C	 0.000000	 -2.555744	 0.000000
N	 0.000000	 1.642018	 0.000000
C	 0.210393	 -0.484034	 1.193199
H	 0.000000	 -3.630640	 0.000000
C	 0.209005	 -1.867295	 1.185326
O	 1.057097	 2.196749	 0.000000
O	 -1.057097	 2.196749	 0.000000
H	 0.369554	 0.069849	 2.095845
H	 0.370547	 -2.404452	 2.101477

	symmetry c1
}
set optking {
	frozen_dihedral = ("
		2 4 7 11
	")
}

ee = optimize('scf')
oeprop('DIPOLE', 'QUADRUPOLE', 'MULLIKEN_CHARGES')
f=open( 'psi4out.xyz', 'w' )
f.write( "14  " )
f.write( str(ee) + "\n" )
f.write( MOL.save_string_xyz() )
f.close()
--------------------------------------------------------------------------

    Molecular point group: c1
  Charge       = 0
  Multiplicity = 1
  Basis Set: 6-31G*
  Basis Set:
  @DF-RHF Final Energy:  -434.16256312427396
    Total Energy =                       -434.1625631242736745
    Molecular point group: c1
  Basis Set: 6-31G*
  Basis Set:
  Basis Set: 6-31G*
  Basis Set:
  @DF-RHF Final Energy:  -434.15874797271016
    Total Energy =                       -434.1587479727104437
  Basis Set: 6-31G*
  Basis Set:
  Basis Set: 6-31G*
  Basis Set:
  @DF-RHF Final Energy:  -434.16256963520971
    Total Energy =                       -434.1625696352102750
  Basis Set: 6-31G*
  Basis Set:
  Basis Set: 6-31G*
  Basis Set:
  @DF-RHF Final Energy:  -434.16290871157020
    Total Energy =                       -434.1629087115695711
  Basis Set: 6-31G*
  Basis Set:
  Charge       = 0
  Multiplicity = 1
  Basis Set: 6-31G*
  Basis Set:

    Orbital Energies (a.u.)
    -----------------------

    Doubly Occupied:

       1A    -20.607172     2A    -20.607111     3A    -15.855852
       4A    -11.309596     5A    -11.270961     6A    -11.270891
       7A    -11.263881     8A    -11.263518     9A    -11.261462
      10A     -1.638561    11A     -1.422613    12A     -1.203138
      13A     -1.094775    14A     -1.054284    15A     -0.957213
      16A     -0.872141    17A     -0.827509    18A     -0.781026
      19A     -0.734029    20A     -0.731328    21A     -0.715757
      22A     -0.648832    23A     -0.647073    24A     -0.623968
      25A     -0.559346    26A     -0.547482    27A     -0.531961
      28A     -0.495206    29A     -0.482574    30A     -0.452486
      31A     -0.367809    32A     -0.366729

  @DF-RHF Final Energy:  -434.16290994074535

   => Energetics <=

    Nuclear Repulsion Energy =            416.1782230893433621
    One-Electron Energy =               -1415.7496947268336953
    Two-Electron Energy =                 565.4085616967452097
    DFT Exchange-Correlation Energy =       0.0000000000000000
    Empirical Dispersion Energy =           0.0000000000000000
    PCM Polarization Energy =               0.0000000000000000
    EFP Energy =                            0.0000000000000000
    Total Energy =                       -434.1629099407450667
    Molecular point group: c1
  Basis Set: 6-31G*
  Basis Set:

  -Total Gradient:
     Atom            X                  Y                   Z
    ------   -----------------  -----------------  -----------------
       1       -0.000000794386    -0.000031086882     0.000049958470
       2        0.002992728345    -0.000101456394    -0.000586262872
       3       -0.000027018890     0.000007982617    -0.000038534075
       4       -0.004243218634     0.000282305454    -0.000631110898
       5        0.000009903684     0.000005394157    -0.000008018858
       6       -0.000023670775     0.000010533968    -0.000008334332
       7        0.001252252932    -0.000001805455     0.004524159732
       8       -0.000042291928    -0.000082667572     0.000140524292
       9       -0.000000054559     0.000004806338    -0.000000391221
      10        0.000060501674     0.000029421367     0.000055296166
      11        0.000221437685    -0.000072638714    -0.003472625765
      12       -0.000181065500    -0.000023339740     0.000021081277
      13       -0.000014936895    -0.000030367881    -0.000051560906
      14       -0.000003772754     0.000002918735     0.000005818991

  **** Optimization is complete! (in 5 steps) ****
    Final optimized geometry and variables:
    Molecular point group: c1

    Geometry (in Angstrom), charge = 0, multiplicity = 1:

    H           -0.391558241501     0.078082781360    -2.089846231104
    C           -0.222814665978    -0.475878494221    -1.185570541977
    C           -0.207085980953    -1.860635587300    -1.181952993081
    C           -0.023281427793     0.180809364758     0.009672490188
    H           -0.359313427371    -2.395443487168    -2.101171319403
    C            0.003997429029    -2.552122531156     0.000723850073
    N            0.000726482861     1.643264088039     0.004172213359
    C            0.208933027493    -0.479572577046     1.196826722067
    H            0.011578856928    -3.626723963386    -0.002367222486
    C            0.209709171196    -1.864439437745     1.186491405362
    O            1.070555459868     2.168428208207     0.021492977933
    O           -1.049573135345     2.204880140745    -0.045416265839
    H            0.382546582013     0.071597429458     2.101905816293
    H            0.377311189993    -2.402134706351     2.101337754744

  Mulliken Charges: (a.u.)
   Center  Symbol    Alpha    Beta     Spin     Total
       1     H     0.37640  0.37640  0.00000  0.24719
       2     C     3.08788  3.08788  0.00000 -0.17575
       3     C     3.10308  3.10308  0.00000 -0.20615
       4     C     2.89684  2.89684  0.00000  0.20633
       5     H     0.38857  0.38857  0.00000  0.22286
       6     C     3.09358  3.09358  0.00000 -0.18716
       7     N     3.25741  3.25741  0.00000  0.48517
       8     C     3.08878  3.08878  0.00000 -0.17756
       9     H     0.39022  0.39022  0.00000  0.21956
      10     C     3.10312  3.10312  0.00000 -0.20624
      11     O     4.22472  4.22472  0.00000 -0.44944
      12     O     4.22394  4.22394  0.00000 -0.44789
      13     H     0.37688  0.37688  0.00000  0.24624
      14     H     0.38858  0.38858  0.00000  0.22283

   Total alpha = 32.00000, Total beta = 32.00000, Total charge = -0.00000
