  ==> Input File <==

--------------------------------------------------------------------------
set {
	reference rhf
	basis cc-pvtz
}

set_num_threads( 4 )
memory 2 gb

molecule MOL {
0 1

H	 -2.362939	 -1.309000	 -0.383250
C	 -1.359344	 -1.272457	 0.020748
C	 -0.684082	 0.000127	 -0.464918
H	 -0.825835	 -2.151141	 -0.318537
H	 -1.416276	 -1.292399	 1.099455
C	 -1.359089	 1.272668	 0.021259
N	 0.742439	 -0.000109	 0.007333
H	 -0.596914	 0.000345	 -1.538146
H	 -2.362696	 1.309620	 -0.382686
H	 -0.825392	 2.151374	 -0.317674
H	 -1.415983	 1.292181	 1.099973
O	 1.005865	 0.676092	 0.943818
O	 1.514688	 -0.676615	 -0.586183

	symmetry c1
}
set optking {
	frozen_dihedral = ("
		12 7 3 8
	")
}

ee = optimize('scf')
oeprop('DIPOLE', 'QUADRUPOLE', 'MULLIKEN_CHARGES')
f=open( 'psi4out.xyz', 'w' )
f.write( "13  " )
f.write( str(ee) + "\n" )
f.write( MOL.save_string_xyz() )
f.close()
--------------------------------------------------------------------------

    Molecular point group: c1
  Charge       = 0
  Multiplicity = 1
  Basis Set: CC-PVTZ
  Basis Set:
  @DF-RHF Final Energy:  -321.86316652978257
    Total Energy =                       -321.8631665297823474
    Molecular point group: c1
  Basis Set: CC-PVTZ
  Basis Set:
  Basis Set: CC-PVTZ
  Basis Set:
  @DF-RHF Final Energy:  -321.86255133683750
    Total Energy =                       -321.8625513368377824
  Basis Set: CC-PVTZ
  Basis Set:
  Basis Set: CC-PVTZ
  Basis Set:
  @DF-RHF Final Energy:  -321.85851880998916
    Total Energy =                       -321.8585188099890502
  Basis Set: CC-PVTZ
  Basis Set:
  Basis Set: CC-PVTZ
  Basis Set:
  @DF-RHF Final Energy:  -321.86373658601173
    Total Energy =                       -321.8637365860118393
  Basis Set: CC-PVTZ
  Basis Set:
  Basis Set: CC-PVTZ
  Basis Set:
  @DF-RHF Final Energy:  -321.86382680269139
    Total Energy =                       -321.8638268026912215
  Basis Set: CC-PVTZ
  Basis Set:
  Basis Set: CC-PVTZ
  Basis Set:
  @DF-RHF Final Energy:  -321.86386747177841
    Total Energy =                       -321.8638674717782351
  Basis Set: CC-PVTZ
  Basis Set:
  Basis Set: CC-PVTZ
  Basis Set:
  @DF-RHF Final Energy:  -321.86387096640152
    Total Energy =                       -321.8638709664011799
  Basis Set: CC-PVTZ
  Basis Set:
  Charge       = 0
  Multiplicity = 1
  Basis Set: CC-PVTZ
  Basis Set:

    Orbital Energies (a.u.)
    -----------------------

    Doubly Occupied:

       1A    -20.590848     2A    -20.586534     3A    -15.833079
       4A    -11.305182     5A    -11.244749     6A    -11.238316
       7A     -1.634121     8A     -1.418274     9A     -1.141789
      10A     -0.971908    11A     -0.957496    12A     -0.815929
      13A     -0.757823    14A     -0.731020    15A     -0.725628
      16A     -0.646683    17A     -0.593580    18A     -0.587749
      19A     -0.571219    20A     -0.528404    21A     -0.521752
      22A     -0.484864    23A     -0.471444    24A     -0.451523

  @DF-RHF Final Energy:  -321.86387132056893

   => Energetics <=

    Nuclear Repulsion Energy =            257.3796566934946668
    One-Electron Energy =                -948.8672327352152251
    Two-Electron Energy =                 369.6237047211519098
    DFT Exchange-Correlation Energy =       0.0000000000000000
    Empirical Dispersion Energy =           0.0000000000000000
    PCM Polarization Energy =               0.0000000000000000
    EFP Energy =                            0.0000000000000000
    Total Energy =                       -321.8638713205686486
    Molecular point group: c1
  Basis Set: CC-PVTZ
  Basis Set:

  -Total Gradient:
     Atom            X                  Y                   Z
    ------   -----------------  -----------------  -----------------
       1        0.000002023941     0.000008632001    -0.000000016717
       2       -0.000001416415    -0.000000968598     0.000003036394
       3        0.000036030750    -0.000870639321    -0.000259400799
       4        0.000007980358     0.000000690549    -0.000002722257
       5        0.000000452377     0.000004632633     0.000001011930
       6        0.000007738133    -0.000013259678    -0.000004838307
       7       -0.000328197354    -0.000888480065     0.000859987441
       8        0.000017017188     0.000997363447    -0.000008436459
       9        0.000006153228    -0.000004435469     0.000002420646
      10       -0.000004156185    -0.000004392169     0.000000434724
      11       -0.000003680155     0.000006928110     0.000011779130
      12        0.000253413641     0.000745764940    -0.000632205589
      13        0.000006640498     0.000018163621     0.000028949866

  **** Optimization is complete! (in 8 steps) ****
    Final optimized geometry and variables:
    Molecular point group: c1

    Geometry (in Angstrom), charge = 0, multiplicity = 1:

    H           -2.365050842753    -1.282685899632    -0.348729321874
    C           -1.348849144266    -1.254134854041     0.021788683495
    C           -0.684395925316     0.030709536284    -0.456381956920
    H           -0.822172722492    -2.122830672152    -0.344979309246
    H           -1.379497679981    -1.288492030347     1.103798335617
    C           -1.385286854262     1.289728767060     0.013229314948
    N            0.746779936996    -0.001841480707     0.011308719659
    H           -0.592842347421     0.022970767371    -1.531134272508
    H           -2.374806096958     1.309962492490    -0.426822168435
    H           -0.854154638279     2.177609676328    -0.299992605660
    H           -1.482588681495     1.311239448884     1.088588660871
    O            1.055276369808     0.663463000654     0.940669384918
    O            1.477623874549    -0.719645145997    -0.586605434168

  Mulliken Charges: (a.u.)
   Center  Symbol    Alpha    Beta     Spin     Total
       1     H     0.44866  0.44866  0.00000  0.10268
       2     C     3.14336  3.14336  0.00000 -0.28672
       3     C     3.00744  3.00744  0.00000 -0.01488
       4     H     0.43411  0.43411  0.00000  0.13178
       5     H     0.44441  0.44441  0.00000  0.11118
       6     C     3.14325  3.14325  0.00000 -0.28650
       7     N     3.27434  3.27434  0.00000  0.45132
       8     H     0.42715  0.42715  0.00000  0.14571
       9     H     0.45020  0.45020  0.00000  0.09961
      10     H     0.43958  0.43958  0.00000  0.12084
      11     H     0.44034  0.44034  0.00000  0.11932
      12     O     4.17156  4.17156  0.00000 -0.34311
      13     O     4.17562  4.17562  0.00000 -0.35123

   Total alpha = 24.00000, Total beta = 24.00000, Total charge =  0.00000
