  ==> Input File <==

--------------------------------------------------------------------------
set {
	reference rhf
	basis 6-31G*
}

set_num_threads( 4 )
memory 2 gb

molecule MOL {
0 1

O	 -2.493623	 -1.029385	 0.037196
C	 -1.949626	 0.014739	 0.198886
C	 -2.649982	 1.336567	 0.362033
O	 -0.632575	 0.154573	 0.251549
H	 -2.334289	 2.017302	 -0.420198
H	 -3.718544	 1.188945	 0.314921
H	 -2.377813	 1.780199	 1.312755
C	 0.160891	 -1.019931	 0.106212
C	 1.589627	 -0.672828	 0.480843
H	 0.089836	 -1.367806	 -0.916050
H	 -0.238459	 -1.792301	 0.749618
C	 2.246377	 0.346236	 -0.452210
H	 2.163194	 -1.597435	 0.473358
H	 1.604769	 -0.303424	 1.502885
C	 3.691736	 0.652107	 -0.061850
H	 2.219579	 -0.032311	 -1.472055
H	 1.666466	 1.263317	 -0.447249
H	 4.134505	 1.377213	 -0.737283
H	 4.305508	 -0.243868	 -0.089969
H	 3.748266	 1.059562	 0.943567

	symmetry c1
}
set optking {
	frozen_dihedral = ("
		2 4 8 10
	")
}

ee = optimize('scf')
oeprop('DIPOLE', 'QUADRUPOLE', 'MULLIKEN_CHARGES')
f=open( 'psi4out.xyz', 'w' )
f.write( "20  " )
f.write( str(ee) + "\n" )
f.write( MOL.save_string_xyz() )
f.close()
--------------------------------------------------------------------------

    Molecular point group: c1
  Charge       = 0
  Multiplicity = 1
  Basis Set: 6-31G*
  Basis Set:
  @DF-RHF Final Energy:  -383.94542440376256
    Total Energy =                       -383.9454244037630133
    Molecular point group: c1
  Basis Set: 6-31G*
  Basis Set:
  Basis Set: 6-31G*
  Basis Set:
  @DF-RHF Final Energy:  -383.94538243063840
    Total Energy =                       -383.9453824306382330
  Basis Set: 6-31G*
  Basis Set:
  Basis Set: 6-31G*
  Basis Set:
  @DF-RHF Final Energy:  -383.94525478667657
    Total Energy =                       -383.9452547866766281
  Basis Set: 6-31G*
  Basis Set:
  Basis Set: 6-31G*
  Basis Set:
  @DF-RHF Final Energy:  -383.94545787646723
    Total Energy =                       -383.9454578764671169
  Basis Set: 6-31G*
  Basis Set:
  Basis Set: 6-31G*
  Basis Set:
  @DF-RHF Final Energy:  -383.94546086225620
    Total Energy =                       -383.9454608622563683
  Basis Set: 6-31G*
  Basis Set:
  Charge       = 0
  Multiplicity = 1
  Basis Set: 6-31G*
  Basis Set:

    Orbital Energies (a.u.)
    -----------------------

    Doubly Occupied:

       1A    -20.601764     2A    -20.544065     3A    -11.374715
       4A    -11.282332     5A    -11.233424     6A    -11.225475
       7A    -11.220456     8A    -11.213378     9A     -1.467798
      10A     -1.362324    11A     -1.086040    12A     -1.028218
      13A     -0.981380    14A     -0.880196    15A     -0.812457
      16A     -0.773643    17A     -0.690291    18A     -0.684488
      19A     -0.666105    20A     -0.631191    21A     -0.600587
      22A     -0.592449    23A     -0.571935    24A     -0.552242
      25A     -0.544793    26A     -0.530392    27A     -0.512970
      28A     -0.484759    29A     -0.474811    30A     -0.468941
      31A     -0.449935    32A     -0.438549

  @DF-RHF Final Energy:  -383.94546062687886

   => Energetics <=

    Nuclear Repulsion Energy =            384.8029017318607998
    One-Electron Energy =               -1285.5325200655204299
    Two-Electron Energy =                 516.7841577067807748
    DFT Exchange-Correlation Energy =       0.0000000000000000
    Empirical Dispersion Energy =           0.0000000000000000
    PCM Polarization Energy =               0.0000000000000000
    EFP Energy =                            0.0000000000000000
    Total Energy =                       -383.9454606268787984
    Molecular point group: c1
  Basis Set: 6-31G*
  Basis Set:

  -Total Gradient:
     Atom            X                  Y                   Z
    ------   -----------------  -----------------  -----------------
       1        0.000011969042     0.000010485660    -0.000018640789
       2       -0.000036608264    -0.000145861592     0.000993847772
       3        0.000000871285     0.000005004563    -0.000019262911
       4        0.000238604799     0.000312431879    -0.001386383780
       5       -0.000003263051     0.000005715725    -0.000000587043
       6       -0.000000875825     0.000001824527    -0.000002899707
       7        0.000002857292    -0.000005860611    -0.000002706675
       8       -0.001071619678    -0.000814881756     0.000670973558
       9        0.000013730964    -0.000002087315     0.000009235665
      10        0.000847762293     0.000595618905    -0.000267177185
      11       -0.000000362008     0.000015894733    -0.000002522939
      12       -0.000018730903     0.000038203849     0.000019215116
      13        0.000008383803     0.000001174854     0.000017158846
      14       -0.000005386467     0.000012804832    -0.000002971674
      15        0.000009171259    -0.000030850312    -0.000020938112
      16       -0.000008076041     0.000004510362     0.000000416653
      17        0.000011356016     0.000000517259     0.000017730022
      18        0.000004336880    -0.000010484313    -0.000009025032
      19        0.000004999230    -0.000002341237     0.000013303622
      20       -0.000009120620     0.000008179992    -0.000008765408

  **** Optimization is complete! (in 6 steps) ****
    Final optimized geometry and variables:
    Molecular point group: c1

    Geometry (in Angstrom), charge = 0, multiplicity = 1:

    O           -2.483638766300    -1.000190793414    -0.105934071707
    C           -1.935664298999     0.039060924938     0.072849713892
    C           -2.631723564879     1.361182717882     0.252344006664
    O           -0.618562393474     0.173617494864     0.136735271291
    H           -2.309759409237     2.051506723939    -0.518846097378
    H           -3.700589464071     1.218343606965     0.197860325673
    H           -2.362201767901     1.790203054837     1.210498835077
    C            0.175869441372    -1.002080922505     0.005198811641
    C            1.605048403509    -0.649325518105     0.374666263817
    H            0.111417729470    -1.351890751373    -1.017866524063
    H           -0.221643131773    -1.770775397306     0.651869829033
    C            2.256422055139     0.370641973769    -0.561043871150
    H            2.181709968923    -1.572109749136     0.367024709277
    H            1.621531558864    -0.278407576610     1.396170394112
    C            3.703639633593     0.677033462708    -0.177937790014
    H            2.224920563159    -0.008017281525    -1.580714576860
    H            1.675760315923     1.287213254323    -0.553614359277
    H            4.144064095304     1.399322096549    -0.857923106339
    H            4.316932752610    -0.219357531413    -0.205032006394
    H            3.764628082726     1.088348094954     0.825648931656

  Mulliken Charges: (a.u.)
   Center  Symbol    Alpha    Beta     Spin     Total
       1     O     4.28328  4.28328  0.00000 -0.56655
       2     C     2.61924  2.61924  0.00000  0.76151
       3     C     3.28171  3.28171  0.00000 -0.56341
       4     O     4.30876  4.30876  0.00000 -0.61752
       5     H     0.40059  0.40059  0.00000  0.19881
       6     H     0.39687  0.39687  0.00000  0.20626
       7     H     0.40079  0.40079  0.00000  0.19842
       8     C     3.00318  3.00318  0.00000 -0.00636
       9     C     3.16443  3.16443  0.00000 -0.32887
      10     H     0.41345  0.41345  0.00000  0.17311
      11     H     0.40461  0.40461  0.00000  0.19079
      12     C     3.15498  3.15498  0.00000 -0.30997
      13     H     0.41841  0.41841  0.00000  0.16318
      14     H     0.41501  0.41501  0.00000  0.16998
      15     C     3.24038  3.24038  0.00000 -0.48076
      16     H     0.42301  0.42301  0.00000  0.15399
      17     H     0.41139  0.41139  0.00000  0.17722
      18     H     0.41758  0.41758  0.00000  0.16485
      19     H     0.42171  0.42171  0.00000  0.15658
      20     H     0.42063  0.42063  0.00000  0.15875

   Total alpha = 32.00000, Total beta = 32.00000, Total charge =  0.00000
