  ==> Input File <==

--------------------------------------------------------------------------
set {
	reference rhf
	basis 6-31G*
}

set_num_threads( 1 )
memory 2 gb

molecule MOL {
0 1

O	 0.749854	 1.307668	 -0.000040
C	 0.576249	 0.131685	 -0.000108
C	 -0.766779	 -0.556801	 -0.000461
O	 1.568443	 -0.749345	 -0.000005
C	 -1.945214	 0.412366	 0.000161
H	 -0.796911	 -1.211249	 -0.867467
H	 -0.796854	 -1.212390	 0.865687
C	 -3.287791	 -0.317055	 0.000105
H	 -1.876087	 1.060580	 -0.866812
H	 -1.875822	 1.059691	 0.867761
H	 -3.394745	 -0.949193	 -0.877058
H	 -4.111778	 0.388953	 0.000015
H	 -3.394954	 -0.949187	 0.877259
C	 2.335717	 -0.853315	 -1.185622
H	 1.711894	 -1.147758	 -2.017302
H	 3.079783	 -1.609623	 -0.990098
H	 2.811181	 0.089578	 -1.414524

	symmetry c1
}
set optking {
	frozen_dihedral = ("
		1 2 3 6,
		9 5 3 6
	")
}

ee = energy('scf')
oeprop('DIPOLE', 'QUADRUPOLE', 'MULLIKEN_CHARGES')
f=open( 'psi4out.xyz', 'w' )
f.write( "17  " )
f.write( str(ee) + "\n" )
f.write( MOL.save_string_xyz() )
f.close()
--------------------------------------------------------------------------

    Molecular point group: c1

    Geometry (in Angstrom), charge = 0, multiplicity = 1:

       Center              X                  Y                   Z               Mass
    ------------   -----------------  -----------------  -----------------  -----------------
           O          0.834942191427     1.403513539076     0.183062938365    15.994914619560
           C          0.661337191427     0.227530539076     0.182994938365    12.000000000000
           C         -0.681690808573    -0.460955460924     0.182641938365    12.000000000000
           O          1.653531191427    -0.653499460924     0.183097938365    15.994914619560
           C         -1.860125808573     0.508211539076     0.183263938365    12.000000000000
           H         -0.711822808573    -1.115403460924    -0.684364061635     1.007825032070
           H         -0.711765808573    -1.116544460924     1.048789938365     1.007825032070
           C         -3.202702808573    -0.221209460924     0.183207938365    12.000000000000
           H         -1.790998808573     1.156425539076    -0.683709061635     1.007825032070
           H         -1.790733808573     1.155536539076     1.050863938365     1.007825032070
           H         -3.309656808573    -0.853347460924    -0.693955061635     1.007825032070
           H         -4.026689808573     0.484798539076     0.183117938365     1.007825032070
           H         -3.309865808573    -0.853341460924     1.060361938365     1.007825032070
           C          2.420805191427    -0.757469460924    -1.002519061635    12.000000000000
           H          1.796982191427    -1.051912460924    -1.834199061635     1.007825032070
           H          3.164871191427    -1.513777460924    -0.806995061635     1.007825032070
           H          2.896269191427     0.185423539076    -1.231421061635     1.007825032070

  Charge       = 0
  Multiplicity = 1
  Basis Set: 6-31G*
  Basis Set:

    Orbital Energies (a.u.)
    -----------------------

    Doubly Occupied:

       1A    -20.588689     2A    -20.553740     3A    -11.373820
       4A    -11.292236     5A    -11.236990     6A    -11.222197
       7A    -11.215265     8A     -1.465070     9A     -1.366101
      10A     -1.080010    11A     -0.997697    12A     -0.949432
      13A     -0.831391    14A     -0.768343    15A     -0.699296
      16A     -0.681205    17A     -0.674454    18A     -0.634016
      19A     -0.613897    20A     -0.577292    21A     -0.566061
      22A     -0.538931    23A     -0.518134    24A     -0.493318
      25A     -0.490063    26A     -0.479983    27A     -0.454054
      28A     -0.434452

  @DF-RHF Final Energy:  -344.88902079133868

   => Energetics <=

    Nuclear Repulsion Energy =            313.0650682651810257
    One-Electron Energy =               -1090.3158243452187435
    Two-Electron Energy =                 432.3617352886989806
    DFT Exchange-Correlation Energy =       0.0000000000000000
    Empirical Dispersion Energy =           0.0000000000000000
    PCM Polarization Energy =               0.0000000000000000
    EFP Energy =                            0.0000000000000000
    Total Energy =                       -344.8890207913387371

  Mulliken Charges: (a.u.)
   Center  Symbol    Alpha    Beta     Spin     Total
       1     O     4.26431  4.26431  0.00000 -0.52861
       2     C     2.61200  2.61200  0.00000  0.77599
       3     C     3.20846  3.20846  0.00000 -0.41692
       4     O     4.31107  4.31107  0.00000 -0.62214
       5     C     3.15300  3.15300  0.00000 -0.30600
       6     H     0.40736  0.40736  0.00000  0.18529
       7     H     0.39911  0.39911  0.00000  0.20178
       8     C     3.24249  3.24249  0.00000 -0.48498
       9     H     0.41224  0.41224  0.00000  0.17553
      10     H     0.40983  0.40983  0.00000  0.18035
      11     H     0.42238  0.42238  0.00000  0.15524
      12     H     0.41513  0.41513  0.00000  0.16975
      13     H     0.42102  0.42102  0.00000  0.15795
      14     C     3.09385  3.09385  0.00000 -0.18770
      15     H     0.42029  0.42029  0.00000  0.15942
      16     H     0.40303  0.40303  0.00000  0.19394
      17     H     0.40444  0.40444  0.00000  0.19112

   Total alpha = 28.00000, Total beta = 28.00000, Total charge = -0.00000
