                              Psi4 1.0.54 Driver

  ==> Input File <==

--------------------------------------------------------------------------
set {
	reference rhf
	basis cc-pvtz
}

set_num_threads( 4 )
memory 2 gb

molecule MOL {
0 1

H	 -2.342895	 -0.556142	 3.317241
C	 -2.360849	 -0.606499	 2.247919
C	 -1.234037	 -0.721195	 1.588764
H	 -3.305885	 -0.563234	 1.743108
O	 -1.189946	 -0.765863	 0.237511
H	 -0.282096	 -0.773955	 2.084902
C	 0.026572	 -0.995256	 -0.379403
C	 1.057223	 0.049888	 -0.004615
H	 -0.054361	 -1.010670	 -1.459674
H	 0.397526	 -1.952058	 -0.044198
F	 2.203233	 -0.234060	 -0.590375
F	 0.698147	 1.254887	 -0.392621
F	 1.266440	 0.094219	 1.288722

	symmetry c1
}
set optking {
	frozen_dihedral = ("
		3 5 7 9
	")
}

ee,wfn = optimize('scf', return_wfn=True)
oeprop( wfn, 'DIPOLE', 'QUADRUPOLE', 'MULLIKEN_CHARGES')
f=open( 'psi4out.xyz', 'w' )
f.write( "13  " )
f.write( str(ee) + "\n" )
f.write( MOL.save_string_xyz() )
f.close()
--------------------------------------------------------------------------

    Molecular point group: c1
  Charge       = 0
  Multiplicity = 1
  Basis Set: CC-PVTZ
  Basis Set:
  @DF-RHF Final Energy:  -527.73165201537427
    Total Energy =                       -527.7316520153742658
    Molecular point group: c1
  Basis Set: CC-PVTZ
  Basis Set:
  Basis Set: CC-PVTZ
  Basis Set:
  @DF-RHF Final Energy:  -527.73768814276877
    Total Energy =                       -527.7376881427687749
  Basis Set: CC-PVTZ
  Basis Set:
  Basis Set: CC-PVTZ
  Basis Set:
  @DF-RHF Final Energy:  -527.73944962812732
    Total Energy =                       -527.7394496281274314
  Basis Set: CC-PVTZ
  Basis Set:
  Basis Set: CC-PVTZ
  Basis Set:
  @DF-RHF Final Energy:  -527.73980537700800
    Total Energy =                       -527.7398053770085653
  Basis Set: CC-PVTZ
  Basis Set:
  @DF-RHF Final Energy:  -527.73993210033063
    Total Energy =                       -527.7399321003304067
  Basis Set: CC-PVTZ
  Basis Set:
  @DF-RHF Final Energy:  -527.73996603759792
    Total Energy =                       -527.7399660375979238
  Basis Set: CC-PVTZ
  Basis Set:
  Basis Set: CC-PVTZ
  Basis Set:
  @DF-RHF Final Energy:  -527.73997713211691
    Total Energy =                       -527.7399771321170192
  Basis Set: CC-PVTZ
  Basis Set:
  Basis Set: CC-PVTZ
  Basis Set:
  @DF-RHF Final Energy:  -527.73997896597530
    Total Energy =                       -527.7399789659755243
  Basis Set: CC-PVTZ
  Basis Set:
  Charge       = 0
  Multiplicity = 1
  Basis Set: CC-PVTZ
  Basis Set:

    Orbital Energies (a.u.)
    -----------------------

    Doubly Occupied:

       1A    -26.342118     2A    -26.341808     3A    -26.339274
       4A    -20.602055     5A    -11.499267     6A    -11.319680
       7A    -11.295882     8A    -11.214681     9A     -1.751631
      10A     -1.647516    11A     -1.646733    12A     -1.441458
      13A     -1.086054    14A     -1.021744    15A     -0.933093
      16A     -0.843960    17A     -0.839864    18A     -0.833820
      19A     -0.787892    20A     -0.727302    21A     -0.719477
      22A     -0.700979    23A     -0.682528    24A     -0.669464
      25A     -0.662721    26A     -0.651896    27A     -0.644157
      28A     -0.593366    29A     -0.565976    30A     -0.525357
      31A     -0.508119    32A     -0.359149

  @DF-RHF Final Energy:  -527.73997971408380

   => Energetics <=

    Nuclear Repulsion Energy =            416.8380942021044575
    One-Electron Energy =               -1557.5581050701257482
    Two-Electron Energy =                 612.9800311539371478
    DFT Exchange-Correlation Energy =       0.0000000000000000
    Empirical Dispersion Energy =           0.0000000000000000
    PCM Polarization Energy =               0.0000000000000000
    EFP Energy =                            0.0000000000000000
    Total Energy =                       -527.7399797140841429
    Molecular point group: c1
  Basis Set: CC-PVTZ
  Basis Set:

  -Total Gradient:
     Atom            X                  Y                   Z
    ------   -----------------  -----------------  -----------------
       1       -0.000004217072    -0.000000005742     0.000000331621
       2       -0.000026472715     0.000006752038    -0.000040943003
       3        0.000207875331     0.003763262177    -0.000128796633
       4        0.000031974208    -0.000013199952     0.000025398860
       5       -0.000234148910    -0.004692053130     0.000258244194
       6       -0.000066412592     0.000027652402    -0.000042099908
       7       -0.000150621375    -0.003440488074     0.000220917158
       8        0.000017505144     0.000014348548    -0.000056293512
       9        0.000213672905     0.004349154052    -0.000251665387
      10       -0.000036102392    -0.000009193185    -0.000014823864
      11       -0.000033405488     0.000021942771     0.000005939720
      12        0.000031587199    -0.000043099686    -0.000018672766
      13        0.000048765756     0.000014927783     0.000042463519

  **** Optimization is complete! (in 9 steps) ****
    Final optimized geometry and variables:
    Molecular point group: c1

    Geometry (in Angstrom), charge = 0, multiplicity = 1:

    H           -2.689445810333    -0.245761406227     2.730662948556
    C           -2.562579298348    -0.251870040544     1.667377472722
    C           -1.472587141738    -0.760656938575     1.148677754473
    H           -3.339132284809     0.156536628485     1.050937513417
    O           -1.289485292206    -0.849505748315    -0.191227594550
    H           -0.683128182256    -1.168613675053     1.752828930825
    C           -0.001892750141    -0.940919459336    -0.690518764490
    C            0.857220516077     0.285069884362    -0.431674597092
    H           -0.089705137860    -1.000907990897    -1.764136115007
    H            0.528612895840    -1.807977047265    -0.313015207398
    F            1.991920272795     0.153936233987    -1.089436291838
    F            0.276268565102     1.385820556212    -0.842838869894
    F            1.158686244350     0.444980340093     0.839972588872

  Mulliken Charges: (a.u.)
   Center  Symbol    Alpha    Beta     Spin     Total
       1     H     0.42535  0.42535  0.00000  0.14930
       2     C     3.19101  3.19101  0.00000 -0.38203
       3     C     2.96451  2.96451  0.00000  0.07097
       4     H     0.42410  0.42410  0.00000  0.15180
       5     O     4.14557  4.14557  0.00000 -0.29113
       6     H     0.43177  0.43177  0.00000  0.13645
       7     C     3.02050  3.02050  0.00000 -0.04099
       8     C     2.67857  2.67857  0.00000  0.64286
       9     H     0.43661  0.43661  0.00000  0.12677
      10     H     0.45198  0.45198  0.00000  0.09603
      11     F     4.61135  4.61135  0.00000 -0.22271
      12     F     4.60711  4.60711  0.00000 -0.21423
      13     F     4.61155  4.61155  0.00000 -0.22309

   Total alpha = 32.00000, Total beta = 32.00000, Total charge = -0.00000

*** Psi4 exiting successfully. Buy a developer a beer!
