                              Psi4 1.0.54 Driver

  ==> Input File <==

--------------------------------------------------------------------------
set {
	reference rhf
	basis cc-pvtz
}

set_num_threads( 4 )
memory 2 gb

molecule MOL {
0 1

H	 2.517698	 2.286503	 1.729224
O	 1.584475	 2.216501	 1.816514
C	 1.069906	 1.365311	 0.907580
C	 1.861810	 0.702157	 -0.017512
C	 -0.294986	 1.162837	 0.917360
H	 2.924892	 0.861056	 -0.023719
C	 1.288106	 -0.160623	 -0.929340
H	 -0.909295	 1.673520	 1.630572
C	 -0.861704	 0.296439	 0.000000
H	 1.910720	 -0.668174	 -1.640372
C	 -0.076488	 -0.368693	 -0.926206
C	 -2.330689	 0.069587	 0.000000
H	 -0.525448	 -1.038999	 -1.634028
O	 -2.848621	 -0.993976	 0.000000
H	 -2.934306	 0.982410	 0.000000

	symmetry c1
}
set optking {
	frozen_dihedral = ("
		11 9 12 14
	")
}

ee,wfn = optimize('scf', return_wfn=True)
oeprop( wfn, 'DIPOLE', 'QUADRUPOLE', 'MULLIKEN_CHARGES')
f=open( 'psi4out.xyz', 'w' )
f.write( "15  " )
f.write( str(ee) + "\n" )
f.write( MOL.save_string_xyz() )
f.close()
--------------------------------------------------------------------------

    Molecular point group: c1
  Charge       = 0
  Multiplicity = 1
  Basis Set: CC-PVTZ
  Basis Set:
  @DF-RHF Final Energy:  -418.43211278157116
    Total Energy =                       -418.4321127815712771
    Molecular point group: c1
  Basis Set: CC-PVTZ
  Basis Set:
  Basis Set: CC-PVTZ
  Basis Set:
  @DF-RHF Final Energy:  -418.43121538285914
    Total Energy =                       -418.4312153828591363
  Basis Set: CC-PVTZ
  Basis Set:
  Basis Set: CC-PVTZ
  Basis Set:
  @DF-RHF Final Energy:  -418.43233704850638
    Total Energy =                       -418.4323370485064970
  Basis Set: CC-PVTZ
  Basis Set:
  Basis Set: CC-PVTZ
  Basis Set:
  @DF-RHF Final Energy:  -418.43278789517103
    Total Energy =                       -418.4327878951708044
  Basis Set: CC-PVTZ
  Basis Set:
  Charge       = 0
  Multiplicity = 1
  Basis Set: CC-PVTZ
  Basis Set:

    Orbital Energies (a.u.)
    -----------------------

    Doubly Occupied:

       1A    -20.597847     2A    -20.559713     3A    -11.330535
       4A    -11.313199     5A    -11.254036     6A    -11.249128
       7A    -11.242802     8A    -11.240962     9A    -11.236584
      10A     -1.429448    11A     -1.414524    12A     -1.173314
      13A     -1.053034    14A     -1.027730    15A     -0.903254
      16A     -0.847834    17A     -0.819340    18A     -0.742548
      19A     -0.704110    20A     -0.677513    21A     -0.670378
      22A     -0.637806    23A     -0.616067    24A     -0.609390
      25A     -0.586468    26A     -0.544607    27A     -0.542810
      28A     -0.517742    29A     -0.495125    30A     -0.427264
      31A     -0.358960    32A     -0.329085

  @DF-RHF Final Energy:  -418.43279263875036

   => Energetics <=

    Nuclear Repulsion Energy =            402.9377550062137061
    One-Electron Energy =               -1368.4347698906699407
    Two-Electron Energy =                 547.0642222457057642
    DFT Exchange-Correlation Energy =       0.0000000000000000
    Empirical Dispersion Energy =           0.0000000000000000
    PCM Polarization Energy =               0.0000000000000000
    EFP Energy =                            0.0000000000000000
    Total Energy =                       -418.4327926387504704
    Molecular point group: c1
  Basis Set: CC-PVTZ
  Basis Set:

  -Total Gradient:
     Atom            X                  Y                   Z
    ------   -----------------  -----------------  -----------------
       1       -0.000002412091    -0.000006665798     0.000002079762
       2        0.000078234553     0.000004650060     0.000003281511
       3       -0.000450798631     0.000059384955     0.000115720963
       4        0.000026639040    -0.000305025881    -0.000289752867
       5        0.000378735392     0.000212433981     0.000098015007
       6        0.000005967959     0.000033430538     0.000025942833
       7        0.000358517007     0.000233213756     0.000139282668
       8       -0.000024237257    -0.000044526062    -0.000004840046
       9        0.000731234991    -0.006507306200     0.007225142117
      10       -0.000015304386    -0.000009203604     0.000001098253
      11       -0.000882325868     0.004247525642    -0.003004424101
      12       -0.000098003132     0.002585463965    -0.010733595014
      13        0.000004171174    -0.000013425981     0.000032853767
      14       -0.000078882789    -0.000493019136     0.006398619364
      15       -0.000031535954     0.000003069763    -0.000009424215

  **** Optimization is complete! (in 5 steps) ****
    Final optimized geometry and variables:
    Molecular point group: c1

    Geometry (in Angstrom), charge = 0, multiplicity = 1:

    H            2.588719104801     1.761451144254     1.541055564732
    O            1.654782554033     1.687981409431     1.620222565473
    C            1.152128827723     0.852218128542     0.690932133496
    C            1.944982429665     0.219557670135    -0.249179345543
    C           -0.215648863037     0.646509352168     0.688804019388
    H            3.006135945959     0.390054866148    -0.258842671961
    C            1.368619650288    -0.623682169412    -1.180858191039
    H           -0.820919329378     1.164670212086     1.408071278993
    C           -0.775117873041    -0.228741656670    -0.221231296424
    H            1.990314377492    -1.099710685766    -1.914494326956
    C            0.009541717288    -0.856329984239    -1.174961311110
    C           -2.256644740988    -0.411814526290    -0.229050782514
    H           -0.440060373312    -1.520213255184    -1.885839494703
    O           -2.795511256235    -1.462104814333    -0.285237796133
    H           -2.839929750572     0.508839214902    -0.126702841274

  Mulliken Charges: (a.u.)
   Center  Symbol    Alpha    Beta     Spin     Total
       1     H     0.38620  0.38620  0.00000  0.22759
       2     O     4.17184  4.17184  0.00000 -0.34368
       3     C     2.83887  2.83887  0.00000  0.32226
       4     C     3.13550  3.13550  0.00000 -0.27100
       5     C     3.13388  3.13388  0.00000 -0.26777
       6     H     0.43209  0.43209  0.00000  0.13582
       7     C     3.05569  3.05569  0.00000 -0.11138
       8     H     0.41926  0.41926  0.00000  0.16149
       9     C     2.93438  2.93438  0.00000  0.13123
      10     H     0.41924  0.41924  0.00000  0.16151
      11     C     3.11494  3.11494  0.00000 -0.22989
      12     C     2.92263  2.92263  0.00000  0.15474
      13     H     0.41503  0.41503  0.00000  0.16993
      14     O     4.16241  4.16241  0.00000 -0.32481
      15     H     0.45803  0.45803  0.00000  0.08395

   Total alpha = 32.00000, Total beta = 32.00000, Total charge =  0.00000

*** Psi4 exiting successfully. Buy a developer a beer!
