  ==> Input File <==

--------------------------------------------------------------------------
set {
	reference rhf
	basis 6-31G*
}

set_num_threads( 4 )
memory 2 gb

molecule MOL {
0 1

H	 -2.172150	 0.880146	 0.502514
C	 -2.018062	 -0.000025	 -0.114509
O	 -0.774054	 0.001095	 -0.743181
H	 -2.760490	 0.003458	 -0.901350
H	 -2.173624	 -0.884374	 0.496163
C	 0.220870	 0.919770	 -0.327615
C	 1.406663	 0.603384	 -1.236355
C	 -0.235258	 2.365600	 -0.548319
C	 0.608703	 0.689871	 1.136573
H	 1.127564	 0.739365	 -2.275126
H	 1.714666	 -0.427478	 -1.102819
H	 2.250832	 1.248924	 -1.016544
H	 -0.575583	 2.500136	 -1.569647
H	 0.587077	 3.050732	 -0.369550
H	 -1.042071	 2.646710	 0.119951
H	 0.861650	 -0.352600	 1.298815
H	 1.471397	 1.294702	 1.396329
H	 -0.191339	 0.957019	 1.818626

	symmetry c1
}
set optking {
	frozen_dihedral = ("
		6 3 2 5
	")
}

ee = optimize('scf')
oeprop('DIPOLE', 'QUADRUPOLE', 'MULLIKEN_CHARGES')
f=open( 'psi4out.xyz', 'w' )
f.write( "18  " )
f.write( str(ee) + "\n" )
f.write( MOL.save_string_xyz() )
f.close()
--------------------------------------------------------------------------

    Molecular point group: c1
  Charge       = 0
  Multiplicity = 1
  Basis Set: 6-31G*
  Basis Set:
  @DF-RHF Final Energy:  -271.17282763942887
    Total Energy =                       -271.1728276394288173
    Molecular point group: c1
  Basis Set: 6-31G*
  Basis Set:
  Basis Set: 6-31G*
  Basis Set:
  @DF-RHF Final Energy:  -271.17227677414940
    Total Energy =                       -271.1722767741492248
  Basis Set: 6-31G*
  Basis Set:
  Basis Set: 6-31G*
  Basis Set:
  @DF-RHF Final Energy:  -271.17296602319226
    Total Energy =                       -271.1729660231922026
  Basis Set: 6-31G*
  Basis Set:
  Basis Set: 6-31G*
  Basis Set:
  @DF-RHF Final Energy:  -271.17336426120823
    Total Energy =                       -271.1733642612084623
  Basis Set: 6-31G*
  Basis Set:
  Basis Set: 6-31G*
  Basis Set:
  @DF-RHF Final Energy:  -271.17327887001920
    Total Energy =                       -271.1732788700191463
  Basis Set: 6-31G*
  Basis Set:
  Basis Set: 6-31G*
  Basis Set:
  @DF-RHF Final Energy:  -271.17337537738655
    Total Energy =                       -271.1733753773865487
  Basis Set: 6-31G*
  Basis Set:
  Charge       = 0
  Multiplicity = 1
  Basis Set: 6-31G*
  Basis Set:

    Orbital Energies (a.u.)
    -----------------------

    Doubly Occupied:

       1A    -20.544457     2A    -11.281953     3A    -11.260946
       4A    -11.208939     5A    -11.208355     6A    -11.203189
       7A     -1.367768     8A     -1.072569     9A     -0.945593
      10A     -0.939908    11A     -0.912846    12A     -0.752609
      13A     -0.654996    14A     -0.643190    15A     -0.638532
      16A     -0.589934    17A     -0.571106    18A     -0.552066
      19A     -0.538618    20A     -0.523740    21A     -0.514918
      22A     -0.490120    23A     -0.486982    24A     -0.437767
      25A     -0.400959

  @DF-RHF Final Energy:  -271.17337574543626

   => Energetics <=

    Nuclear Repulsion Energy =            272.1264082725291473
    One-Electron Energy =                -907.1154505552909768
    Two-Electron Energy =                 363.8156665373256828
    DFT Exchange-Correlation Energy =       0.0000000000000000
    Empirical Dispersion Energy =           0.0000000000000000
    PCM Polarization Energy =               0.0000000000000000
    EFP Energy =                            0.0000000000000000
    Total Energy =                       -271.1733757454361466
    Molecular point group: c1
  Basis Set: 6-31G*
  Basis Set:

  -Total Gradient:
     Atom            X                  Y                   Z
    ------   -----------------  -----------------  -----------------
       1       -0.000033534838    -0.000051727727    -0.000021933683
       2        0.000475406473     0.001080196801     0.000954572644
       3        0.000410550133    -0.001320588358     0.000749685337
       4       -0.000006917164     0.000002674920     0.000003460607
       5       -0.000526674584    -0.000570057582    -0.001011445333
       6       -0.000429060767     0.000726985177    -0.000678543871
       7       -0.000014899564     0.000023183185     0.000026775330
       8        0.000025984146     0.000057472787     0.000012794795
       9        0.000067341383     0.000013900781    -0.000022675243
      10       -0.000012018440     0.000023823266     0.000008378824
      11       -0.000009474670    -0.000000307168    -0.000012791231
      12        0.000010491615    -0.000012510197     0.000016402110
      13        0.000022110240    -0.000006459648    -0.000011734859
      14       -0.000015479637     0.000007215105     0.000006674155
      15        0.000021046584     0.000026070432    -0.000021095832
      16       -0.000030659848    -0.000002471719     0.000022501930
      17        0.000030440342    -0.000015695225     0.000013754518
      18        0.000015348598     0.000018295175    -0.000034780197

  **** Optimization is complete! (in 7 steps) ****
    Final optimized geometry and variables:
    Molecular point group: c1

    Geometry (in Angstrom), charge = 0, multiplicity = 1:

    H           -2.015714934261     0.064429484380     0.881218079299
    C           -1.865126905601    -0.769609490555     0.207554076648
    O           -0.631908572929    -0.735911541274    -0.449163308669
    H           -2.652020965782    -0.745600414149    -0.537868588241
    H           -1.962563746728    -1.691346028198     0.772924146817
    C            0.375038970146     0.166862822372    -0.029684958120
    C            1.562037050185    -0.165748983119    -0.930620929071
    C           -0.061771887768     1.617040652625    -0.260812035334
    C            0.749811358725    -0.071520075127     1.436413747234
    H            1.290882713093    -0.028543329391    -1.971244731762
    H            1.857587135887    -1.199637719643    -0.793080047962
    H            2.412044594690     0.470928885038    -0.706945456899
    H           -0.356487271972     1.756107987158    -1.295356369425
    H            0.754033412113     2.298806062026    -0.042642072009
    H           -0.897626622400     1.899258599756     0.370254328936
    H            1.018258985002    -1.111485059026     1.589040650938
    H            1.597589838611     0.544733017649     1.718037257530
    H           -0.066189412458     0.169896033078     2.109409126765

  Mulliken Charges: (a.u.)
   Center  Symbol    Alpha    Beta     Spin     Total
       1     H     0.42966  0.42966  0.00000  0.14068
       2     C     3.07672  3.07672  0.00000 -0.15344
       3     O     4.32191  4.32191  0.00000 -0.64383
       4     H     0.41849  0.41849  0.00000  0.16303
       5     H     0.42308  0.42308  0.00000  0.15385
       6     C     2.84405  2.84405  0.00000  0.31190
       7     C     3.23302  3.23302  0.00000 -0.46603
       8     C     3.24424  3.24424  0.00000 -0.48848
       9     C     3.24598  3.24598  0.00000 -0.49197
      10     H     0.41397  0.41397  0.00000  0.17207
      11     H     0.41425  0.41425  0.00000  0.17150
      12     H     0.42509  0.42509  0.00000  0.14981
      13     H     0.41347  0.41347  0.00000  0.17305
      14     H     0.42067  0.42067  0.00000  0.15867
      15     H     0.42104  0.42104  0.00000  0.15792
      16     H     0.41360  0.41360  0.00000  0.17281
      17     H     0.41983  0.41983  0.00000  0.16033
      18     H     0.42093  0.42093  0.00000  0.15814

   Total alpha = 25.00000, Total beta = 25.00000, Total charge =  0.00000
