  ==> Input File <==

--------------------------------------------------------------------------
set {
	reference rhf
	basis 6-31G*
}

set_num_threads( 4 )
memory 2 gb

molecule MOL {
0 1

H	 -0.821032	 -1.655889	 0.000000
O	 -1.037828	 -0.728600	 0.000000
C	 0.100509	 -0.036935	 0.000000
C	 0.330689	 0.660831	 -1.309978
O	 0.821731	 0.000023	 0.942176
H	 0.361935	 -0.068672	 -2.110955
H	 1.260050	 1.208389	 -1.269754
H	 -0.492024	 1.336766	 -1.512392

	symmetry c1
}
set optking {
	frozen_dihedral = ("
		4 3 2 1
	")
}

ee = optimize('scf')
oeprop('DIPOLE', 'QUADRUPOLE', 'MULLIKEN_CHARGES')
f=open( 'psi4out.xyz', 'w' )
f.write( "8  " )
f.write( str(ee) + "\n" )
f.write( MOL.save_string_xyz() )
f.close()
--------------------------------------------------------------------------

    Molecular point group: c1
  Charge       = 0
  Multiplicity = 1
  Basis Set: 6-31G*
  Basis Set:
  @DF-RHF Final Energy:  -227.79042987851514
    Total Energy =                       -227.7904298785151127
    Molecular point group: c1
  Basis Set: 6-31G*
  Basis Set:
  Basis Set: 6-31G*
  Basis Set:
  @DF-RHF Final Energy:  -227.79050008750863
    Total Energy =                       -227.7905000875086614
  Basis Set: 6-31G*
  Basis Set:
  Basis Set: 6-31G*
  Basis Set:
  @DF-RHF Final Energy:  -227.79146982898683
    Total Energy =                       -227.7914698289868625
  Basis Set: 6-31G*
  Basis Set:
  Basis Set: 6-31G*
  Basis Set:
  @DF-RHF Final Energy:  -227.79171072733453
    Total Energy =                       -227.7917107273344755
  Basis Set: 6-31G*
  Basis Set:
  @DF-RHF Final Energy:  -227.79174203215874
    Total Energy =                       -227.7917420321587656
  @DF-RHF Final Energy:  -227.79175397858438
    Total Energy =                       -227.7917539785843815
  @DF-RHF Final Energy:  -227.79175498033774
    Total Energy =                       -227.7917549803377710
  @DF-RHF Final Energy:  -227.79170256527601
    Total Energy =                       -227.7917025652760685
  @DF-RHF Final Energy:  -227.79175588698232
    Total Energy =                       -227.7917558869822301
  Basis Set: 6-31G*
  Basis Set:
  @DF-RHF Final Energy:  -227.79175841212805
    Total Energy =                       -227.7917584121279617
  Basis Set: 6-31G*
  Basis Set:
  Basis Set: 6-31G*
  Basis Set:
  @DF-RHF Final Energy:  -227.79158934335925
    Total Energy =                       -227.7915893433591918
  Basis Set: 6-31G*
  Basis Set:
  Basis Set: 6-31G*
  Basis Set:
  @DF-RHF Final Energy:  -227.79175694180736
    Total Energy =                       -227.7917569418073924
  Basis Set: 6-31G*
  Basis Set:
  Charge       = 0
  Multiplicity = 1
  Basis Set: 6-31G*
  Basis Set:

    Orbital Energies (a.u.)
    -----------------------

    Doubly Occupied:

       1A    -20.598170     2A    -20.562888     3A    -11.386654
       4A    -11.241619     5A     -1.464172     6A     -1.369045
       7A     -1.023433     8A     -0.826321     9A     -0.706366
      10A     -0.673405    11A     -0.658790    12A     -0.586501
      13A     -0.578374    14A     -0.520402    15A     -0.493293
      16A     -0.450086

  @DF-RHF Final Energy:  -227.79175780842641

   => Energetics <=

    Nuclear Repulsion Energy =            121.7968083554922316
    One-Electron Energy =                -552.8980954836722503
    Two-Electron Energy =                 203.3095293197535511
    DFT Exchange-Correlation Energy =       0.0000000000000000
    Empirical Dispersion Energy =           0.0000000000000000
    PCM Polarization Energy =               0.0000000000000000
    EFP Energy =                            0.0000000000000000
    Total Energy =                       -227.7917578084264960
    Molecular point group: c1
  Basis Set: 6-31G*
  Basis Set:

  -Total Gradient:
     Atom            X                  Y                   Z
    ------   -----------------  -----------------  -----------------
       1       -0.000380483696     0.000024363752    -0.009147019673
       2        0.001578415092    -0.002087754089     0.010567282086
       3       -0.004097430009     0.006663080694     0.000656144869
       4        0.002755927153    -0.004668534164    -0.002122257597
       5        0.000123485154     0.000064735144     0.000055181377
       6        0.000024046916    -0.000004196878     0.000003042614
       7       -0.000004287698     0.000029881099    -0.000008004596
       8        0.000000327088    -0.000021575559    -0.000004369083

  **** Optimization is complete! (in 13 steps) ****
    Final optimized geometry and variables:
    Molecular point group: c1

    Geometry (in Angstrom), charge = 0, multiplicity = 1:

    H           -0.957275648825    -1.586959400647     0.118035222253
    O           -1.108494455222    -0.649388494792     0.131675264347
    C            0.067501346148     0.029790825711     0.095090171359
    C            0.287598165067     0.742703458476    -1.210062539620
    O            0.839247124745    -0.000350626673     0.987932827964
    H            0.405157565174    -0.001878758732    -1.990949841237
    H            1.173517837825     1.357816501051    -1.155467908905
    H           -0.576358277221     1.344895919091    -1.464825400727

  Mulliken Charges: (a.u.)
   Center  Symbol    Alpha    Beta     Spin     Total
       1     H     0.26462  0.26462  0.00000  0.47075
       2     O     4.36301  4.36301  0.00000 -0.72603
       3     C     2.64395  2.64395  0.00000  0.71210
       4     C     3.28302  3.28302  0.00000 -0.56604
       5     O     4.24729  4.24729  0.00000 -0.49458
       6     H     0.40414  0.40414  0.00000  0.19173
       7     H     0.39631  0.39631  0.00000  0.20737
       8     H     0.39765  0.39765  0.00000  0.20470

   Total alpha = 16.00000, Total beta = 16.00000, Total charge =  0.00000
