  ==> Input File <==

--------------------------------------------------------------------------
set {
	reference rhf
	basis 6-31G*
}

set_num_threads( 1 )
memory 2 gb

molecule MOL {
0 1

O	 -2.042549	 -1.228399	 -0.269030
C	 -1.653912	 -0.146171	 0.050137
C	 -0.332303	 0.024011	 0.778412
C	 -2.438579	 1.106236	 -0.272369
C	 0.845713	 -0.001731	 -0.208243
H	 -0.323783	 0.953829	 1.340327
H	 -0.235459	 -0.796807	 1.480410
C	 0.395270	 0.103242	 -1.666020
H	 1.417426	 -0.918491	 -0.074913
H	 1.514816	 0.819646	 0.030049
C	 1.565260	 0.086911	 -2.648905
H	 -0.281657	 -0.716896	 -1.895298
H	 -0.176230	 1.018848	 -1.798763
H	 2.136948	 -0.832862	 -2.563794
H	 2.242858	 0.915417	 -2.464837
H	 1.216543	 0.165695	 -3.673705
H	 -3.277823	 0.863061	 -0.908988
H	 -1.806773	 1.843019	 -0.759671
H	 -2.802853	 1.554979	 0.648059

	symmetry c1
}
set optking {
	frozen_dihedral = ("
		11 8 5 9,
		5 3 2 4
	")
}

ee = energy('scf')
oeprop('DIPOLE', 'QUADRUPOLE', 'MULLIKEN_CHARGES')
f=open( 'psi4out.xyz', 'w' )
f.write( "19  " )
f.write( str(ee) + "\n" )
f.write( MOL.save_string_xyz() )
f.close()
--------------------------------------------------------------------------

    Molecular point group: c1

    Geometry (in Angstrom), charge = 0, multiplicity = 1:

       Center              X                  Y                   Z               Mass
    ------------   -----------------  -----------------  -----------------  -----------------
           O         -1.518295236287    -1.221698754671     0.356727823328    15.994914619560
           C         -1.129658236287    -0.139470754671     0.675894823328    12.000000000000
           C          0.191950763713     0.030711245329     1.404169823328    12.000000000000
           C         -1.914325236287     1.112936245329     0.353388823328    12.000000000000
           C          1.369966763713     0.004969245329     0.417514823328    12.000000000000
           H          0.200470763713     0.960529245329     1.966084823328     1.007825032070
           H          0.288794763713    -0.790106754671     2.106167823328     1.007825032070
           C          0.919523763713     0.109942245329    -1.040262176672    12.000000000000
           H          1.941679763713    -0.911790754671     0.550844823328     1.007825032070
           H          2.039069763713     0.826346245329     0.655806823328     1.007825032070
           C          2.089513763713     0.093611245329    -2.023147176672    12.000000000000
           H          0.242596763713    -0.710195754671    -1.269540176672     1.007825032070
           H          0.348023763713     1.025548245329    -1.173005176672     1.007825032070
           H          2.661201763713    -0.826161754671    -1.938036176672     1.007825032070
           H          2.767111763713     0.922117245329    -1.839079176672     1.007825032070
           H          1.740796763713     0.172395245329    -3.047947176672     1.007825032070
           H         -2.753569236287     0.869761245329    -0.283230176672     1.007825032070
           H         -1.282519236287     1.849719245329    -0.133913176672     1.007825032070
           H         -2.278599236287     1.561679245329     1.273816823328     1.007825032070

  Charge       = 0
  Multiplicity = 1
  Basis Set: 6-31G*
  Basis Set:

    Orbital Energies (a.u.)
    -----------------------

    Doubly Occupied:

       1A    -20.546289     2A    -11.324979     3A    -11.228680
       4A    -11.227837     5A    -11.227778     6A    -11.219332
       7A    -11.212100     8A     -1.394068     9A     -1.092987
      10A     -1.024116    11A     -0.985128    12A     -0.888129
      13A     -0.813994    14A     -0.724392    15A     -0.662723
      16A     -0.639732    17A     -0.623002    18A     -0.621143
      19A     -0.575589    20A     -0.573637    21A     -0.565835
      22A     -0.538046    23A     -0.512060    24A     -0.493114
      25A     -0.484209    26A     -0.464787    27A     -0.460546
      28A     -0.397004

  @DF-RHF Final Energy:  -309.05202763597669

   => Energetics <=

    Nuclear Repulsion Energy =            314.4474541048596734
    One-Electron Energy =               -1041.9565161866048584
    Two-Electron Energy =                 418.4570344457677038
    DFT Exchange-Correlation Energy =       0.0000000000000000
    Empirical Dispersion Energy =           0.0000000000000000
    PCM Polarization Energy =               0.0000000000000000
    EFP Energy =                            0.0000000000000000
    Total Energy =                       -309.0520276359775380

  Mulliken Charges: (a.u.)
   Center  Symbol    Alpha    Beta     Spin     Total
       1     O     4.26288  4.26288  0.00000 -0.52577
       2     C     2.74314  2.74314  0.00000  0.51372
       3     C     3.20078  3.20078  0.00000 -0.40155
       4     C     3.28777  3.28777  0.00000 -0.57554
       5     C     3.15171  3.15171  0.00000 -0.30343
       6     H     0.41480  0.41480  0.00000  0.17040
       7     H     0.39844  0.39844  0.00000  0.20311
       8     C     3.17851  3.17851  0.00000 -0.35703
       9     H     0.41179  0.41179  0.00000  0.17641
      10     H     0.41728  0.41728  0.00000  0.16544
      11     C     3.23717  3.23717  0.00000 -0.47433
      12     H     0.39910  0.39910  0.00000  0.20179
      13     H     0.42380  0.42380  0.00000  0.15240
      14     H     0.41942  0.41942  0.00000  0.16116
      15     H     0.42289  0.42289  0.00000  0.15421
      16     H     0.41742  0.41742  0.00000  0.16516
      17     H     0.39738  0.39738  0.00000  0.20524
      18     H     0.40869  0.40869  0.00000  0.18261
      19     H     0.40701  0.40701  0.00000  0.18598

   Total alpha = 28.00000, Total beta = 28.00000, Total charge = -0.00000
