  ==> Input File <==

--------------------------------------------------------------------------
set {
	reference rhf
	basis 6-31G*
}

set_num_threads( 1 )
memory 2 gb

molecule MOL {
0 1

H	 -4.123982	 0.078499	 1.365717
O	 -3.404447	 -0.479608	 1.107471
C	 -2.250435	 0.297033	 0.913369
C	 -1.119381	 -0.628640	 0.501553
H	 -2.418592	 1.046758	 0.141395
H	 -1.985576	 0.825050	 1.828458
C	 0.198102	 0.111031	 0.262842
H	 -1.420663	 -1.156956	 -0.398914
H	 -0.992873	 -1.379631	 1.276463
C	 1.331804	 -0.827780	 -0.158768
H	 0.047098	 0.873753	 -0.497175
H	 0.489844	 0.636478	 1.171309
C	 2.723619	 -0.410569	 0.329459
H	 1.342964	 -0.912588	 -1.244120
H	 1.116806	 -1.824343	 0.220779
C	 3.243875	 0.895854	 -0.272975
H	 3.424222	 -1.207124	 0.091250
H	 2.714788	 -0.329854	 1.414619
H	 3.251977	 0.848779	 -1.358681
H	 2.637085	 1.747371	 0.016682
H	 4.259473	 1.094070	 0.055697

	symmetry c1
}
set optking {
	frozen_dihedral = ("
		2 3 4 8,
		8 4 7 10,
		16 13 10 14,
		1 2 3 5
	")
}

ee = energy('scf')
oeprop('DIPOLE', 'QUADRUPOLE', 'MULLIKEN_CHARGES')
f=open( 'psi4out.xyz', 'w' )
f.write( "21  " )
f.write( str(ee) + "\n" )
f.write( MOL.save_string_xyz() )
f.close()
--------------------------------------------------------------------------

    Molecular point group: c1

    Geometry (in Angstrom), charge = 0, multiplicity = 1:

       Center              X                  Y                   Z               Mass
    ------------   -----------------  -----------------  -----------------  -----------------
           H         -4.158113913736     0.216448074415     0.966761906161     1.007825032070
           O         -3.438578913736    -0.341658925585     0.708515906161    15.994914619560
           C         -2.284566913736     0.434982074415     0.514413906161    12.000000000000
           C         -1.153512913736    -0.490690925585     0.102597906161    12.000000000000
           H         -2.452723913736     1.184707074415    -0.257560093839     1.007825032070
           H         -2.019707913736     0.962999074415     1.429502906161     1.007825032070
           C          0.163970086264     0.248980074415    -0.136113093839    12.000000000000
           H         -1.454794913736    -1.019006925585    -0.797869093839     1.007825032070
           H         -1.027004913736    -1.241681925585     0.877507906161     1.007825032070
           C          1.297672086264    -0.689830925585    -0.557723093839    12.000000000000
           H          0.012966086264     1.011702074415    -0.896130093839     1.007825032070
           H          0.455712086264     0.774427074415     0.772353906161     1.007825032070
           C          2.689487086264    -0.272619925585    -0.069496093839    12.000000000000
           H          1.308832086264    -0.774638925585    -1.643075093839     1.007825032070
           H          1.082674086264    -1.686393925585    -0.178176093839     1.007825032070
           C          3.209743086264     1.033803074415    -0.671930093839    12.000000000000
           H          3.390090086264    -1.069174925585    -0.307705093839     1.007825032070
           H          2.680656086264    -0.191904925585     1.015663906161     1.007825032070
           H          3.217845086264     0.986728074415    -1.757636093839     1.007825032070
           H          2.602953086264     1.885320074415    -0.382273093839     1.007825032070
           H          4.225341086264     1.232019074415    -0.343258093839     1.007825032070

  Charge       = 0
  Multiplicity = 1
  Basis Set: 6-31G*
  Basis Set:

    Orbital Energies (a.u.)
    -----------------------

    Doubly Occupied:

       1A    -20.551792     2A    -11.266811     3A    -11.215147
       4A    -11.215086     5A    -11.212665     6A    -11.210955
       7A    -11.208275     8A     -1.358611     9A     -1.086296
      10A     -1.033066    11A     -0.954314    12A     -0.875144
      13A     -0.808639    14A     -0.778405    15A     -0.692292
      16A     -0.660382    17A     -0.625217    18A     -0.603214
      19A     -0.585606    20A     -0.571916    21A     -0.535912
      22A     -0.520250    23A     -0.510692    24A     -0.487561
      25A     -0.480478    26A     -0.456793    27A     -0.456186
      28A     -0.442825    29A     -0.434060

  @DF-RHF Final Energy:  -310.21019957617932

   => Energetics <=

    Nuclear Repulsion Energy =            312.4837538550034424
    One-Electron Energy =               -1039.7108634039980188
    Two-Electron Energy =                 417.0169099728153697
    DFT Exchange-Correlation Energy =       0.0000000000000000
    Empirical Dispersion Energy =           0.0000000000000000
    PCM Polarization Energy =               0.0000000000000000
    EFP Energy =                            0.0000000000000000
    Total Energy =                       -310.2101995761792068

  Mulliken Charges: (a.u.)
   Center  Symbol    Alpha    Beta     Spin     Total
       1     H     0.28119  0.28119  0.00000  0.43762
       2     O     4.37178  4.37178  0.00000 -0.74356
       3     C     2.99010  2.99010  0.00000  0.01980
       4     C     3.16098  3.16098  0.00000 -0.32196
       5     H     0.43294  0.43294  0.00000  0.13412
       6     H     0.43284  0.43284  0.00000  0.13431
       7     C     3.16186  3.16186  0.00000 -0.32371
       8     H     0.41448  0.41448  0.00000  0.17104
       9     H     0.41453  0.41453  0.00000  0.17094
      10     C     3.15335  3.15335  0.00000 -0.30669
      11     H     0.42108  0.42108  0.00000  0.15784
      12     H     0.42301  0.42301  0.00000  0.15399
      13     C     3.15355  3.15355  0.00000 -0.30710
      14     H     0.42193  0.42193  0.00000  0.15613
      15     H     0.41915  0.41915  0.00000  0.16170
      16     C     3.24079  3.24079  0.00000 -0.48157
      17     H     0.42125  0.42125  0.00000  0.15750
      18     H     0.42327  0.42327  0.00000  0.15346
      19     H     0.42214  0.42214  0.00000  0.15572
      20     H     0.42040  0.42040  0.00000  0.15920
      21     H     0.41938  0.41938  0.00000  0.16123

   Total alpha = 29.00000, Total beta = 29.00000, Total charge = -0.00000
