  ==> Input File <==

--------------------------------------------------------------------------
set {
	reference rhf
	basis 6-31G*
}

set_num_threads( 4 )
memory 2 gb

molecule MOL {
0 1

H	 2.591676	 2.013956	 0.335017
O	 3.341076	 1.666752	 -0.126416
C	 3.569581	 0.339145	 0.272707
C	 2.539767	 -0.640285	 -0.279495
H	 4.553106	 0.084646	 -0.100901
H	 3.608576	 0.269204	 1.359154
C	 1.115811	 -0.397273	 0.226630
H	 2.556196	 -0.582511	 -1.364741
H	 2.852081	 -1.648031	 -0.010655
C	 0.115918	 -1.429151	 -0.302766
H	 0.797950	 0.599468	 -0.066350
H	 1.109961	 -0.420744	 1.316472
C	 -1.075997	 -0.838678	 -1.065013
H	 0.637884	 -2.137304	 -0.943795
H	 -0.264506	 -2.005426	 0.537998
C	 -0.720500	 -0.157633	 -2.389504
H	 -1.783776	 -1.640128	 -1.266367
H	 -1.597416	 -0.129893	 -0.423466
C	 -1.951059	 0.321467	 -3.162566
H	 -0.155589	 -0.851949	 -3.009916
H	 -0.066177	 0.691976	 -2.209703
C	 -1.598682	 1.007379	 -4.482043
H	 -2.604458	 -0.525665	 -3.359861
H	 -2.521963	 1.007835	 -2.540591
H	 -1.054905	 0.335518	 -5.140172
H	 -2.491288	 1.333485	 -5.006967
H	 -0.975288	 1.881503	 -4.315757

	symmetry c1
}
set optking {
	frozen_dihedral = ("
		14 10 7 4
	")
}

ee = optimize('scf')
oeprop('DIPOLE', 'QUADRUPOLE', 'MULLIKEN_CHARGES')
f=open( 'psi4out.xyz', 'w' )
f.write( "27  " )
f.write( str(ee) + "\n" )
f.write( MOL.save_string_xyz() )
f.close()
--------------------------------------------------------------------------

    Molecular point group: c1
  Charge       = 0
  Multiplicity = 1
  Basis Set: 6-31G*
  Basis Set:
  @DF-RHF Final Energy:  -388.27625684788580
    Total Energy =                       -388.2762568478851790
    Molecular point group: c1
  Basis Set: 6-31G*
  Basis Set:
  Basis Set: 6-31G*
  Basis Set:
  @DF-RHF Final Energy:  -388.27650970366307
    Total Energy =                       -388.2765097036633506
  Basis Set: 6-31G*
  Basis Set:
  Basis Set: 6-31G*
  Basis Set:
  @DF-RHF Final Energy:  -388.27669036553118
    Total Energy =                       -388.2766903655314081
  Basis Set: 6-31G*
  Basis Set:
  Basis Set: 6-31G*
  Basis Set:
  @DF-RHF Final Energy:  -388.27669510801979
    Total Energy =                       -388.2766951080196804
  Basis Set: 6-31G*
  Basis Set:
  Basis Set: 6-31G*
  Basis Set:
  @DF-RHF Final Energy:  -388.27670316102075
    Total Energy =                       -388.2767031610206914
  Basis Set: 6-31G*
  Basis Set:
  Basis Set: 6-31G*
  Basis Set:
  @DF-RHF Final Energy:  -388.27670640995797
    Total Energy =                       -388.2767064099583649
  Basis Set: 6-31G*
  Basis Set:
  Charge       = 0
  Multiplicity = 1
  Basis Set: 6-31G*
  Basis Set:

    Orbital Energies (a.u.)
    -----------------------

    Doubly Occupied:

       1A    -20.552436     2A    -11.266864     3A    -11.219690
       4A    -11.216644     5A    -11.215308     6A    -11.214829
       7A    -11.214425     8A    -11.212345     9A    -11.207298
      10A     -1.359078    11A     -1.093363    12A     -1.059120
      13A     -1.010447    14A     -0.946913    15A     -0.887473
      16A     -0.821514    17A     -0.796819    18A     -0.779655
      19A     -0.694835    20A     -0.646517    21A     -0.632677
      22A     -0.616068    23A     -0.608299    24A     -0.582533
      25A     -0.572939    26A     -0.551874    27A     -0.542968
      28A     -0.523182    29A     -0.503665    30A     -0.501545
      31A     -0.480888    32A     -0.472310    33A     -0.468337
      34A     -0.458910    35A     -0.451978    36A     -0.438567
      37A     -0.422420

  @DF-RHF Final Energy:  -388.27670642121166

   => Energetics <=

    Nuclear Repulsion Energy =            466.8144363030949080
    One-Electron Energy =               -1451.6928187821297342
    Two-Electron Energy =                 596.6016760578230560
    DFT Exchange-Correlation Energy =       0.0000000000000000
    Empirical Dispersion Energy =           0.0000000000000000
    PCM Polarization Energy =               0.0000000000000000
    EFP Energy =                            0.0000000000000000
    Total Energy =                       -388.2767064212117702
    Molecular point group: c1
  Basis Set: 6-31G*
  Basis Set:

  -Total Gradient:
     Atom            X                  Y                   Z
    ------   -----------------  -----------------  -----------------
       1       -0.000001538071     0.000002507954    -0.000002451966
       2        0.000002527285    -0.000001007503     0.000005332583
       3        0.000007310966     0.000006529260    -0.000014441380
       4       -0.000062404006     0.000175540707    -0.000245963917
       5       -0.000000650812     0.000000130584     0.000000126560
       6       -0.000000539203    -0.000005046280     0.000002482788
       7        0.000092873499    -0.000344139509     0.000410235647
       8        0.000006070636     0.000005653569    -0.000003050180
       9       -0.000002676590     0.000000834043     0.000002247199
      10       -0.000114116567     0.000441873706    -0.000452651059
      11       -0.000005340366    -0.000000309217    -0.000014125445
      12       -0.000003968518    -0.000006715577     0.000008874937
      13        0.000019215108    -0.000030637463    -0.000036368274
      14        0.000091530398    -0.000215561511     0.000325638189
      15       -0.000020169507    -0.000011258085     0.000000802587
      16        0.000000036106    -0.000039691207    -0.000001159515
      17       -0.000011110833    -0.000012871057     0.000006992182
      18        0.000012007969     0.000013480805    -0.000024075960
      19       -0.000013913010     0.000012194586     0.000023384381
      20       -0.000007169348    -0.000023623542     0.000010834886
      21        0.000010012069     0.000008417456    -0.000010475910
      22        0.000006069217     0.000018013346     0.000012708781
      23        0.000014992398     0.000001818376    -0.000013288824
      24       -0.000021109892    -0.000002997683     0.000005199919
      25       -0.000002954097    -0.000001850006     0.000005067629
      26        0.000001809665     0.000005165643     0.000003747489
      27        0.000003205499     0.000003548595    -0.000005623328

  **** Optimization is complete! (in 7 steps) ****
    Final optimized geometry and variables:
    Molecular point group: c1

    Geometry (in Angstrom), charge = 0, multiplicity = 1:

    H            1.908829121541     2.002429159347     1.641721541600
    O            2.659271465693     1.682875111053     1.162381777242
    C            2.924660109095     0.352817828393     1.530409271000
    C            1.919431534536    -0.640087371236     0.958530672408
    H            3.913429891467     0.133318541935     1.148448819631
    H            2.969203496902     0.259187801220     2.614894930770
    C            0.489259169085    -0.442111274215     1.468593428750
    H            1.933345553995    -0.562911109370    -0.125565750865
    H            2.254937565726    -1.645326451761     1.208415415249
    C           -0.514357933501    -1.486745815365     0.926297881181
    H            0.153022962360     0.555328148074     1.198875137253
    H            0.494527123792    -0.473857889516     2.556249670678
    C           -1.713136844004    -0.892812389876     0.177233398694
    H            0.001003996251    -2.182308831581     0.267721210543
    H           -0.886850099424    -2.086497111415     1.751767992473
    C           -1.357332798222    -0.256400428325    -1.168745018485
    H           -2.445134311017    -1.679865077222     0.008213666656
    H           -2.202649457810    -0.154964442339     0.811089348704
    C           -2.567316301440     0.344285761652    -1.887288544659
    H           -0.898987694228    -1.010067916021    -1.807288600381
    H           -0.607476561191     0.519404978950    -1.029664269986
    C           -2.212019233328     0.968615132245    -3.236233810097
    H           -3.319216737013    -0.428263433612    -2.034183037589
    H           -3.025930773085     1.098195774401    -1.250762178658
    H           -1.783728585099     0.230823500984    -3.908862336754
    H           -3.089504753264     1.386741866375    -3.719872114643
    H           -1.486025884114     1.768217525514    -3.119321892878

  Mulliken Charges: (a.u.)
   Center  Symbol    Alpha    Beta     Spin     Total
       1     H     0.27989  0.27989  0.00000  0.44021
       2     O     4.37110  4.37110  0.00000 -0.74220
       3     C     2.99819  2.99819  0.00000  0.00362
       4     C     3.16309  3.16309  0.00000 -0.32618
       5     H     0.41441  0.41441  0.00000  0.17118
       6     H     0.43203  0.43203  0.00000  0.13594
       7     C     3.16541  3.16541  0.00000 -0.33083
       8     H     0.41419  0.41419  0.00000  0.17163
       9     H     0.42376  0.42376  0.00000  0.15249
      10     C     3.15570  3.15570  0.00000 -0.31140
      11     H     0.42304  0.42304  0.00000  0.15391
      12     H     0.42219  0.42219  0.00000  0.15563
      13     C     3.15486  3.15486  0.00000 -0.30972
      14     H     0.41964  0.41964  0.00000  0.16072
      15     H     0.41871  0.41871  0.00000  0.16258
      16     C     3.15339  3.15339  0.00000 -0.30678
      17     H     0.42215  0.42215  0.00000  0.15571
      18     H     0.42451  0.42451  0.00000  0.15098
      19     C     3.15106  3.15106  0.00000 -0.30213
      20     H     0.42411  0.42411  0.00000  0.15177
      21     H     0.41999  0.41999  0.00000  0.16003
      22     C     3.23936  3.23936  0.00000 -0.47873
      23     H     0.42334  0.42334  0.00000  0.15332
      24     H     0.42367  0.42367  0.00000  0.15265
      25     H     0.42173  0.42173  0.00000  0.15654
      26     H     0.41968  0.41968  0.00000  0.16065
      27     H     0.42080  0.42080  0.00000  0.15839

   Total alpha = 37.00000, Total beta = 37.00000, Total charge =  0.00000
