  ==> Input File <==

--------------------------------------------------------------------------
set {
	reference rhf
	basis 6-31G*
}

set_num_threads( 1 )
memory 2 gb

molecule MOL {
0 1

H	 2.791914	 -0.368624	 -1.016827
N	 2.434251	 -0.367735	 -0.081097
C	 1.267428	 0.496480	 0.024474
H	 3.172113	 -0.035289	 0.510472
C	 -0.016086	 -0.325158	 -0.029487
H	 1.288818	 1.183521	 -0.816092
H	 1.267576	 1.109062	 0.929528
C	 -1.282277	 0.529072	 0.046735
H	 -0.012495	 -0.908639	 -0.945788
H	 -0.015903	 -1.041248	 0.791956
C	 -2.563920	 -0.301775	 -0.006060
H	 -1.284084	 1.244622	 -0.773004
H	 -1.271387	 1.115393	 0.963286
H	 -2.621848	 -0.873522	 -0.927727
H	 -3.445135	 0.329952	 0.047812
H	 -2.609542	 -1.004582	 0.821105

	symmetry c1
}
set optking {
	frozen_dihedral = ("
		6 3 5 9,
		12 8 5 9
	")
}

ee = energy('scf')
oeprop('DIPOLE', 'QUADRUPOLE', 'MULLIKEN_CHARGES')
f=open( 'psi4out.xyz', 'w' )
f.write( "16  " )
f.write( str(ee) + "\n" )
f.write( MOL.save_string_xyz() )
f.close()
--------------------------------------------------------------------------

    Molecular point group: c1

    Geometry (in Angstrom), charge = 0, multiplicity = 1:

       Center              X                  Y                   Z               Mass
    ------------   -----------------  -----------------  -----------------  -----------------
           H          2.789351054279    -0.373967165344    -1.001418531384     1.007825032070
           N          2.431688054279    -0.373078165344    -0.065688531384    14.003074004780
           C          1.264865054279     0.491136834656     0.039882468616    12.000000000000
           H          3.169550054279    -0.040632165344     0.525880468616     1.007825032070
           C         -0.018648945721    -0.330501165344    -0.014078531384    12.000000000000
           H          1.286255054279     1.178177834656    -0.800683531384     1.007825032070
           H          1.265013054279     1.103718834656     0.944936468616     1.007825032070
           C         -1.284839945721     0.523728834656     0.062143468616    12.000000000000
           H         -0.015057945721    -0.913982165344    -0.930379531384     1.007825032070
           H         -0.018465945721    -1.046591165344     0.807364468616     1.007825032070
           C         -2.566482945721    -0.307118165344     0.009348468616    12.000000000000
           H         -1.286646945721     1.239278834656    -0.757595531384     1.007825032070
           H         -1.273949945721     1.110049834656     0.978694468616     1.007825032070
           H         -2.624410945721    -0.878865165344    -0.912318531384     1.007825032070
           H         -3.447697945721     0.324608834656     0.063220468616     1.007825032070
           H         -2.612104945721    -1.009925165344     0.836513468616     1.007825032070

  Charge       = 0
  Multiplicity = 1
  Basis Set: 6-31G*
  Basis Set:

    Orbital Energies (a.u.)
    -----------------------

    Doubly Occupied:

       1A    -15.531515     2A    -11.240306     3A    -11.211804
       4A    -11.205671     5A    -11.203526     6A     -1.176291
       7A     -1.056824     8A     -0.956922     9A     -0.841670
      10A     -0.786790    11A     -0.674381    12A     -0.623405
      13A     -0.609664    14A     -0.576442    15A     -0.553742
      16A     -0.531296    17A     -0.491970    18A     -0.472199
      19A     -0.464954    20A     -0.457455    21A     -0.377255

  @DF-RHF Final Energy:  -212.31316402076288

   => Energetics <=

    Nuclear Repulsion Energy =            186.1025662794073128
    One-Electron Energy =                -654.7432393037781821
    Two-Electron Energy =                 256.3275090036074175
    DFT Exchange-Correlation Energy =       0.0000000000000000
    Empirical Dispersion Energy =           0.0000000000000000
    PCM Polarization Energy =               0.0000000000000000
    EFP Energy =                            0.0000000000000000
    Total Energy =                       -212.3131640207634518

  Mulliken Charges: (a.u.)
   Center  Symbol    Alpha    Beta     Spin     Total
       1     H     0.33227  0.33227  0.00000  0.33545
       2     N     3.92305  3.92305  0.00000 -0.84610
       3     C     3.06954  3.06954  0.00000 -0.13908
       4     H     0.33216  0.33216  0.00000  0.33567
       5     C     3.13875  3.13875  0.00000 -0.27750
       6     H     0.43036  0.43036  0.00000  0.13928
       7     H     0.42260  0.42260  0.00000  0.15480
       8     C     3.15731  3.15731  0.00000 -0.31462
       9     H     0.42424  0.42424  0.00000  0.15152
      10     H     0.41867  0.41867  0.00000  0.16266
      11     C     3.23805  3.23805  0.00000 -0.47610
      12     H     0.42501  0.42501  0.00000  0.14998
      13     H     0.42463  0.42463  0.00000  0.15074
      14     H     0.42167  0.42167  0.00000  0.15666
      15     H     0.42050  0.42050  0.00000  0.15900
      16     H     0.42119  0.42119  0.00000  0.15762

   Total alpha = 21.00000, Total beta = 21.00000, Total charge =  0.00000
