  ==> Input File <==

--------------------------------------------------------------------------
set {
	reference rhf
	basis cc-pvtz
}

set_num_threads( 4 )
memory 2 gb

molecule MOL {
0 1

O	 -2.071633	 -1.227563	 -0.223463
C	 -1.652164	 -0.152425	 0.058082
C	 -0.327811	 0.006324	 0.778296
C	 -2.402515	 1.108629	 -0.298924
C	 0.843231	 -0.001575	 -0.211665
H	 -0.319484	 0.928173	 1.350354
H	 -0.227804	 -0.823091	 1.466705
C	 2.197693	 0.138030	 0.476937
H	 0.722944	 0.805202	 -0.930230
H	 0.813976	 -0.926978	 -0.776588
C	 3.091660	 1.184765	 -0.179060
H	 2.046125	 0.395739	 1.521512
H	 2.702036	 -0.823802	 0.469327
H	 2.628930	 2.165766	 -0.155586
H	 3.286986	 0.936897	 -1.216739
H	 4.046025	 1.257453	 0.329176
H	 -3.240910	 0.874416	 -0.936711
H	 -1.747554	 1.818823	 -0.790984
H	 -2.760419	 1.579708	 0.610998

	symmetry c1
}
set optking {
	frozen_dihedral = ("
		11 8 5 9
	")
}

ee = optimize('scf')
oeprop('DIPOLE', 'QUADRUPOLE', 'MULLIKEN_CHARGES')
f=open( 'psi4out.xyz', 'w' )
f.write( "19  " )
f.write( str(ee) + "\n" )
f.write( MOL.save_string_xyz() )
f.close()
--------------------------------------------------------------------------

    Molecular point group: c1
  Charge       = 0
  Multiplicity = 1
  Basis Set: CC-PVTZ
  Basis Set:
  @DF-RHF Final Energy:  -309.17190069489533
    Total Energy =                       -309.1719006948952710
    Molecular point group: c1
  Basis Set: CC-PVTZ
  Basis Set:
  Basis Set: CC-PVTZ
  Basis Set:
  @DF-RHF Final Energy:  -309.17213544086025
    Total Energy =                       -309.1721354408599041
  Basis Set: CC-PVTZ
  Basis Set:
  Basis Set: CC-PVTZ
  Basis Set:
  @DF-RHF Final Energy:  -309.17207188139741
    Total Energy =                       -309.1720718813978692
  Basis Set: CC-PVTZ
  Basis Set:
  Basis Set: CC-PVTZ
  Basis Set:
  @DF-RHF Final Energy:  -309.17215725194166
    Total Energy =                       -309.1721572519418260
  Basis Set: CC-PVTZ
  Basis Set:
  Basis Set: CC-PVTZ
  Basis Set:
  @DF-RHF Final Energy:  -309.17215527383991
    Total Energy =                       -309.1721552738400192
  Basis Set: CC-PVTZ
  Basis Set:
  Basis Set: CC-PVTZ
  Basis Set:
  @DF-RHF Final Energy:  -309.17222552273006
    Total Energy =                       -309.1722255227304004
  Basis Set: CC-PVTZ
  Basis Set:
  Charge       = 0
  Multiplicity = 1
  Basis Set: CC-PVTZ
  Basis Set:

    Orbital Energies (a.u.)
    -----------------------

    Doubly Occupied:

       1A    -20.537096     2A    -11.319415     3A    -11.228849
       4A    -11.228181     5A    -11.227047     6A    -11.222890
       7A    -11.214618     8A     -1.397165     9A     -1.090856
      10A     -1.030125    11A     -0.984999    12A     -0.891446
      13A     -0.808020    14A     -0.735896    15A     -0.663136
      16A     -0.645960    17A     -0.622803    18A     -0.615127
      19A     -0.589747    20A     -0.571571    21A     -0.557393
      22A     -0.534843    23A     -0.514964    24A     -0.505598
      25A     -0.483044    26A     -0.471026    27A     -0.468628
      28A     -0.399053

  @DF-RHF Final Energy:  -309.17222560590159

   => Energetics <=

    Nuclear Repulsion Energy =            302.0820224306038995
    One-Electron Energy =               -1017.3895078812186057
    Two-Electron Energy =                 406.1352598447131186
    DFT Exchange-Correlation Energy =       0.0000000000000000
    Empirical Dispersion Energy =           0.0000000000000000
    PCM Polarization Energy =               0.0000000000000000
    EFP Energy =                            0.0000000000000000
    Total Energy =                       -309.1722256059015308
    Molecular point group: c1
  Basis Set: CC-PVTZ
  Basis Set:

  -Total Gradient:
     Atom            X                  Y                   Z
    ------   -----------------  -----------------  -----------------
       1        0.000009082762    -0.000004929176     0.000005287087
       2        0.000004810194     0.000009603641    -0.000018913356
       3       -0.000015435141    -0.000003406093     0.000022140243
       4       -0.000007783300    -0.000002071410     0.000014499065
       5       -0.001757716181     0.002621650674     0.003008814552
       6       -0.000004468590    -0.000000213787     0.000000647702
       7       -0.000004666068    -0.000000029453     0.000003394741
       8        0.001373281435    -0.002481951727    -0.002245768443
       9        0.001172167376    -0.001663170560    -0.002054231318
      10        0.000000041638     0.000011187889    -0.000000664315
      11       -0.000766484568     0.001503003136     0.001268270762
      12       -0.000006405107    -0.000002509287    -0.000005144763
      13       -0.000006759572     0.000002356793     0.000012591693
      14        0.000007460366     0.000009135172     0.000003561725
      15        0.000000091539     0.000007700224    -0.000007952866
      16       -0.000005879594    -0.000009515321    -0.000002925532
      17        0.000003991960    -0.000002311878     0.000000713997
      18        0.000002832014     0.000000771115    -0.000002409259
      19        0.000001838829     0.000004700050    -0.000001911714

  **** Optimization is complete! (in 7 steps) ****
    Final optimized geometry and variables:
    Molecular point group: c1

    Geometry (in Angstrom), charge = 0, multiplicity = 1:

    O           -2.028904245654    -1.396735007746    -0.269771698938
    C           -1.619100238285    -0.317299533006     0.009605578459
    C           -0.295931350921    -0.145036160324     0.728980857586
    C           -2.381145693324     0.936307798203    -0.348828623398
    C            0.875372353663    -0.137192782303    -0.260061222570
    H           -0.296773574356     0.775696515547     1.303036474528
    H           -0.184856955248    -0.974644774687     1.415680738918
    C            2.249843213287    -0.017168565342     0.426155001591
    H            0.754530232025     0.668164328150    -0.978332983666
    H            0.833929622288    -1.051021416375    -0.840999090702
    C            3.165010552172     1.014554493768    -0.226092712885
    H            2.111872272813     0.257537451859     1.467249185838
    H            2.737962412976    -0.984988039498     0.435890663226
    H            2.722637086379     2.004404097171    -0.186413622053
    H            3.347224856448     0.776738416441    -1.268978968725
    H            4.124979475817     1.059278292412     0.275136741759
    H           -3.216452920934     0.693587091170    -0.987482555102
    H           -1.732661308286     1.652821515769    -0.840229468891
    H           -2.745006366078     1.403947601249     0.560533038917

  Mulliken Charges: (a.u.)
   Center  Symbol    Alpha    Beta     Spin     Total
       1     O     4.17691  4.17691  0.00000 -0.35381
       2     C     2.85902  2.85902  0.00000  0.28195
       3     C     3.09887  3.09887  0.00000 -0.19773
       4     C     3.15541  3.15541  0.00000 -0.31082
       5     C     3.10265  3.10265  0.00000 -0.20529
       6     H     0.44918  0.44918  0.00000  0.10164
       7     H     0.43831  0.43831  0.00000  0.12338
       8     C     3.08749  3.08749  0.00000 -0.17497
       9     H     0.45180  0.45180  0.00000  0.09640
      10     H     0.43885  0.43885  0.00000  0.12230
      11     C     3.14827  3.14827  0.00000 -0.29654
      12     H     0.45413  0.45413  0.00000  0.09174
      13     H     0.44705  0.44705  0.00000  0.10590
      14     H     0.45613  0.45613  0.00000  0.08775
      15     H     0.45290  0.45290  0.00000  0.09419
      16     H     0.44782  0.44782  0.00000  0.10435
      17     H     0.43597  0.43597  0.00000  0.12805
      18     H     0.45084  0.45084  0.00000  0.09833
      19     H     0.44841  0.44841  0.00000  0.10319

   Total alpha = 28.00000, Total beta = 28.00000, Total charge = -0.00000
