                              Psi4 1.0.54 Driver

  ==> Input File <==

--------------------------------------------------------------------------
set {
	reference rhf
	basis cc-pvtz
}

set_num_threads( 4 )
memory 2 gb

molecule MOL {
0 1

O	 -2.374409	 1.338660	 -0.336961
C	 -2.104891	 0.204655	 -0.107126
C	 -0.881910	 -0.448129	 -0.720509
C	 -2.949910	 -0.638219	 0.818225
C	 0.084209	 -0.937409	 0.365798
H	 -0.389632	 0.292917	 -1.337457
H	 -1.176205	 -1.278455	 -1.353607
C	 1.335398	 -1.587453	 -0.221121
H	 0.351815	 -0.092581	 0.987795
H	 -0.420708	 -1.653208	 1.009995
C	 2.308602	 -2.146771	 0.818084
H	 1.853892	 -0.863791	 -0.845185
H	 1.032014	 -2.395794	 -0.880777
C	 2.972879	 -1.093333	 1.701194
H	 3.081944	 -2.701827	 0.296393
H	 1.789521	 -2.867955	 1.444009
H	 3.494886	 -0.355335	 1.100814
H	 3.697840	 -1.551196	 2.364190
H	 2.254352	 -0.568225	 2.318657
H	 -3.440322	 -1.417144	 0.243099
H	 -3.694377	 -0.025850	 1.303346
H	 -2.331085	 -1.129829	 1.560495

	symmetry c1
}
set optking {
	frozen_dihedral = ("
		6 3 2 1
	")
}

ee,wfn = optimize('scf', return_wfn=True)
oeprop( wfn, 'DIPOLE', 'QUADRUPOLE', 'MULLIKEN_CHARGES')
f=open( 'psi4out.xyz', 'w' )
f.write( "22  " )
f.write( str(ee) + "\n" )
f.write( MOL.save_string_xyz() )
f.close()
--------------------------------------------------------------------------

    Molecular point group: c1
  Charge       = 0
  Multiplicity = 1
  Basis Set: CC-PVTZ
  Basis Set:
  @DF-RHF Final Energy:  -348.22119668947244
    Total Energy =                       -348.2211966894724924
    Molecular point group: c1
  Basis Set: CC-PVTZ
  Basis Set:
  Basis Set: CC-PVTZ
  Basis Set:
  @DF-RHF Final Energy:  -348.21996380714796
    Total Energy =                       -348.2199638071479626
  Basis Set: CC-PVTZ
  Basis Set:
  Basis Set: CC-PVTZ
  Basis Set:
  @DF-RHF Final Energy:  -348.22234266785517
    Total Energy =                       -348.2223426678550595
  Basis Set: CC-PVTZ
  Basis Set:
  Basis Set: CC-PVTZ
  Basis Set:
  @DF-RHF Final Energy:  -348.22246964719579
    Total Energy =                       -348.2224696471961352
  Basis Set: CC-PVTZ
  Basis Set:
  @DF-RHF Final Energy:  -348.22270553319163
    Total Energy =                       -348.2227055331914016
  @DF-RHF Final Energy:  -348.22280913198290
    Total Energy =                       -348.2228091319825580
  @DF-RHF Final Energy:  -348.22284281652389
    Total Energy =                       -348.2228428165240643
  @DF-RHF Final Energy:  -348.22290661501398
    Total Energy =                       -348.2229066150142671
  @DF-RHF Final Energy:  -348.22292068836771
    Total Energy =                       -348.2229206883679353
  Basis Set: CC-PVTZ
  Basis Set:
  @DF-RHF Final Energy:  -348.22292755010898
    Total Energy =                       -348.2229275501089205
  Basis Set: CC-PVTZ
  Basis Set:
  Basis Set: CC-PVTZ
  Basis Set:
  @DF-RHF Final Energy:  -348.22292878091520
    Total Energy =                       -348.2229287809150264
  Basis Set: CC-PVTZ
  Basis Set:
  Basis Set: CC-PVTZ
  Basis Set:
  @DF-RHF Final Energy:  -348.22293021907768
    Total Energy =                       -348.2229302190769999
  Basis Set: CC-PVTZ
  Basis Set:
  Charge       = 0
  Multiplicity = 1
  Basis Set: CC-PVTZ
  Basis Set:

    Orbital Energies (a.u.)
    -----------------------

    Doubly Occupied:

       1A    -20.537057     2A    -11.319119     3A    -11.230028
       4A    -11.228114     5A    -11.226039     6A    -11.222472
       7A    -11.220988     8A    -11.212065     9A     -1.396706
      10A     -1.099947    11A     -1.047095    12A     -0.997759
      13A     -0.941162    14A     -0.862844    15A     -0.789427
      16A     -0.733935    17A     -0.664157    18A     -0.647067
      19A     -0.633630    20A     -0.618724    21A     -0.604132
      22A     -0.585807    23A     -0.560586    24A     -0.540700
      25A     -0.533736    26A     -0.527343    27A     -0.497610
      28A     -0.492037    29A     -0.473451    30A     -0.469319
      31A     -0.465256    32A     -0.398730

  @DF-RHF Final Energy:  -348.22293008951493

   => Energetics <=

    Nuclear Repulsion Energy =            373.5010913936284282
    One-Electron Energy =               -1211.8939596399936818
    Two-Electron Energy =                 490.1699381568503782
    DFT Exchange-Correlation Energy =       0.0000000000000000
    Empirical Dispersion Energy =           0.0000000000000000
    PCM Polarization Energy =               0.0000000000000000
    EFP Energy =                            0.0000000000000000
    Total Energy =                       -348.2229300895148185
    Molecular point group: c1
  Basis Set: CC-PVTZ
  Basis Set:

  -Total Gradient:
     Atom            X                  Y                   Z
    ------   -----------------  -----------------  -----------------
       1       -0.000162898149    -0.000063267705    -0.000237684877
       2        0.000256860258     0.000103791542     0.000434224281
       3       -0.000251538383    -0.000124831887    -0.000411679072
       4        0.000052412592    -0.000113404504    -0.000032049381
       5       -0.000014543956    -0.000020218459     0.000040617790
       6        0.000181344547     0.000099813005     0.000206597179
       7        0.000009898005    -0.000003805646     0.000017349088
       8       -0.000004788292    -0.000001821068    -0.000026009670
       9       -0.000032545214    -0.000017373272    -0.000015984599
      10        0.000003244107    -0.000002207045    -0.000004133259
      11        0.000018223250     0.000007857371     0.000002448769
      12       -0.000005058887    -0.000018511676    -0.000006160081
      13        0.000010554921     0.000016701862     0.000024576495
      14       -0.000013458181     0.000000164009    -0.000012406643
      15       -0.000000959608     0.000009430668     0.000010810456
      16        0.000009585707     0.000006532323    -0.000008635063
      17       -0.000007932939    -0.000011417436     0.000004368062
      18        0.000003125523    -0.000004575922     0.000005627095
      19       -0.000005634432     0.000000553001    -0.000012421878
      20        0.000012573476     0.000107313984     0.000039451369
      21       -0.000078731904     0.000023212516    -0.000004827809
      22        0.000020267555     0.000006064336    -0.000014078252

  **** Optimization is complete! (in 13 steps) ****
    Final optimized geometry and variables:
    Molecular point group: c1

    Geometry (in Angstrom), charge = 0, multiplicity = 1:

    O           -2.195451255320     1.979868153613    -0.732726119573
    C           -1.917766411281     0.861672227238    -0.442430189295
    C           -0.670146079860     0.196031638108    -0.987053164368
    C           -2.804581813008     0.054309057518     0.479656071862
    C            0.291760876027    -0.310560553552     0.092434168262
    H           -0.175967059979     0.919256146751    -1.621426414254
    H           -0.982003450571    -0.637104532421    -1.612348629782
    C            1.573054122472    -0.886072867989    -0.508386248510
    H            0.530509637566     0.508593631755     0.762319463898
    H           -0.191610093337    -1.074627103094     0.693453698888
    C            2.546668923650    -1.477920524486     0.511993456341
    H            2.078859980862    -0.112283813747    -1.080046376596
    H            1.303924251889    -1.661948111652    -1.219797079002
    C            3.161262906854    -0.461670734109     1.471332504079
    H            3.346524755815    -1.973673115416    -0.028867134976
    H            2.041837423179    -2.253527741481     1.081942244014
    H            3.667129886533     0.329945356081     0.928225467915
    H            3.890920280901    -0.936686569728     2.116790144986
    H            2.416053188829    -0.001066189412     2.108620825928
    H           -2.944799000147    -0.953399279069     0.106924146191
    H           -3.758609619794     0.548103952602     0.583906302472
    H           -2.339258860734    -0.021584370570     1.456177033170

  Mulliken Charges: (a.u.)
   Center  Symbol    Alpha    Beta     Spin     Total
       1     O     4.17260  4.17260  0.00000 -0.34520
       2     C     2.85824  2.85824  0.00000  0.28351
       3     C     3.09541  3.09541  0.00000 -0.19082
       4     C     3.16448  3.16448  0.00000 -0.32896
       5     C     3.11053  3.11053  0.00000 -0.22107
       6     H     0.43847  0.43847  0.00000  0.12306
       7     H     0.44726  0.44726  0.00000  0.10548
       8     C     3.09677  3.09677  0.00000 -0.19354
       9     H     0.44317  0.44317  0.00000  0.11367
      10     H     0.45031  0.45031  0.00000  0.09937
      11     C     3.09041  3.09041  0.00000 -0.18082
      12     H     0.44902  0.44902  0.00000  0.10195
      13     H     0.44834  0.44834  0.00000  0.10333
      14     C     3.15194  3.15194  0.00000 -0.30389
      15     H     0.44702  0.44702  0.00000  0.10596
      16     H     0.45456  0.45456  0.00000  0.09089
      17     H     0.45327  0.45327  0.00000  0.09346
      18     H     0.44558  0.44558  0.00000  0.10885
      19     H     0.45398  0.45398  0.00000  0.09204
      20     H     0.44881  0.44881  0.00000  0.10237
      21     H     0.43230  0.43230  0.00000  0.13541
      22     H     0.44752  0.44752  0.00000  0.10495

   Total alpha = 32.00000, Total beta = 32.00000, Total charge = -0.00000

*** Psi4 exiting successfully. Buy a developer a beer!
