                              Psi4 1.0.54 Driver

  ==> Input File <==

--------------------------------------------------------------------------
set {
	reference rhf
	basis cc-pvtz
}

set_num_threads( 4 )
memory 2 gb

molecule MOL {
0 1

O	 -2.071633	 -1.227563	 -0.223463
C	 -1.652164	 -0.152425	 0.058082
C	 -0.327811	 0.006324	 0.778296
C	 -2.402515	 1.108629	 -0.298924
C	 0.843231	 -0.001575	 -0.211665
H	 -0.319484	 0.928173	 1.350354
H	 -0.227804	 -0.823091	 1.466705
C	 2.197693	 0.138030	 0.476937
H	 0.722944	 0.805202	 -0.930230
H	 0.813976	 -0.926978	 -0.776588
C	 2.080372	 0.309501	 1.987564
H	 2.804857	 -0.736154	 0.258583
H	 2.725004	 0.989360	 0.056556
H	 1.587662	 -0.543661	 2.441860
H	 1.504657	 1.194239	 2.236882
H	 3.056968	 0.409915	 2.446454
H	 -3.240910	 0.874416	 -0.936711
H	 -1.747554	 1.818823	 -0.790984
H	 -2.760419	 1.579708	 0.610998

	symmetry c1
}
set optking {
	frozen_dihedral = ("
		11 8 5 9
	")
}

ee,wfn = optimize('scf', return_wfn=True)
oeprop( wfn, 'DIPOLE', 'QUADRUPOLE', 'MULLIKEN_CHARGES')
f=open( 'psi4out.xyz', 'w' )
f.write( "19  " )
f.write( str(ee) + "\n" )
f.write( MOL.save_string_xyz() )
f.close()
--------------------------------------------------------------------------

    Molecular point group: c1
  Charge       = 0
  Multiplicity = 1
  Basis Set: CC-PVTZ
  Basis Set:
  @DF-RHF Final Energy:  -309.16268976267304
    Total Energy =                       -309.1626897626732671
    Molecular point group: c1
  Basis Set: CC-PVTZ
  Basis Set:
  Basis Set: CC-PVTZ
  Basis Set:
  @DF-RHF Final Energy:  -309.11178742477273
    Total Energy =                       -309.1117874247727855
  Basis Set: CC-PVTZ
  Basis Set:
  Basis Set: CC-PVTZ
  Basis Set:
  @DF-RHF Final Energy:  -309.16315078296276
    Total Energy =                       -309.1631507829624752
  Basis Set: CC-PVTZ
  Basis Set:
  Basis Set: CC-PVTZ
  Basis Set:
  @DF-RHF Final Energy:  -309.16691400712199
    Total Energy =                       -309.1669140071217043
  Basis Set: CC-PVTZ
  Basis Set:
  @DF-RHF Final Energy:  -309.16725814012636
    Total Energy =                       -309.1672581401263642
  @DF-RHF Final Energy:  -309.16726110733708
    Total Energy =                       -309.1672611073372536
  @DF-RHF Final Energy:  -309.16733152553911
    Total Energy =                       -309.1673315255389980
  Basis Set: CC-PVTZ
  Basis Set:
  @DF-RHF Final Energy:  -309.16734899882908
    Total Energy =                       -309.1673489988290839
  Basis Set: CC-PVTZ
  Basis Set:
  Basis Set: CC-PVTZ
  Basis Set:
  @DF-RHF Final Energy:  -309.16734337846293
    Total Energy =                       -309.1673433784628742
  Basis Set: CC-PVTZ
  Basis Set:
  Basis Set: CC-PVTZ
  Basis Set:
  @DF-RHF Final Energy:  -309.16734950142228
    Total Energy =                       -309.1673495014223363
  Basis Set: CC-PVTZ
  Basis Set:
  Charge       = 0
  Multiplicity = 1
  Basis Set: CC-PVTZ
  Basis Set:

    Orbital Energies (a.u.)
    -----------------------

    Doubly Occupied:

       1A    -20.536653     2A    -11.319174     3A    -11.229000
       4A    -11.227446     5A    -11.226847     6A    -11.223527
       7A    -11.214345     8A     -1.396848     9A     -1.088556
      10A     -1.027770    11A     -0.982313    12A     -0.903973
      13A     -0.795711    14A     -0.734442    15A     -0.663088
      16A     -0.653859    17A     -0.623099    18A     -0.606196
      19A     -0.587793    20A     -0.570710    21A     -0.553460
      22A     -0.544851    23A     -0.524742    24A     -0.504376
      25A     -0.481034    26A     -0.468260    27A     -0.457964
      28A     -0.399600

  @DF-RHF Final Energy:  -309.16734989187177

   => Energetics <=

    Nuclear Repulsion Energy =            305.2862919496560039
    One-Electron Energy =               -1023.8160124625237586
    Two-Electron Energy =                 409.3623706209957049
    DFT Exchange-Correlation Energy =       0.0000000000000000
    Empirical Dispersion Energy =           0.0000000000000000
    PCM Polarization Energy =               0.0000000000000000
    EFP Energy =                            0.0000000000000000
    Total Energy =                       -309.1673498918719929
    Molecular point group: c1
  Basis Set: CC-PVTZ
  Basis Set:

  -Total Gradient:
     Atom            X                  Y                   Z
    ------   -----------------  -----------------  -----------------
       1        0.000014470256    -0.000003331094    -0.000023997787
       2       -0.000038444080     0.000005586500     0.000042794639
       3        0.000009425813    -0.000007767107    -0.000015587460
       4       -0.000019229387    -0.000009900776     0.000010898729
       5       -0.000354681598     0.000261910559     0.001129356441
       6        0.000002620479     0.000002824734    -0.000002151928
       7       -0.000002882157     0.000005394605    -0.000000058790
       8        0.000251295932     0.001081464737    -0.000120724114
       9        0.000243209246    -0.000524055907    -0.000939950445
      10        0.000001844407    -0.000003531134    -0.000000744051
      11       -0.000141050404    -0.000815675361    -0.000059383147
      12        0.000000509582     0.000003598132    -0.000003209955
      13        0.000001173068     0.000001877958     0.000000691860
      14       -0.000005912158    -0.000001730869    -0.000000605357
      15        0.000006134340     0.000001430052     0.000000608646
      16        0.000005441969    -0.000005550718    -0.000003727003
      17        0.000008427399    -0.000001160464    -0.000001466149
      18        0.000011377564     0.000001864505    -0.000007124861
      19        0.000006269723     0.000006751648    -0.000005619273

  **** Optimization is complete! (in 11 steps) ****
    Final optimized geometry and variables:
    Molecular point group: c1

    Geometry (in Angstrom), charge = 0, multiplicity = 1:

    O           -2.145980240964    -0.715236821509    -0.711033897203
    C           -1.522461025710     0.170962714042    -0.224138595208
    C           -0.184881531774    -0.086839220624     0.441944002489
    C           -2.019042715027     1.597026512512    -0.253059977265
    C            0.933303656686    -0.095711290364    -0.610975654083
    H            0.003956624879     0.668556644208     1.195013049371
    H           -0.249131703005    -1.049334994705     0.930330537775
    C            2.372300688871    -0.366144170447    -0.095691789411
    H            0.923015730784     0.851045078738    -1.141167067457
    H            0.675314358979    -0.845600038166    -1.347976470161
    C            2.561185940427    -0.515050681316     1.413211192593
    H            2.739976241820    -1.269745155495    -0.568256378271
    H            3.020428597659     0.430683578092    -0.442278335339
    H            1.985861355053    -1.339882034833     1.815434761952
    H            2.278401870612     0.382546335393     1.950914342770
    H            3.604518895575    -0.708656128170     1.633512147582
    H           -2.889592959868     1.674664736743    -0.886025844791
    H           -1.242826000831     2.267891492743    -0.603361645451
    H           -2.277095097200     1.903846839518     0.755559582291

  Mulliken Charges: (a.u.)
   Center  Symbol    Alpha    Beta     Spin     Total
       1     O     4.17790  4.17790  0.00000 -0.35580
       2     C     2.85608  2.85608  0.00000  0.28785
       3     C     3.10059  3.10059  0.00000 -0.20119
       4     C     3.15612  3.15612  0.00000 -0.31224
       5     C     3.10974  3.10974  0.00000 -0.21948
       6     H     0.44780  0.44780  0.00000  0.10441
       7     H     0.43760  0.43760  0.00000  0.12480
       8     C     3.08796  3.08796  0.00000 -0.17592
       9     H     0.44879  0.44879  0.00000  0.10242
      10     H     0.43842  0.43842  0.00000  0.12317
      11     C     3.15742  3.15742  0.00000 -0.31484
      12     H     0.44850  0.44850  0.00000  0.10300
      13     H     0.44999  0.44999  0.00000  0.10002
      14     H     0.45131  0.45131  0.00000  0.09737
      15     H     0.45429  0.45429  0.00000  0.09141
      16     H     0.44241  0.44241  0.00000  0.11518
      17     H     0.43589  0.43589  0.00000  0.12823
      18     H     0.45077  0.45077  0.00000  0.09845
      19     H     0.44842  0.44842  0.00000  0.10316

   Total alpha = 28.00000, Total beta = 28.00000, Total charge = -0.00000

*** Psi4 exiting successfully. Buy a developer a beer!
