                              Psi4 1.0.54 Driver

  ==> Input File <==

--------------------------------------------------------------------------
set {
	reference rhf
	basis cc-pvtz
}

set_num_threads( 4 )
memory 2 gb

molecule MOL {
0 1

H	 1.212838	 -1.423190	 -0.572789
O	 1.675515	 -0.612943	 -0.465627
C	 1.135873	 0.113391	 0.608264
C	 0.027642	 1.012027	 0.090274
H	 1.902972	 0.727968	 1.072615
H	 0.756163	 -0.561896	 1.370018
C	 -1.138737	 0.285728	 -0.581921
H	 0.464661	 1.708096	 -0.618252
H	 -0.340737	 1.603071	 0.925246
C	 -1.933983	 -0.631436	 0.343653
H	 -0.763151	 -0.285569	 -1.422081
H	 -1.808359	 1.035291	 -0.992333
H	 -2.789188	 -1.049673	 -0.174718
H	 -1.335629	 -1.461368	 0.700418
H	 -2.305435	 -0.092167	 1.209725

	symmetry c1
}
set optking {
	frozen_dihedral = ("
		1 2 3 4
	")
}

ee,wfn = optimize('scf', return_wfn=True)
oeprop( wfn, 'DIPOLE', 'QUADRUPOLE', 'MULLIKEN_CHARGES')
f=open( 'psi4out.xyz', 'w' )
f.write( "15  " )
f.write( str(ee) + "\n" )
f.write( MOL.save_string_xyz() )
f.close()
--------------------------------------------------------------------------

    Molecular point group: c1
  Charge       = 0
  Multiplicity = 1
  Basis Set: CC-PVTZ
  Basis Set:
  @DF-RHF Final Energy:  -232.23502787780484
    Total Energy =                       -232.2350278778044412
    Molecular point group: c1
  Basis Set: CC-PVTZ
  Basis Set:
  Basis Set: CC-PVTZ
  Basis Set:
  @DF-RHF Final Energy:  -232.16543377629020
    Total Energy =                       -232.1654337762902856
  Basis Set: CC-PVTZ
  Basis Set:
  Basis Set: CC-PVTZ
  Basis Set:
  @DF-RHF Final Energy:  -232.23038764631281
    Total Energy =                       -232.2303876463129200
  Basis Set: CC-PVTZ
  Basis Set:
  Basis Set: CC-PVTZ
  Basis Set:
  @DF-RHF Final Energy:  -232.23628089948267
    Total Energy =                       -232.2362808994827788
  Basis Set: CC-PVTZ
  Basis Set:
  Basis Set: CC-PVTZ
  Basis Set:
  @DF-RHF Final Energy:  -232.23639322060160
    Total Energy =                       -232.2363932206016557
  Basis Set: CC-PVTZ
  Basis Set:
  Basis Set: CC-PVTZ
  Basis Set:
  @DF-RHF Final Energy:  -232.23640101648166
    Total Energy =                       -232.2364010164817500
  Basis Set: CC-PVTZ
  Basis Set:
  Basis Set: CC-PVTZ
  Basis Set:
  @DF-RHF Final Energy:  -232.23640989561366
    Total Energy =                       -232.2364098956137468
  Basis Set: CC-PVTZ
  Basis Set:
  Charge       = 0
  Multiplicity = 1
  Basis Set: CC-PVTZ
  Basis Set:

    Orbital Energies (a.u.)
    -----------------------

    Doubly Occupied:

       1A    -20.546006     2A    -11.265289     3A    -11.216822
       4A    -11.212509     5A    -11.212276     6A     -1.363394
       7A     -1.070105     8A     -0.976032     9A     -0.878009
      10A     -0.784183    11A     -0.702306    12A     -0.645213
      13A     -0.614438    14A     -0.585987    15A     -0.569278
      16A     -0.544520    17A     -0.504200    18A     -0.493324
      19A     -0.475131    20A     -0.458426    21A     -0.428918

  @DF-RHF Final Energy:  -232.23641022444104

   => Energetics <=

    Nuclear Repulsion Energy =            191.4926733573856268
    One-Electron Energy =                -694.3654320486240294
    Two-Electron Energy =                 270.6363484667973580
    DFT Exchange-Correlation Energy =       0.0000000000000000
    Empirical Dispersion Energy =           0.0000000000000000
    PCM Polarization Energy =               0.0000000000000000
    EFP Energy =                            0.0000000000000000
    Total Energy =                       -232.2364102244410446
    Molecular point group: c1
  Basis Set: CC-PVTZ
  Basis Set:

  -Total Gradient:
     Atom            X                  Y                   Z
    ------   -----------------  -----------------  -----------------
       1        0.000398627318    -0.000099571889     0.000739828799
       2       -0.000316088112     0.000246295969    -0.000953100269
       3       -0.000310861613    -0.000620632696     0.000239545843
       4        0.000259112333     0.000459141259    -0.000037269943
       5       -0.000032514954    -0.000005752838    -0.000002577108
       6       -0.000009615889     0.000023296476    -0.000000550329
       7        0.000016711959     0.000017170017     0.000001870439
       8        0.000015794923    -0.000007812343     0.000024341168
       9       -0.000017023515     0.000007214467    -0.000029553557
      10       -0.000012280829    -0.000024116702     0.000015434917
      11       -0.000020313630     0.000006965159     0.000004070270
      12        0.000021053918    -0.000004391364     0.000019672055
      13        0.000004178800    -0.000001159457     0.000010815324
      14       -0.000011433044     0.000010558846    -0.000014770523
      15        0.000014652334    -0.000007204905    -0.000017757083

  **** Optimization is complete! (in 8 steps) ****
    Final optimized geometry and variables:
    Molecular point group: c1

    Geometry (in Angstrom), charge = 0, multiplicity = 1:

    H            1.611633224445    -1.242484593397     0.196842493238
    O            1.882468363530    -0.344204603798     0.180301136257
    C            0.911570168066     0.473839413328     0.782677038592
    C           -0.124711740921     0.982764099636    -0.209649365337
    H            1.441207365802     1.318905062067     1.203145722529
    H            0.437419231269    -0.044495820769     1.610326924574
    C           -0.971470331460    -0.096636392953    -0.885906345595
    H            0.397685932614     1.549207875938    -0.973458929239
    H           -0.775847121533     1.681823332285     0.310729138350
    C           -1.889649279554    -0.870886072160     0.057400343689
    H           -0.319561201626    -0.787590511389    -1.410979843989
    H           -1.578220637605     0.377246479049    -1.650526673183
    H           -2.502139049579    -1.574817768863    -0.493926650235
    H           -1.334465796152    -1.437155590370     0.796996908053
    H           -2.555978388935    -0.201265868340     0.591277727825

  Mulliken Charges: (a.u.)
   Center  Symbol    Alpha    Beta     Spin     Total
       1     H     0.39167  0.39167  0.00000  0.21667
       2     O     4.20728  4.20728  0.00000 -0.41456
       3     C     2.98587  2.98587  0.00000  0.02827
       4     C     3.08725  3.08725  0.00000 -0.17450
       5     H     0.44787  0.44787  0.00000  0.10426
       6     H     0.46656  0.46656  0.00000  0.06688
       7     C     3.10361  3.10361  0.00000 -0.20721
       8     H     0.44831  0.44831  0.00000  0.10338
       9     H     0.45621  0.45621  0.00000  0.08758
      10     C     3.15185  3.15185  0.00000 -0.30370
      11     H     0.45019  0.45019  0.00000  0.09962
      12     H     0.44615  0.44615  0.00000  0.10769
      13     H     0.44520  0.44520  0.00000  0.10959
      14     H     0.45857  0.45857  0.00000  0.08285
      15     H     0.45341  0.45341  0.00000  0.09318

   Total alpha = 21.00000, Total beta = 21.00000, Total charge = -0.00000

*** Psi4 exiting successfully. Buy a developer a beer!
