                              Psi4 1.0.54 Driver

  ==> Input File <==

--------------------------------------------------------------------------
set {
	reference rhf
	basis cc-pvtz
}

set_num_threads( 4 )
memory 2 gb

molecule MOL {
0 1

O	 -2.071633	 -1.227563	 -0.223463
C	 -1.652164	 -0.152425	 0.058082
C	 -0.327811	 0.006324	 0.778296
C	 -2.402515	 1.108629	 -0.298924
C	 -0.222833	 1.384105	 1.443218
H	 -0.210570	 -0.772147	 1.524863
H	 0.459774	 -0.104138	 0.043893
C	 1.105744	 1.590318	 2.164735
H	 -1.037645	 1.514073	 2.150950
H	 -0.348041	 2.147077	 0.682586
C	 1.219734	 2.963944	 2.816902
H	 1.228560	 0.819945	 2.921019
H	 1.919451	 1.457351	 1.457813
H	 0.439042	 3.113341	 3.555303
H	 1.132467	 3.754891	 2.079911
H	 2.174058	 3.081181	 3.316824
H	 -3.240910	 0.874416	 -0.936711
H	 -1.747554	 1.818823	 -0.790984
H	 -2.760419	 1.579708	 0.610998

	symmetry c1
}
set optking {
	frozen_dihedral = ("
		5 3 2 4
	")
}

ee,wfn = optimize('scf', return_wfn=True)
oeprop( wfn, 'DIPOLE', 'QUADRUPOLE', 'MULLIKEN_CHARGES')
f=open( 'psi4out.xyz', 'w' )
f.write( "19  " )
f.write( str(ee) + "\n" )
f.write( MOL.save_string_xyz() )
f.close()
--------------------------------------------------------------------------

    Molecular point group: c1
  Charge       = 0
  Multiplicity = 1
  Basis Set: CC-PVTZ
  Basis Set:
  @DF-RHF Final Energy:  -309.17097292941384
    Total Energy =                       -309.1709729294140061
    Molecular point group: c1
  Basis Set: CC-PVTZ
  Basis Set:
  Basis Set: CC-PVTZ
  Basis Set:
  @DF-RHF Final Energy:  -309.13401086304873
    Total Energy =                       -309.1340108630486156
  Basis Set: CC-PVTZ
  Basis Set:
  Basis Set: CC-PVTZ
  Basis Set:
  @DF-RHF Final Energy:  -309.17298531716773
    Total Energy =                       -309.1729853171677291
  Basis Set: CC-PVTZ
  Basis Set:
  Basis Set: CC-PVTZ
  Basis Set:
  @DF-RHF Final Energy:  -309.17498350295665
    Total Energy =                       -309.1749835029571045
  Basis Set: CC-PVTZ
  Basis Set:
  @DF-RHF Final Energy:  -309.17265963395931
    Total Energy =                       -309.1726596339592561
  @DF-RHF Final Energy:  -309.17442337361786
    Total Energy =                       -309.1744233736179126
  @DF-RHF Final Energy:  -309.17516808728993
    Total Energy =                       -309.1751680872903307
  Basis Set: CC-PVTZ
  Basis Set:
  @DF-RHF Final Energy:  -309.17519070148478
    Total Energy =                       -309.1751907014846665
  Basis Set: CC-PVTZ
  Basis Set:
  Basis Set: CC-PVTZ
  Basis Set:
  @DF-RHF Final Energy:  -309.17519513873305
    Total Energy =                       -309.1751951387331587
  Basis Set: CC-PVTZ
  Basis Set:
  Basis Set: CC-PVTZ
  Basis Set:
  @DF-RHF Final Energy:  -309.17519685446706
    Total Energy =                       -309.1751968544671740
  Basis Set: CC-PVTZ
  Basis Set:
  Charge       = 0
  Multiplicity = 1
  Basis Set: CC-PVTZ
  Basis Set:

    Orbital Energies (a.u.)
    -----------------------

    Doubly Occupied:

       1A    -20.535057     2A    -11.320714     3A    -11.229533
       4A    -11.228891     5A    -11.226559     6A    -11.224851
       7A    -11.215435     8A     -1.396336     9A     -1.095403
      10A     -1.028978    11A     -0.983810    12A     -0.896408
      13A     -0.810772    14A     -0.732806    15A     -0.664037
      16A     -0.649999    17A     -0.630094    18A     -0.613483
      19A     -0.587057    20A     -0.573168    21A     -0.554395
      22A     -0.531082    23A     -0.524827    24A     -0.492870
      25A     -0.487404    26A     -0.482164    27A     -0.470671
      28A     -0.399121

  @DF-RHF Final Energy:  -309.17519707538634

   => Energetics <=

    Nuclear Repulsion Energy =            301.4128202130287946
    One-Electron Energy =               -1016.0041825061688314
    Two-Electron Energy =                 405.4161652177538713
    DFT Exchange-Correlation Energy =       0.0000000000000000
    Empirical Dispersion Energy =           0.0000000000000000
    PCM Polarization Energy =               0.0000000000000000
    EFP Energy =                            0.0000000000000000
    Total Energy =                       -309.1751970753861656
    Molecular point group: c1
  Basis Set: CC-PVTZ
  Basis Set:

  -Total Gradient:
     Atom            X                  Y                   Z
    ------   -----------------  -----------------  -----------------
       1       -0.000029635368    -0.000016277056    -0.000001153390
       2        0.000653978362     0.000537255354    -0.002308908754
       3       -0.000625339614    -0.000919529570     0.002131812544
       4       -0.000310773805    -0.000159870195     0.001172974315
       5        0.000318271249     0.000557876972    -0.001026848838
       6        0.000009472808    -0.000005559036     0.000006273588
       7        0.000001260416    -0.000004419174    -0.000003443382
       8       -0.000005654193    -0.000002905729    -0.000001779047
       9       -0.000003042423     0.000003969433     0.000005507452
      10        0.000004683192     0.000005723712    -0.000003729437
      11        0.000005898809     0.000005775683    -0.000006189873
      12       -0.000003496215     0.000000405468    -0.000000669029
      13        0.000007402152    -0.000004292548    -0.000005369764
      14       -0.000002816798    -0.000000375445     0.000002794321
      15        0.000000645626     0.000004077720     0.000001642019
      16        0.000007265613     0.000002106407     0.000001167607
      17       -0.000023273264     0.000005528129     0.000003681981
      18       -0.000000220470    -0.000004014059     0.000011911204
      19       -0.000004626082    -0.000005476069     0.000020326482

  **** Optimization is complete! (in 11 steps) ****
    Final optimized geometry and variables:
    Molecular point group: c1

    Geometry (in Angstrom), charge = 0, multiplicity = 1:

    O           -2.115546596256    -1.434676754357    -1.059590578492
    C           -1.466498263723    -0.495297634500    -0.730764118062
    C           -0.001547071974    -0.683212767557    -0.365168963483
    C           -2.072418650567     0.887937262170    -0.688612540188
    C            0.674335716585     0.408295451736     0.460612687623
    H            0.069059664697    -1.643265234069     0.130433893934
    H            0.521543755993    -0.795439728422    -1.312430309016
    C            2.135876476699     0.083731140780     0.759653103704
    H            0.143801501742     0.543235933756     1.399417609571
    H            0.623759748614     1.358950908859    -0.060484013578
    C            2.828538189034     1.160948277711     1.587076881694
    H            2.191989243530    -0.865999503805     1.283532710987
    H            2.670856511063    -0.052845262696    -0.176024781873
    H            2.336586597978     1.296267682528     2.544451648702
    H            2.819235576036     2.116507155997     1.073399428440
    H            3.862348910023     0.900562165011     1.781097468417
    H           -3.094514916519     0.838185812989    -1.030379750594
    H           -1.509295757447     1.570252661769    -1.315636457226
    H           -2.044047785931     1.281064617477     0.320824690969

  Mulliken Charges: (a.u.)
   Center  Symbol    Alpha    Beta     Spin     Total
       1     O     4.17539  4.17539  0.00000 -0.35077
       2     C     2.86084  2.86084  0.00000  0.27832
       3     C     3.09803  3.09803  0.00000 -0.19607
       4     C     3.16413  3.16413  0.00000 -0.32827
       5     C     3.10015  3.10015  0.00000 -0.20030
       6     H     0.43645  0.43645  0.00000  0.12711
       7     H     0.44214  0.44214  0.00000  0.11571
       8     C     3.08615  3.08615  0.00000 -0.17230
       9     H     0.44955  0.44955  0.00000  0.10091
      10     H     0.45092  0.45092  0.00000  0.09817
      11     C     3.14934  3.14934  0.00000 -0.29868
      12     H     0.45093  0.45093  0.00000  0.09814
      13     H     0.45278  0.45278  0.00000  0.09443
      14     H     0.45431  0.45431  0.00000  0.09138
      15     H     0.45493  0.45493  0.00000  0.09014
      16     H     0.44640  0.44640  0.00000  0.10720
      17     H     0.43196  0.43196  0.00000  0.13609
      18     H     0.44792  0.44792  0.00000  0.10415
      19     H     0.44768  0.44768  0.00000  0.10464

   Total alpha = 28.00000, Total beta = 28.00000, Total charge = -0.00000

*** Psi4 exiting successfully. Buy a developer a beer!
