  ==> Input File <==

--------------------------------------------------------------------------
set {
	reference rhf
	basis 6-31G*
}

set_num_threads( 4 )
memory 2 gb

molecule MOL {
0 1

H	 2.845955	 -0.323208	 0.022310
C	 1.900140	 0.071967	 -0.330070
C	 0.778463	 -0.508087	 0.517968
H	 1.782469	 -0.206877	 -1.370777
H	 1.922247	 1.149867	 -0.254252
N	 -0.540928	 0.005139	 0.058438
H	 0.716718	 -1.581298	 0.454712
H	 0.859711	 -0.198647	 1.550086
O	 -0.945548	 -0.374813	 -0.995693
O	 -1.106298	 0.765924	 0.783740

	symmetry c1
}
set optking {
	frozen_dihedral = ("
		9 6 3 2
	")
}

ee = optimize('scf')
oeprop('DIPOLE', 'QUADRUPOLE', 'MULLIKEN_CHARGES')
f=open( 'psi4out.xyz', 'w' )
f.write( "10  " )
f.write( str(ee) + "\n" )
f.write( MOL.save_string_xyz() )
f.close()
--------------------------------------------------------------------------

    Molecular point group: c1
  Charge       = 0
  Multiplicity = 1
  Basis Set: 6-31G*
  Basis Set:
  @DF-RHF Final Energy:  -282.70024612027214
    Total Energy =                       -282.7002461202720838
    Molecular point group: c1
  Basis Set: 6-31G*
  Basis Set:
  Basis Set: 6-31G*
  Basis Set:
  @DF-RHF Final Energy:  -282.69834149416926
    Total Energy =                       -282.6983414941693127
  Basis Set: 6-31G*
  Basis Set:
  Basis Set: 6-31G*
  Basis Set:
  @DF-RHF Final Energy:  -282.70003794237533
    Total Energy =                       -282.7000379423756158
  Basis Set: 6-31G*
  Basis Set:
  Basis Set: 6-31G*
  Basis Set:
  @DF-RHF Final Energy:  -282.70049488348275
    Total Energy =                       -282.7004948834827474
  Basis Set: 6-31G*
  Basis Set:
  Basis Set: 6-31G*
  Basis Set:
  @DF-RHF Final Energy:  -282.70049606599872
    Total Energy =                       -282.7004960659987773
  Basis Set: 6-31G*
  Basis Set:
  Charge       = 0
  Multiplicity = 1
  Basis Set: 6-31G*
  Basis Set:

    Orbital Energies (a.u.)
    -----------------------

    Doubly Occupied:

       1A    -20.604116     2A    -20.600363     3A    -15.848656
       4A    -11.303766     5A    -11.252884     6A     -1.632308
       7A     -1.417894     8A     -1.127738     9A     -0.967435
      10A     -0.837727    11A     -0.760735    12A     -0.736329
      13A     -0.725683    14A     -0.657651    15A     -0.590626
      16A     -0.561810    17A     -0.548048    18A     -0.485455
      19A     -0.477974    20A     -0.449767

  @DF-RHF Final Energy:  -282.70049634554232

   => Energetics <=

    Nuclear Repulsion Energy =            186.2458628825589528
    One-Electron Energy =                -754.7187896546065531
    Two-Electron Energy =                 285.7724304265051387
    DFT Exchange-Correlation Energy =       0.0000000000000000
    Empirical Dispersion Energy =           0.0000000000000000
    PCM Polarization Energy =               0.0000000000000000
    EFP Energy =                            0.0000000000000000
    Total Energy =                       -282.7004963455424331
    Molecular point group: c1
  Basis Set: 6-31G*
  Basis Set:

  -Total Gradient:
     Atom            X                  Y                   Z
    ------   -----------------  -----------------  -----------------
       1        0.000001699166     0.000000764259     0.000003713726
       2       -0.000018725093     0.000041479143     0.000046522225
       3       -0.000008857373    -0.000100102897    -0.000033997001
       4       -0.000001406314     0.000003789114    -0.000004672681
       5       -0.000002146820    -0.000005969677     0.000004015435
       6        0.000096289914     0.000072750789    -0.000133308188
       7        0.000010929319     0.000004056469    -0.000002785428
       8       -0.000002849776     0.000003353054     0.000004291296
       9       -0.000048173561    -0.000028864188     0.000121245250
      10       -0.000026759465     0.000008743934    -0.000005024638

  **** Optimization is complete! (in 6 steps) ****
    Final optimized geometry and variables:
    Molecular point group: c1

    Geometry (in Angstrom), charge = 0, multiplicity = 1:

    H            2.840539712853    -0.312991017479     0.021644044216
    C            1.889253943732     0.067809300710    -0.331097620881
    C            0.774462548444    -0.511927961862     0.528691467865
    H            1.762544642702    -0.217351515516    -1.366664390907
    H            1.907559761389     1.149014611073    -0.260364420785
    N           -0.539824085460     0.006745483725     0.064206609672
    H            0.713892725261    -1.585298555734     0.432285924395
    H            0.858938268563    -0.227513479950     1.563985345476
    O           -0.930510222075    -0.386411259507    -0.992607947915
    O           -1.104644739665     0.788942358936     0.763525057533

  Mulliken Charges: (a.u.)
   Center  Symbol    Alpha    Beta     Spin     Total
       1     H     0.40487  0.40487  0.00000  0.19026
       2     C     3.25769  3.25769  0.00000 -0.51538
       3     C     3.09080  3.09080  0.00000 -0.18160
       4     H     0.39394  0.39394  0.00000  0.21213
       5     H     0.40114  0.40114  0.00000  0.19772
       6     N     3.21958  3.21958  0.00000  0.56085
       7     H     0.38762  0.38762  0.00000  0.22477
       8     H     0.38602  0.38602  0.00000  0.22796
       9     O     4.23069  4.23069  0.00000 -0.46138
      10     O     4.22767  4.22767  0.00000 -0.45533

   Total alpha = 20.00000, Total beta = 20.00000, Total charge =  0.00000
