  ==> Input File <==

--------------------------------------------------------------------------
set {
	reference rhf
	basis 6-31G*
}

set_num_threads( 4 )
memory 2 gb

molecule MOL {
0 1

H	 3.998319	 4.862091	 0.842399
C	 3.450974	 3.951802	 0.673362
C	 2.079035	 3.996612	 0.476071
C	 4.119428	 2.737839	 0.653476
H	 1.561842	 4.938755	 0.491737
C	 1.375946	 2.825743	 0.258784
H	 5.182952	 2.705064	 0.806608
C	 3.417688	 1.564510	 0.436149
H	 0.314089	 2.841393	 0.104230
C	 2.042622	 1.606057	 0.238080
H	 3.930901	 0.622878	 0.419948
C	 1.239129	 0.373821	 0.000060
O	 1.970282	 -0.730723	 0.000018
O	 0.060676	 0.370879	 -0.173430
C	 3.377318	 -0.566646	 -0.000065
H	 3.695437	 -0.028981	 -0.881264
H	 3.789299	 -1.563704	 0.000236
H	 3.695516	 -0.028316	 0.880770

	symmetry c1
}
set optking {
	frozen_dihedral = ("
		10 12 13 15
	")
}

ee = optimize('scf')
oeprop('DIPOLE', 'QUADRUPOLE', 'MULLIKEN_CHARGES')
f=open( 'psi4out.xyz', 'w' )
f.write( "18  " )
f.write( str(ee) + "\n" )
f.write( MOL.save_string_xyz() )
f.close()
--------------------------------------------------------------------------

    Molecular point group: c1
  Charge       = 0
  Multiplicity = 1
  Basis Set: 6-31G*
  Basis Set:
  @DF-RHF Final Energy:  -457.11063920285568
    Total Energy =                       -457.1106392028556229
    Molecular point group: c1
  Basis Set: 6-31G*
  Basis Set:
  Basis Set: 6-31G*
  Basis Set:
  @DF-RHF Final Energy:  -457.23437502007476
    Total Energy =                       -457.2343750200750492
  Basis Set: 6-31G*
  Basis Set:
  Basis Set: 6-31G*
  Basis Set:
  @DF-RHF Final Energy:  -457.28405148951862
    Total Energy =                       -457.2840514895185606
  Basis Set: 6-31G*
  Basis Set:
  Basis Set: 6-31G*
  Basis Set:
  @DF-RHF Final Energy:  -457.30821438163593
    Total Energy =                       -457.3082143816361622
  Basis Set: 6-31G*
  Basis Set:
  @DF-RHF Final Energy:  -457.31724274309084
    Total Energy =                       -457.3172427430910147
  @DF-RHF Final Energy:  -457.31942217704119
    Total Energy =                       -457.3194221770412469
  @DF-RHF Final Energy:  -457.32105218257908
    Total Energy =                       -457.3210521825785690
  @DF-RHF Final Energy:  -457.32223425209975
    Total Energy =                       -457.3222342520995198
  @DF-RHF Final Energy:  -457.32380456477244
    Total Energy =                       -457.3238045647721037
  @DF-RHF Final Energy:  -457.32524590105311
    Total Energy =                       -457.3252459010527673
  @DF-RHF Final Energy:  -457.32484343584474
    Total Energy =                       -457.3248434358451959
  @DF-RHF Final Energy:  -457.32611002646235
    Total Energy =                       -457.3261100264620609
  @DF-RHF Final Energy:  -457.32660017927628
    Total Energy =                       -457.3266001792766247
  @DF-RHF Final Energy:  -457.32694731171091
    Total Energy =                       -457.3269473117107964
  @DF-RHF Final Energy:  -457.32706926512225
    Total Energy =                       -457.3270692651221907
  @DF-RHF Final Energy:  -457.32710421418784
    Total Energy =                       -457.3271042141881253
  @DF-RHF Final Energy:  -457.32712491785924
    Total Energy =                       -457.3271249178599192
  @DF-RHF Final Energy:  -457.32714517886058
    Total Energy =                       -457.3271451788605191
  @DF-RHF Final Energy:  -457.32717601695686
    Total Energy =                       -457.3271760169568552
  @DF-RHF Final Energy:  -457.32720776928579
    Total Energy =                       -457.3272077692856783
  @DF-RHF Final Energy:  -457.32726619008963
    Total Energy =                       -457.3272661900898584
  @DF-RHF Final Energy:  -457.32734486044399
    Total Energy =                       -457.3273448604441000
  @DF-RHF Final Energy:  -457.32741257246852
    Total Energy =                       -457.3274125724681198
  @DF-RHF Final Energy:  -457.32745366088335
    Total Energy =                       -457.3274536608828384
  @DF-RHF Final Energy:  -457.32748374461454
    Total Energy =                       -457.3274837446147103
  @DF-RHF Final Energy:  -457.32751616432120
    Total Energy =                       -457.3275161643211959
  @DF-RHF Final Energy:  -457.32755263349969
    Total Energy =                       -457.3275526334994083
  Basis Set: 6-31G*
  Basis Set:
  @DF-RHF Final Energy:  -457.32757800798566
    Total Energy =                       -457.3275780079857213
  Basis Set: 6-31G*
  Basis Set:
  Basis Set: 6-31G*
  Basis Set:
  @DF-RHF Final Energy:  -457.32758557034958
    Total Energy =                       -457.3275855703493562
  Basis Set: 6-31G*
  Basis Set:
  Basis Set: 6-31G*
  Basis Set:
  @DF-RHF Final Energy:  -457.32758661009217
    Total Energy =                       -457.3275866100919984
  Basis Set: 6-31G*
  Basis Set:
  Charge       = 0
  Multiplicity = 1
  Basis Set: 6-31G*
  Basis Set:

    Orbital Energies (a.u.)
    -----------------------

    Doubly Occupied:

       1A    -20.604107     2A    -20.540432     3A    -11.379844
       4A    -11.293901     5A    -11.257557     6A    -11.254796
       7A    -11.249988     8A    -11.249560     9A    -11.247481
      10A    -11.245362    11A     -1.464644    12A     -1.365401
      13A     -1.173372    14A     -1.047581    15A     -1.033599
      16A     -0.987571    17A     -0.876045    18A     -0.846001
      19A     -0.785473    20A     -0.737365    21A     -0.690875
      22A     -0.677594    23A     -0.673408    24A     -0.639915
      25A     -0.630043    26A     -0.604580    27A     -0.596737
      28A     -0.564725    29A     -0.540021    30A     -0.517885
      31A     -0.512836    32A     -0.503329    33A     -0.448389
      34A     -0.438706    35A     -0.351457    36A     -0.348818

  @DF-RHF Final Energy:  -457.32758679749503

   => Energetics <=

    Nuclear Repulsion Energy =            497.8291053682409597
    One-Electron Energy =               -1609.5545848069591557
    Two-Electron Energy =                 654.3978926412230521
    DFT Exchange-Correlation Energy =       0.0000000000000000
    Empirical Dispersion Energy =           0.0000000000000000
    PCM Polarization Energy =               0.0000000000000000
    EFP Energy =                            0.0000000000000000
    Total Energy =                       -457.3275867974950870
    Molecular point group: c1
  Basis Set: 6-31G*
  Basis Set:

  -Total Gradient:
     Atom            X                  Y                   Z
    ------   -----------------  -----------------  -----------------
       1        0.000002332558    -0.000002104303    -0.000000323892
       2       -0.000029632937     0.000017355689    -0.000006275738
       3        0.000028220916     0.000020097155    -0.000001379415
       4        0.000004488283    -0.000036680137     0.000011596458
       5       -0.000001503347    -0.000001479173     0.000000078480
       6        0.000004374357    -0.000044765206     0.000009647708
       7       -0.000000301465     0.000002707199    -0.000000188488
       8        0.000022261472    -0.000004830163    -0.000002392640
       9       -0.000000148942     0.000003617111    -0.000002366630
      10       -0.000643843051     0.000342205723    -0.001522721480
      11       -0.000000913464     0.000014081615    -0.000013188645
      12        0.001523215127    -0.000560280017     0.003354973344
      13       -0.001863534650     0.000371495365    -0.003467540156
      14       -0.000006718733     0.000020491816     0.000014165907
      15        0.000973032010    -0.000190972106     0.001620443742
      16        0.000011894269     0.000006098841     0.000004949437
      17       -0.000023327082     0.000011661970    -0.000006985696
      18        0.000000104678     0.000031298617     0.000007507705

  **** Optimization is complete! (in 31 steps) ****
    Final optimized geometry and variables:
    Molecular point group: c1

    Geometry (in Angstrom), charge = 0, multiplicity = 1:

    H            1.559471309585     3.550276576221     0.071238209474
    C            1.075293237742     2.590378183042     0.084854233352
    C           -0.200294536842     2.449279349522    -0.438632054684
    C            1.722124178497     1.496511706028     0.636552215005
    H           -0.708848652980     3.298536679232    -0.857579152654
    C           -0.828741376145     1.216804284366    -0.408521861857
    H            2.703191313740     1.606815058396     1.061853793969
    C            1.103952618988     0.257414017625     0.644615886407
    H           -1.828703770023     1.105758607762    -0.783821264965
    C           -0.171737861658     0.109972706819     0.114719593777
    H            1.607965861396    -0.581111681569     1.088752658080
    C           -0.930217341613    -1.186023861589     0.171729086877
    O           -0.358150758293    -2.307660897469    -0.262157765600
    O           -2.045618647008    -1.226422232086     0.570218791160
    C            0.859946115810    -2.370393546887    -0.972191372951
    H            0.985756996900    -1.525351454124    -1.633742718183
    H            0.811573303454    -3.278089798684    -1.554252147805
    H            1.700328901013    -2.430455605535    -0.294658014826

  Mulliken Charges: (a.u.)
   Center  Symbol    Alpha    Beta     Spin     Total
       1     H     0.39427  0.39427  0.00000  0.21146
       2     C     3.09435  3.09435  0.00000 -0.18871
       3     C     3.10255  3.10255  0.00000 -0.20510
       4     C     3.10222  3.10222  0.00000 -0.20444
       5     H     0.39351  0.39351  0.00000  0.21298
       6     C     3.09137  3.09137  0.00000 -0.18275
       7     H     0.39473  0.39473  0.00000  0.21054
       8     C     3.09862  3.09862  0.00000 -0.19724
       9     H     0.38047  0.38047  0.00000  0.23906
      10     C     3.06607  3.06607  0.00000 -0.13214
      11     H     0.39077  0.39077  0.00000  0.21846
      12     C     2.60450  2.60450  0.00000  0.79100
      13     O     4.30296  4.30296  0.00000 -0.60593
      14     O     4.26411  4.26411  0.00000 -0.52823
      15     C     3.09220  3.09220  0.00000 -0.18441
      16     H     0.40999  0.40999  0.00000  0.18002
      17     H     0.40083  0.40083  0.00000  0.19834
      18     H     0.41646  0.41646  0.00000  0.16709

   Total alpha = 36.00000, Total beta = 36.00000, Total charge = -0.00000
