  ==> Input File <==

--------------------------------------------------------------------------
set {
	reference rhf
	basis 6-31G*
}

set_num_threads( 4 )
memory 2 gb

molecule MOL {
0 1

H	 2.098138	 -0.723108	 0.922172
C	 1.957379	 -0.265403	 -0.064486
C	 0.691095	 0.535633	 -0.225122
O	 2.773043	 -0.418210	 -0.915057
C	 -0.558097	 -0.297372	 0.091132
H	 0.661170	 0.924888	 -1.236094
H	 0.743811	 1.380960	 0.460059
C	 -1.850991	 0.512573	 -0.019058
H	 -0.604511	 -1.145774	 -0.587715
H	 -0.476550	 -0.709608	 1.095258
C	 -3.096943	 -0.368295	 -0.099594
H	 -1.800724	 1.150330	 -0.898172
H	 -1.931651	 1.177355	 0.838044
H	 -3.060452	 -1.020287	 -0.967456
H	 -3.996858	 0.233488	 -0.175704
H	 -3.191959	 -0.995686	 0.782074

	symmetry c1
}
set optking {
	frozen_dihedral = ("
		9 5 8 12
	")
}

ee = optimize('scf')
oeprop('DIPOLE', 'QUADRUPOLE', 'MULLIKEN_CHARGES')
f=open( 'psi4out.xyz', 'w' )
f.write( "16  " )
f.write( str(ee) + "\n" )
f.write( MOL.save_string_xyz() )
f.close()
--------------------------------------------------------------------------

    Molecular point group: c1
  Charge       = 0
  Multiplicity = 1
  Basis Set: 6-31G*
  Basis Set:
  @DF-RHF Final Energy:  -270.01893971037805
    Total Energy =                       -270.0189397103781630
    Molecular point group: c1
  Basis Set: 6-31G*
  Basis Set:
  Basis Set: 6-31G*
  Basis Set:
  @DF-RHF Final Energy:  -270.01889568107902
    Total Energy =                       -270.0188956810790160
  Basis Set: 6-31G*
  Basis Set:
  Basis Set: 6-31G*
  Basis Set:
  @DF-RHF Final Energy:  -270.01751746951180
    Total Energy =                       -270.0175174695120859
  Basis Set: 6-31G*
  Basis Set:
  Basis Set: 6-31G*
  Basis Set:
  @DF-RHF Final Energy:  -270.01904278637630
    Total Energy =                       -270.0190427863767013
  Basis Set: 6-31G*
  Basis Set:
  Basis Set: 6-31G*
  Basis Set:
  @DF-RHF Final Energy:  -270.01909077582604
    Total Energy =                       -270.0190907758259300
  Basis Set: 6-31G*
  Basis Set:
  Basis Set: 6-31G*
  Basis Set:
  @DF-RHF Final Energy:  -270.01909508635140
    Total Energy =                       -270.0190950863514558
  Basis Set: 6-31G*
  Basis Set:
  Charge       = 0
  Multiplicity = 1
  Basis Set: 6-31G*
  Basis Set:

    Orbital Energies (a.u.)
    -----------------------

    Doubly Occupied:

       1A    -20.562576     2A    -11.326638     3A    -11.236515
       4A    -11.235521     5A    -11.229286     6A    -11.218612
       7A     -1.402399     8A     -1.096305     9A     -1.019077
      10A     -0.906117    11A     -0.812641    12A     -0.794069
      13A     -0.676266    14A     -0.648811    15A     -0.629135
      16A     -0.601537    17A     -0.583982    18A     -0.551820
      19A     -0.524609    20A     -0.511598    21A     -0.488297
      22A     -0.480901    23A     -0.477499    24A     -0.409176

  @DF-RHF Final Energy:  -270.01909582948883

   => Energetics <=

    Nuclear Repulsion Energy =            228.8210312247238676
    One-Electron Energy =                -818.8334754764364334
    Two-Electron Energy =                 319.9933484222235052
    DFT Exchange-Correlation Energy =       0.0000000000000000
    Empirical Dispersion Energy =           0.0000000000000000
    PCM Polarization Energy =               0.0000000000000000
    EFP Energy =                            0.0000000000000000
    Total Energy =                       -270.0190958294891175
    Molecular point group: c1
  Basis Set: 6-31G*
  Basis Set:

  -Total Gradient:
     Atom            X                  Y                   Z
    ------   -----------------  -----------------  -----------------
       1       -0.000021514012     0.000022962800     0.000017145453
       2        0.000017883451    -0.000064427385     0.000004427313
       3       -0.000023527966    -0.000010556046    -0.000019511318
       4       -0.000053122613     0.000039265532    -0.000004804170
       5        0.001799543990     0.002605458909    -0.002316099881
       6       -0.000016585284     0.000017163473    -0.000009443795
       7        0.000004301023    -0.000015767945     0.000016047991
       8       -0.001826058874    -0.003073413350    -0.001488128847
       9       -0.001171252421    -0.001695069442     0.002171716752
      10       -0.000023228774     0.000002215937     0.000010342346
      11        0.000036144396    -0.000024767217    -0.000023058300
      12        0.001243155628     0.002148486702     0.001653685068
      13        0.000013039292     0.000041331733    -0.000006006506
      14       -0.000021428796    -0.000007634678    -0.000014417075
      15        0.000024607399     0.000013285631     0.000016167539
      16        0.000018043552     0.000001465344    -0.000008062570

  **** Optimization is complete! (in 7 steps) ****
    Final optimized geometry and variables:
    Molecular point group: c1

    Geometry (in Angstrom), charge = 0, multiplicity = 1:

    H            2.091139972962    -0.655810384838     1.160498183368
    C            1.975093081630    -0.200896930665     0.169494970329
    C            0.708418756710     0.590699027648    -0.028770935191
    O            2.814260349757    -0.350819889827    -0.658375303028
    C           -0.543049207868    -0.247513887048     0.256058405829
    H            0.703141360497     0.976756597209    -1.041240686961
    H            0.736588881956     1.438551726132     0.655054381539
    C           -1.838738262800     0.564207982284     0.165200176231
    H           -0.588792577190    -1.092821866691    -0.426769983419
    H           -0.470219761572    -0.680860963898     1.252357955157
    C           -3.090572245559    -0.308806814833     0.125661642596
    H           -1.803675426232     1.211529612559    -0.707771854676
    H           -1.891940777822     1.234213752171     1.020928792062
    H           -3.096368318445    -0.946104813551    -0.753603128646
    H           -3.989929920448     0.298005224333     0.101699943662
    H           -3.147963535862    -0.950911934016     1.000077831456

  Mulliken Charges: (a.u.)
   Center  Symbol    Alpha    Beta     Spin     Total
       1     H     0.43198  0.43198  0.00000  0.13604
       2     C     2.82979  2.82979  0.00000  0.34043
       3     C     3.20821  3.20821  0.00000 -0.41641
       4     O     4.23710  4.23710  0.00000 -0.47419
       5     C     3.16507  3.16507  0.00000 -0.33014
       6     H     0.39899  0.39899  0.00000  0.20203
       7     H     0.40966  0.40966  0.00000  0.18069
       8     C     3.15191  3.15191  0.00000 -0.30382
       9     H     0.41270  0.41270  0.00000  0.17459
      10     H     0.41911  0.41911  0.00000  0.16178
      11     C     3.24063  3.24063  0.00000 -0.48125
      12     H     0.41868  0.41868  0.00000  0.16264
      13     H     0.42055  0.42055  0.00000  0.15891
      14     H     0.41882  0.41882  0.00000  0.16236
      15     H     0.41648  0.41648  0.00000  0.16703
      16     H     0.42034  0.42034  0.00000  0.15933

   Total alpha = 24.00000, Total beta = 24.00000, Total charge =  0.00000
