  ==> Input File <==

--------------------------------------------------------------------------
set {
	reference rhf
	basis cc-pvtz
}

set_num_threads( 4 )
memory 2 gb

molecule MOL {
0 1

H	 -2.074962	 0.062553	 -2.223610
C	 -2.754885	 0.796786	 -1.770297
C	 -2.653809	 0.914422	 -0.273689
O	 -3.497853	 1.414253	 -2.451502
C	 -1.216901	 1.136108	 0.207794
H	 -3.311694	 1.708620	 0.054595
H	 -3.027955	 -0.020818	 0.136977
C	 -0.247837	 0.040196	 -0.230469
H	 -0.872882	 2.093195	 -0.169002
H	 -1.209325	 1.218376	 1.291938
C	 1.181757	 0.280428	 0.247371
H	 -0.259600	 -0.030819	 -1.314870
H	 -0.591284	 -0.923375	 0.136958
C	 2.151032	 -0.811012	 -0.202643
H	 1.515939	 1.247397	 -0.115449
H	 1.191514	 0.341223	 1.333422
C	 3.580021	 -0.656538	 0.320835
H	 2.170545	 -0.847575	 -1.289412
H	 1.766632	 -1.772905	 0.124928
C	 4.327657	 0.562694	 -0.213579
H	 4.138806	 -1.549270	 0.057813
H	 3.561991	 -0.620783	 1.406976
H	 4.355973	 0.557257	 -1.298551
H	 3.867136	 1.491650	 0.100501
H	 5.351524	 0.571613	 0.142204

	symmetry c1
}
set optking {
	frozen_dihedral = ("
		6 3 5 8
	")
}

ee = optimize('scf')
oeprop('DIPOLE', 'QUADRUPOLE', 'MULLIKEN_CHARGES')
f=open( 'psi4out.xyz', 'w' )
f.write( "25  " )
f.write( str(ee) + "\n" )
f.write( MOL.save_string_xyz() )
f.close()
--------------------------------------------------------------------------

    Molecular point group: c1
  Charge       = 0
  Multiplicity = 1
  Basis Set: CC-PVTZ
  Basis Set:
  @DF-RHF Final Energy:  -387.25679785456907
    Total Energy =                       -387.2567978545690721
    Molecular point group: c1
  Basis Set: CC-PVTZ
  Basis Set:
  Basis Set: CC-PVTZ
  Basis Set:
  @DF-RHF Final Energy:  -387.25747189316257
    Total Energy =                       -387.2574718931624602
  Basis Set: CC-PVTZ
  Basis Set:
  Basis Set: CC-PVTZ
  Basis Set:
  @DF-RHF Final Energy:  -387.25329590895842
    Total Energy =                       -387.2532959089581936
  Basis Set: CC-PVTZ
  Basis Set:
  Basis Set: CC-PVTZ
  Basis Set:
  @DF-RHF Final Energy:  -387.25819925398542
    Total Energy =                       -387.2581992539851399
  Basis Set: CC-PVTZ
  Basis Set:
  @DF-RHF Final Energy:  -387.25842578629113
    Total Energy =                       -387.2584257862914683
  @DF-RHF Final Energy:  -387.25848516802756
    Total Energy =                       -387.2584851680273914
  Basis Set: CC-PVTZ
  Basis Set:
  @DF-RHF Final Energy:  -387.25855562274057
    Total Energy =                       -387.2585556227409143
  Basis Set: CC-PVTZ
  Basis Set:
  Basis Set: CC-PVTZ
  Basis Set:
  @DF-RHF Final Energy:  -387.25857029920564
    Total Energy =                       -387.2585702992058714
  Basis Set: CC-PVTZ
  Basis Set:
  Basis Set: CC-PVTZ
  Basis Set:
  @DF-RHF Final Energy:  -387.25857333681506
    Total Energy =                       -387.2585733368155161
  Basis Set: CC-PVTZ
  Basis Set:
  Charge       = 0
  Multiplicity = 1
  Basis Set: CC-PVTZ
  Basis Set:

    Orbital Energies (a.u.)
    -----------------------

    Doubly Occupied:

       1A    -20.551108     2A    -11.319638     3A    -11.233254
       4A    -11.232662     5A    -11.224973     6A    -11.219186
       7A    -11.217627     8A    -11.216934     9A    -11.209379
      10A     -1.405483    11A     -1.105596    12A     -1.070558
      13A     -1.014713    14A     -0.943944    15A     -0.877749
      16A     -0.828897    17A     -0.784118    18A     -0.775958
      19A     -0.683837    20A     -0.658787    21A     -0.633881
      22A     -0.619495    23A     -0.612689    24A     -0.583332
      25A     -0.574211    26A     -0.565844    27A     -0.535419
      28A     -0.520182    29A     -0.517519    30A     -0.501096
      31A     -0.487300    32A     -0.481431    33A     -0.467049
      34A     -0.460752    35A     -0.444517    36A     -0.409712

  @DF-RHF Final Energy:  -387.25857300933609

   => Energetics <=

    Nuclear Repulsion Energy =            439.1940096055938625
    One-Electron Energy =               -1394.9275033364674528
    Two-Electron Energy =                 568.4749207215377282
    DFT Exchange-Correlation Energy =       0.0000000000000000
    Empirical Dispersion Energy =           0.0000000000000000
    PCM Polarization Energy =               0.0000000000000000
    EFP Energy =                            0.0000000000000000
    Total Energy =                       -387.2585730093358052
    Molecular point group: c1
  Basis Set: CC-PVTZ
  Basis Set:

  -Total Gradient:
     Atom            X                  Y                   Z
    ------   -----------------  -----------------  -----------------
       1        0.000027233964     0.000003698792    -0.000002030764
       2       -0.000083348293    -0.000016452819    -0.000068023649
       3       -0.000173152181    -0.000474076877     0.000765072780
       4        0.000042417226    -0.000001839204     0.000057857671
       5       -0.000087185027    -0.000373668596     0.000667345409
       6        0.000164029392     0.000482965290    -0.000842179291
       7        0.000011755483     0.000044772670     0.000001262724
       8        0.000105185623     0.000343962380    -0.000600627037
       9       -0.000017374558     0.000002698837    -0.000002374400
      10        0.000007905952    -0.000012705669     0.000004000692
      11       -0.000043586900    -0.000015751207     0.000056020583
      12       -0.000001235947    -0.000004142363     0.000004187855
      13       -0.000000347874     0.000005789249     0.000012595819
      14        0.000044394289     0.000038028941    -0.000074577307
      15       -0.000052998261    -0.000045880751     0.000002855174
      16       -0.000001400402     0.000011899558     0.000021621697
      17       -0.000026285530     0.000043300507     0.000036486406
      18        0.000004450501     0.000005161032    -0.000020691362
      19        0.000026471061     0.000001550698    -0.000010410231
      20        0.000030938305    -0.000015836050    -0.000015112836
      21       -0.000005654326    -0.000010002808     0.000017630525
      22       -0.000015338236     0.000022584823     0.000005864245
      23       -0.000008817591     0.000014447291    -0.000014524409
      24        0.000047197420    -0.000034541258     0.000012764797
      25        0.000004745915    -0.000015962463    -0.000015015094

  **** Optimization is complete! (in 10 steps) ****
    Final optimized geometry and variables:
    Molecular point group: c1

    Geometry (in Angstrom), charge = 0, multiplicity = 1:

    H           -2.680816213837    -0.609880822542    -1.701681009025
    C           -2.988263080338     0.336379423239    -1.242843432552
    C           -2.789820561542     0.449308135922     0.246200571269
    O           -3.440171169363     1.197238983286    -1.917201803565
    C           -1.323694160760     0.691284734887     0.637814855735
    H           -3.400504577448     1.273368735004     0.590293461812
    H           -3.145631318963    -0.466397259909     0.710413596967
    C           -0.348041619890    -0.404013836199     0.209435177030
    H           -1.006026907056     1.641937646724     0.221047294746
    H           -1.284341322404     0.801287199327     1.716383464720
    C            1.070051834684    -0.162169817290     0.720894027009
    H           -0.321910112876    -0.476858952636    -0.873973808982
    H           -0.701870855329    -1.366182900360     0.572618111148
    C            2.055016301871    -1.243271248081     0.280085898562
    H            1.406083098672     0.810309121922     0.375779616900
    H            1.054576121731    -0.113225755968     1.807253328423
    C            3.470135808755    -1.089454812046     0.840217613017
    H            2.101627685366    -1.265422090677    -0.806319840781
    H            1.667640635978    -2.211339569550     0.586055961214
    C            4.227809029759     0.135270782632     0.333303527224
    H            4.037344631865    -1.979080399218     0.584675140123
    H            3.424717190633    -1.061750420766     1.925765295601
    H            4.279458821667     0.140050667562    -0.750773947201
    H            3.759910630800     1.060871727048     0.646066418457
    H            5.243717672656     0.141380813388     0.711163970128

  Mulliken Charges: (a.u.)
   Center  Symbol    Alpha    Beta     Spin     Total
       1     H     0.46079  0.46079  0.00000  0.07841
       2     C     2.90588  2.90588  0.00000  0.18825
       3     C     3.09011  3.09011  0.00000 -0.18022
       4     O     4.16700  4.16700  0.00000 -0.33400
       5     C     3.10452  3.10452  0.00000 -0.20905
       6     H     0.43773  0.43773  0.00000  0.12454
       7     H     0.44956  0.44956  0.00000  0.10087
       8     C     3.09789  3.09789  0.00000 -0.19577
       9     H     0.44424  0.44424  0.00000  0.11151
      10     H     0.44645  0.44645  0.00000  0.10710
      11     C     3.09205  3.09205  0.00000 -0.18410
      12     H     0.45035  0.45035  0.00000  0.09929
      13     H     0.45238  0.45238  0.00000  0.09524
      14     C     3.09550  3.09550  0.00000 -0.19100
      15     H     0.45020  0.45020  0.00000  0.09961
      16     H     0.45305  0.45305  0.00000  0.09391
      17     C     3.09078  3.09078  0.00000 -0.18156
      18     H     0.45303  0.45303  0.00000  0.09395
      19     H     0.44963  0.44963  0.00000  0.10074
      20     C     3.15245  3.15245  0.00000 -0.30490
      21     H     0.44788  0.44788  0.00000  0.10423
      22     H     0.45460  0.45460  0.00000  0.09080
      23     H     0.45430  0.45430  0.00000  0.09140
      24     H     0.45372  0.45372  0.00000  0.09255
      25     H     0.44590  0.44590  0.00000  0.10821

   Total alpha = 36.00000, Total beta = 36.00000, Total charge = -0.00000
