  ==> Input File <==

--------------------------------------------------------------------------
set {
	reference rhf
	basis 6-31G*
}

set_num_threads( 4 )
memory 2 gb

molecule MOL {
0 1

H	 0.254405	 2.858796	 0.594411
C	 0.795454	 1.914006	 0.458980
C	 0.065331	 0.871482	 -0.349150
O	 1.877030	 1.772587	 0.930058
C	 -1.339775	 0.583656	 0.198860
H	 0.671778	 -0.026506	 -0.376602
H	 -0.017195	 1.251853	 -1.366336
C	 -1.808407	 -0.848507	 -0.061364
H	 -2.036183	 1.280685	 -0.256307
H	 -1.360094	 0.788874	 1.267089
H	 -1.828843	 -1.063152	 -1.125336
H	 -2.808409	 -1.004529	 0.329750
H	 -1.153967	 -1.577789	 0.406873

	symmetry c1
}
set optking {
	frozen_dihedral = ("
		6 3 5 9
	")
}

ee = optimize('scf')
oeprop('DIPOLE', 'QUADRUPOLE', 'MULLIKEN_CHARGES')
f=open( 'psi4out.xyz', 'w' )
f.write( "13  " )
f.write( str(ee) + "\n" )
f.write( MOL.save_string_xyz() )
f.close()
--------------------------------------------------------------------------

    Molecular point group: c1
  Charge       = 0
  Multiplicity = 1
  Basis Set: 6-31G*
  Basis Set:
  @DF-RHF Final Energy:  -230.98192762893845
    Total Energy =                       -230.9819276289382231
    Molecular point group: c1
  Basis Set: 6-31G*
  Basis Set:
  Basis Set: 6-31G*
  Basis Set:
  @DF-RHF Final Energy:  -230.98182444953937
    Total Energy =                       -230.9818244495394310
  Basis Set: 6-31G*
  Basis Set:
  Basis Set: 6-31G*
  Basis Set:
  @DF-RHF Final Energy:  -230.97914735333833
    Total Energy =                       -230.9791473533383623
  Basis Set: 6-31G*
  Basis Set:
  Basis Set: 6-31G*
  Basis Set:
  @DF-RHF Final Energy:  -230.98227338261884
    Total Energy =                       -230.9822733826189278
  Basis Set: 6-31G*
  Basis Set:
  @DF-RHF Final Energy:  -230.98232617088212
    Total Energy =                       -230.9823261708822315
  Basis Set: 6-31G*
  Basis Set:
  @DF-RHF Final Energy:  -230.98233535848837
    Total Energy =                       -230.9823353584885410
  Basis Set: 6-31G*
  Basis Set:
  Basis Set: 6-31G*
  Basis Set:
  @DF-RHF Final Energy:  -230.98234602194964
    Total Energy =                       -230.9823460219495246
  Basis Set: 6-31G*
  Basis Set:
  Basis Set: 6-31G*
  Basis Set:
  @DF-RHF Final Energy:  -230.98234765134927
    Total Energy =                       -230.9823476513494711
  Basis Set: 6-31G*
  Basis Set:
  Charge       = 0
  Multiplicity = 1
  Basis Set: 6-31G*
  Basis Set:

    Orbital Energies (a.u.)
    -----------------------

    Doubly Occupied:

       1A    -20.562411     2A    -11.327299     3A    -11.239232
       4A    -11.235715     5A    -11.223462     6A     -1.402446
       7A     -1.085705     8A     -0.976159     9A     -0.839325
      10A     -0.795700    11A     -0.673477    12A     -0.640983
      13A     -0.636428    14A     -0.585586    15A     -0.556175
      16A     -0.535746    17A     -0.508190    18A     -0.493896
      19A     -0.480943    20A     -0.410838

  @DF-RHF Final Energy:  -230.98234860101104

   => Energetics <=

    Nuclear Repulsion Energy =            170.3743805048500803
    One-Electron Energy =                -650.2940254511722742
    Two-Electron Energy =                 248.9372963453112106
    DFT Exchange-Correlation Energy =       0.0000000000000000
    Empirical Dispersion Energy =           0.0000000000000000
    PCM Polarization Energy =               0.0000000000000000
    EFP Energy =                            0.0000000000000000
    Total Energy =                       -230.9823486010109832
    Molecular point group: c1
  Basis Set: 6-31G*
  Basis Set:

  -Total Gradient:
     Atom            X                  Y                   Z
    ------   -----------------  -----------------  -----------------
       1        0.000002156593    -0.000000407073    -0.000009664195
       2       -0.000018552494    -0.000015633757     0.000034178493
       3        0.001504925745     0.000483729619     0.004046739729
       4        0.000006219635     0.000002696285    -0.000001151564
       5        0.000415225703     0.002967316883     0.002605677186
       6       -0.001312729467    -0.000788967007    -0.003786942978
       7        0.000032594700    -0.000042798003    -0.000017666570
       8       -0.000005432582    -0.000017399757     0.000040099831
       9       -0.000625370222    -0.002577334155    -0.002905664466
      10        0.000012903928    -0.000002580495    -0.000002249989
      11        0.000008245949    -0.000003477011    -0.000001079477
      12       -0.000008342599    -0.000010673147    -0.000007923262
      13       -0.000011844897     0.000005527616     0.000005647262

  **** Optimization is complete! (in 9 steps) ****
    Final optimized geometry and variables:
    Molecular point group: c1

    Geometry (in Angstrom), charge = 0, multiplicity = 1:

    H            0.298950419778     1.978790563640     0.408729983515
    C            0.873172182490     1.063681068762     0.220588428688
    C            0.141819222368    -0.006672224912    -0.545071477739
    O            1.991651978423     0.969888838839     0.610724786417
    C           -1.275202564580    -0.274234987895    -0.001379228045
    H            0.743793056793    -0.907707612387    -0.560688113720
    H            0.068654072899     0.328045983319    -1.579343573149
    C           -1.742721995823    -1.699526560674    -0.299472817423
    H           -1.976912306275     0.416895341746    -0.458634806687
    H           -1.308265713977    -0.105061167363     1.071653051991
    H           -1.727530226302    -1.900346543247    -1.366781421653
    H           -2.756571137644    -1.857651323711     0.053408850030
    H           -1.102498421094    -2.430187544959     0.184768317521

  Mulliken Charges: (a.u.)
   Center  Symbol    Alpha    Beta     Spin     Total
       1     H     0.43148  0.43148  0.00000  0.13703
       2     C     2.83013  2.83013  0.00000  0.33975
       3     C     3.21037  3.21037  0.00000 -0.42074
       4     O     4.23815  4.23815  0.00000 -0.47631
       5     C     3.16468  3.16468  0.00000 -0.32935
       6     H     0.39840  0.39840  0.00000  0.20320
       7     H     0.40629  0.40629  0.00000  0.18742
       8     C     3.24032  3.24032  0.00000 -0.48063
       9     H     0.41569  0.41569  0.00000  0.16862
      10     H     0.41414  0.41414  0.00000  0.17172
      11     H     0.41876  0.41876  0.00000  0.16249
      12     H     0.41555  0.41555  0.00000  0.16890
      13     H     0.41605  0.41605  0.00000  0.16790

   Total alpha = 20.00000, Total beta = 20.00000, Total charge = -0.00000
