  ==> Input File <==

--------------------------------------------------------------------------
set {
	reference rhf
	basis cc-pvtz
}

set_num_threads( 4 )
memory 2 gb

molecule MOL {
0 1

O	 1.847685	 1.294399	 -0.000190
C	 1.704209	 0.119472	 -0.000093
C	 0.380337	 -0.600947	 -0.000234
O	 2.715427	 -0.733672	 0.000025
C	 -0.824290	 0.329213	 -0.000115
H	 0.371455	 -1.255476	 -0.865660
H	 0.371410	 -1.255787	 0.864952
C	 -2.146151	 -0.432825	 -0.000068
H	 -0.773936	 0.979158	 -0.866319
H	 -0.773838	 0.979034	 0.866186
C	 -3.366283	 0.483552	 0.000557
H	 -2.189286	 -1.084450	 -0.869996
H	 -2.188867	 -1.085083	 0.869399
C	 -4.685075	 -0.274931	 0.104975
H	 -3.365089	 1.081668	 -0.906313
H	 -3.286984	 1.184492	 0.826725
H	 -4.809809	 -0.960167	 -0.726966
H	 -5.529631	 0.404373	 0.102531
H	 -4.731260	 -0.856221	 1.019963
C	 4.020999	 -0.192556	 0.000019
H	 4.182809	 0.412891	 -0.879449
H	 4.692590	 -1.035653	 0.000152
H	 4.182726	 0.413087	 0.879368

	symmetry c1
}
set optking {
	frozen_dihedral = ("
		15 11 8 12
	")
}

ee = optimize('scf')
oeprop('DIPOLE', 'QUADRUPOLE', 'MULLIKEN_CHARGES')
f=open( 'psi4out.xyz', 'w' )
f.write( "23  " )
f.write( str(ee) + "\n" )
f.write( MOL.save_string_xyz() )
f.close()
--------------------------------------------------------------------------

    Molecular point group: c1
  Charge       = 0
  Multiplicity = 1
  Basis Set: CC-PVTZ
  Basis Set:
  @DF-RHF Final Energy:  -423.13102903507365
    Total Energy =                       -423.1310290350738796
    Molecular point group: c1
  Basis Set: CC-PVTZ
  Basis Set:
  Basis Set: CC-PVTZ
  Basis Set:
  @DF-RHF Final Energy:  -423.13103694555542
    Total Energy =                       -423.1310369455551381
  Basis Set: CC-PVTZ
  Basis Set:
  Basis Set: CC-PVTZ
  Basis Set:
  @DF-RHF Final Energy:  -423.13103836708814
    Total Energy =                       -423.1310383670883084
  Basis Set: CC-PVTZ
  Basis Set:
  Basis Set: CC-PVTZ
  Basis Set:
  @DF-RHF Final Energy:  -423.13103719310328
    Total Energy =                       -423.1310371931040208
  Basis Set: CC-PVTZ
  Basis Set:
  Charge       = 0
  Multiplicity = 1
  Basis Set: CC-PVTZ
  Basis Set:

    Orbital Energies (a.u.)
    -----------------------

    Doubly Occupied:

       1A    -20.596274     2A    -20.534085     3A    -11.364525
       4A    -11.278457     5A    -11.233749     6A    -11.217122
       7A    -11.215836     8A    -11.214525     9A    -11.207706
      10A     -1.472166    11A     -1.365739    12A     -1.094494
      13A     -1.044769    14A     -0.988020    15A     -0.932679
      16A     -0.844000    17A     -0.795480    18A     -0.769259
      19A     -0.699079    20A     -0.686910    21A     -0.675343
      22A     -0.653046    23A     -0.609888    24A     -0.600932
      25A     -0.573629    26A     -0.559946    27A     -0.557620
      28A     -0.525236    29A     -0.522285    30A     -0.508077
      31A     -0.485006    32A     -0.469847    33A     -0.467509
      34A     -0.463241    35A     -0.459094    36A     -0.438350

  @DF-RHF Final Energy:  -423.13104124491895

   => Energetics <=

    Nuclear Repulsion Energy =            452.9015117304151090
    One-Electron Energy =               -1473.8172601875169221
    Two-Electron Energy =                 597.7847072121825249
    DFT Exchange-Correlation Energy =       0.0000000000000000
    Empirical Dispersion Energy =           0.0000000000000000
    PCM Polarization Energy =               0.0000000000000000
    EFP Energy =                            0.0000000000000000
    Total Energy =                       -423.1310412449192881
    Molecular point group: c1
  Basis Set: CC-PVTZ
  Basis Set:

  -Total Gradient:
     Atom            X                  Y                   Z
    ------   -----------------  -----------------  -----------------
       1        0.000000170919     0.000003070795     0.000010310536
       2        0.000003215703    -0.000005235614    -0.000032305483
       3        0.000003057452     0.000001151031     0.000005437837
       4       -0.000005785438     0.000000661779     0.000008323249
       5       -0.000005218817    -0.000004588104     0.000025452570
       6        0.000002741004    -0.000000769470    -0.000000927532
       7       -0.000003183390     0.000000852463    -0.000000572540
       8       -0.000609304046    -0.000798876205     0.000436920964
       9       -0.000000678433    -0.000002140236     0.000000890600
      10        0.000007438344     0.000006065097     0.000000451507
      11        0.000623141465     0.000828154834     0.000350029186
      12        0.000407129477     0.000543893754    -0.000433228876
      13        0.000001449301     0.000001758588     0.000000053485
      14        0.000004803500     0.000004914769     0.000012083152
      15       -0.000424376497    -0.000570663808    -0.000384094202
      16        0.000000657166    -0.000003742483    -0.000002040161
      17       -0.000000102425     0.000002357714    -0.000000258293
      18       -0.000002242166    -0.000001940512     0.000001985516
      19       -0.000006306284    -0.000006465800     0.000000462687
      20        0.000005648110     0.000002564776     0.000001084987
      21       -0.000001277515    -0.000000434029     0.000000117335
      22       -0.000000762564    -0.000000182477     0.000000187842
      23       -0.000000214867    -0.000000406866    -0.000000364365

  **** Optimization is complete! (in 5 steps) ****
    Final optimized geometry and variables:
    Molecular point group: c1

    Geometry (in Angstrom), charge = 0, multiplicity = 1:

    O            1.847290075383     1.293900772821    -0.009335542051
    C            1.703899132296     0.118957178112    -0.012472437396
    C            0.380118210881    -0.601567275922    -0.010040375212
    O            2.715261352594    -0.734067180392    -0.018519343061
    C           -0.824546317333     0.328504554528    -0.002849258826
    H            0.368379559203    -1.253580259587    -0.877319317186
    H            0.374352311335    -1.258878424145     0.853319995190
    C           -2.146658692691    -0.433758296913     0.001524492615
    H           -0.778013218656     0.980093938551    -0.868127654789
    H           -0.770254769526     0.976698995208     0.864372071148
    C           -3.365785496619     0.484103151212    -0.008693452413
    H           -2.186422572652    -1.087875508976    -0.866608812676
    H           -2.190028034873    -1.079955007366     0.875253031689
    C           -4.685843138857    -0.274781862424     0.080545928883
    H           -3.357178201799     1.078263797910    -0.918058092038
    H           -3.296023164729     1.185258832914     0.817903018507
    H           -4.797234062332    -0.965642297104    -0.748721818548
    H           -5.530736689399     0.403849045422     0.060277125882
    H           -4.745895536979    -0.850064626318     0.998477777773
    C            4.020686837779    -0.192801999742    -0.021339819558
    H            4.179462249173     0.415438810141    -0.899449098484
    H            4.692439148064    -1.035778373305    -0.026190829009
    H            4.185475837732     0.410107393464     0.859334258074

  Mulliken Charges: (a.u.)
   Center  Symbol    Alpha    Beta     Spin     Total
       1     O     4.19703  4.19703  0.00000 -0.39405
       2     C     2.80690  2.80690  0.00000  0.38620
       3     C     3.10122  3.10122  0.00000 -0.20243
       4     O     4.14647  4.14647  0.00000 -0.29293
       5     C     3.08331  3.08331  0.00000 -0.16662
       6     H     0.44015  0.44015  0.00000  0.11969
       7     H     0.44014  0.44014  0.00000  0.11971
       8     C     3.08934  3.08934  0.00000 -0.17869
       9     H     0.44642  0.44642  0.00000  0.10716
      10     H     0.44638  0.44638  0.00000  0.10724
      11     C     3.08405  3.08405  0.00000 -0.16809
      12     H     0.45562  0.45562  0.00000  0.08876
      13     H     0.45586  0.45586  0.00000  0.08827
      14     C     3.15037  3.15037  0.00000 -0.30073
      15     H     0.45314  0.45314  0.00000  0.09372
      16     H     0.45327  0.45327  0.00000  0.09346
      17     H     0.45537  0.45537  0.00000  0.08926
      18     H     0.44778  0.44778  0.00000  0.10444
      19     H     0.45533  0.45533  0.00000  0.08934
      20     C     3.03780  3.03780  0.00000 -0.07560
      21     H     0.45436  0.45436  0.00000  0.09128
      22     H     0.44534  0.44534  0.00000  0.10932
      23     H     0.45435  0.45435  0.00000  0.09129

   Total alpha = 36.00000, Total beta = 36.00000, Total charge = -0.00000
