  ==> Input File <==

--------------------------------------------------------------------------
set {
	reference rhf
	basis 6-31G*
}

set_num_threads( 4 )
memory 2 gb

molecule MOL {
0 1

O	 3.225979	 0.970355	 -0.599647
C	 2.701189	 0.057885	 -0.047330
C	 1.245376	 -0.013843	 0.345420
O	 3.347903	 -1.046386	 0.304773
C	 0.455112	 1.231400	 -0.050772
H	 0.838542	 -0.913825	 -0.103701
H	 1.208210	 -0.175333	 1.419774
C	 -0.998893	 1.219485	 0.433193
H	 0.482531	 1.345121	 -1.130325
H	 0.957290	 2.103070	 0.354729
C	 -1.187669	 1.545023	 1.917611
H	 -1.410344	 0.231666	 0.239167
H	 -1.586216	 1.913582	 -0.166215
C	 -2.641553	 1.412606	 2.375528
H	 -0.561730	 0.881003	 2.511829
H	 -0.844659	 2.555893	 2.126075
C	 -2.842984	 1.740604	 3.856060
H	 -2.988635	 0.398954	 2.182455
H	 -3.269543	 2.068417	 1.774495
C	 -4.296920	 1.602241	 4.306201
H	 -2.215410	 1.086848	 4.458053
H	 -2.500657	 2.754966	 4.050130
H	 -4.407494	 1.841221	 5.359419
H	 -4.658601	 0.588714	 4.157388
H	 -4.946036	 2.269267	 3.745845
C	 4.728119	 -1.109107	 -0.004993
H	 4.882018	 -1.033965	 -1.071845
H	 5.068212	 -2.067527	 0.355250
H	 5.265056	 -0.311663	 0.488280

	symmetry c1
}
set optking {
	frozen_dihedral = ("
		11 8 5 9
	")
}

ee = optimize('scf')
oeprop('DIPOLE', 'QUADRUPOLE', 'MULLIKEN_CHARGES')
f=open( 'psi4out.xyz', 'w' )
f.write( "29  " )
f.write( str(ee) + "\n" )
f.write( MOL.save_string_xyz() )
f.close()
--------------------------------------------------------------------------

    Molecular point group: c1
  Charge       = 0
  Multiplicity = 1
  Basis Set: 6-31G*
  Basis Set:
  @DF-RHF Final Energy:  -501.04317897310000
    Total Energy =                       -501.0431789730995433
    Molecular point group: c1
  Basis Set: 6-31G*
  Basis Set:
  Basis Set: 6-31G*
  Basis Set:
  @DF-RHF Final Energy:  -501.04360962967155
    Total Energy =                       -501.0436096296712094
  Basis Set: 6-31G*
  Basis Set:
  Basis Set: 6-31G*
  Basis Set:
  @DF-RHF Final Energy:  -501.04336395377891
    Total Energy =                       -501.0433639537786803
  Basis Set: 6-31G*
  Basis Set:
  Basis Set: 6-31G*
  Basis Set:
  @DF-RHF Final Energy:  -501.04367833456035
    Total Energy =                       -501.0436783345602407
  Basis Set: 6-31G*
  Basis Set:
  Basis Set: 6-31G*
  Basis Set:
  @DF-RHF Final Energy:  -501.04366686554920
    Total Energy =                       -501.0436668655495396
  Basis Set: 6-31G*
  Basis Set:
  Basis Set: 6-31G*
  Basis Set:
  @DF-RHF Final Energy:  -501.04368440894450
    Total Energy =                       -501.0436844089442729
  Basis Set: 6-31G*
  Basis Set:
  Charge       = 0
  Multiplicity = 1
  Basis Set: 6-31G*
  Basis Set:

    Orbital Energies (a.u.)
    -----------------------

    Doubly Occupied:

       1A    -20.603430     2A    -20.545243     3A    -11.372041
       4A    -11.280702     5A    -11.235019     6A    -11.218945
       7A    -11.217535     8A    -11.215809     9A    -11.215669
      10A    -11.214243    11A    -11.208934    12A     -1.469111
      13A     -1.362560    14A     -1.097745    15A     -1.066833
      16A     -1.019641    17A     -0.977213    18A     -0.928216
      19A     -0.860375    20A     -0.799678    21A     -0.790418
      22A     -0.765124    23A     -0.700998    24A     -0.682187
      25A     -0.672402    26A     -0.649682    27A     -0.628349
      28A     -0.604817    29A     -0.595581    30A     -0.580978
      31A     -0.566546    32A     -0.547997    33A     -0.533283
      34A     -0.530222    35A     -0.515463    36A     -0.509562
      37A     -0.497869    38A     -0.477544    39A     -0.470508
      40A     -0.462761    41A     -0.458684    42A     -0.455994
      43A     -0.441370    44A     -0.434522

  @DF-RHF Final Energy:  -501.04368455135977

   => Energetics <=

    Nuclear Repulsion Energy =            609.4081100507621613
    One-Electron Energy =               -1889.9399821114170663
    Two-Electron Energy =                 779.4881875092952441
    DFT Exchange-Correlation Energy =       0.0000000000000000
    Empirical Dispersion Energy =           0.0000000000000000
    PCM Polarization Energy =               0.0000000000000000
    EFP Energy =                            0.0000000000000000
    Total Energy =                       -501.0436845513596609
    Molecular point group: c1
  Basis Set: 6-31G*
  Basis Set:

  -Total Gradient:
     Atom            X                  Y                   Z
    ------   -----------------  -----------------  -----------------
       1        0.000003665667     0.000002166973     0.000020171595
       2       -0.000011990238    -0.000001380331    -0.000014054138
       3       -0.000007375907    -0.000016371565    -0.000053284961
       4        0.000001953147    -0.000004414294    -0.000009545020
       5       -0.000026729029    -0.001851899773    -0.000358213284
       6        0.000002908782     0.000008023076     0.000018251781
       7        0.000003328505     0.000017700774     0.000011302540
       8        0.000229491862    -0.001476955327     0.000482926928
       9       -0.000024107166     0.001935735681     0.000208717897
      10       -0.000005228936     0.000005583996     0.000002508185
      11       -0.000168341107     0.001387514797    -0.000310739021
      12        0.000012935976     0.000004049505     0.000003648877
      13       -0.000015002340     0.000000949754    -0.000006481943
      14        0.000002797814     0.000005080185    -0.000000466642
      15       -0.000013906403     0.000001617241     0.000004369016
      16        0.000009275910     0.000000931121    -0.000006649003
      17        0.000003443358    -0.000019768812     0.000004125951
      18        0.000014922772    -0.000004323959    -0.000000034364
      19       -0.000012224346    -0.000006643905     0.000001851718
      20       -0.000002615197     0.000022158401    -0.000005191185
      21       -0.000004663086    -0.000008330645     0.000000723431
      22        0.000006338698    -0.000007394432     0.000003156327
      23       -0.000001024647     0.000007623676    -0.000001679184
      24        0.000007175516     0.000000397650     0.000004348467
      25       -0.000006969411    -0.000003091438    -0.000003705070
      26       -0.000001394635     0.000000836711     0.000004119538
      27       -0.000000146193    -0.000000000709     0.000000291064
      28        0.000001888457    -0.000000029550    -0.000000297939
      29        0.000001592149     0.000000235204    -0.000000171556

  **** Optimization is complete! (in 7 steps) ****
    Final optimized geometry and variables:
    Molecular point group: c1

    Geometry (in Angstrom), charge = 0, multiplicity = 1:

    O            2.828241981662     0.291776005908    -1.830730192794
    C            2.340249412641    -0.606632335542    -1.224271554010
    C            0.906201514429    -0.676817410916    -0.758687656730
    O            3.014134609105    -1.693505900898    -0.869147888442
    C            0.084037575334     0.547367548953    -1.152980025877
    H            0.476080154558    -1.585678632819    -1.170699552385
    H            0.925772693447    -0.820216120234     0.317261635633
    C           -1.376533081915     0.476903588077    -0.688599551775
    H            0.119042216104     0.667925091308    -2.230367233564
    H            0.552788407110     1.438622105021    -0.746985208882
    C           -1.581959418632     0.788999962625     0.796590464108
    H           -1.789672173215    -0.503755296629    -0.918895056388
    H           -1.955908100959     1.190352225448    -1.269836965950
    C           -3.050419931248     0.734087144888     1.221935370309
    H           -1.010858272876     0.093695893231     1.408829422897
    H           -1.182613637681     1.779244581068     1.007687705516
    C           -3.265606502648     1.059853975683     2.701047288801
    H           -3.449826550626    -0.256733186978     1.011343036962
    H           -3.627114753668     1.429473029212     0.614211934890
    C           -4.735438036537     1.008276202228     3.116546252133
    H           -2.694151647486     0.362670220985     3.310277047605
    H           -2.865405979973     2.048925559183     2.913518794457
    H           -4.855570959155     1.244754280856     4.169286259966
    H           -5.155720099196     0.020485888823     2.949465974503
    H           -5.328655095867     1.719114320710     2.548205403774
    C            4.377721903378    -1.755679753539    -1.245576222379
    H            4.477486648600    -1.714538831175    -2.320693678405
    H            4.744347242809    -2.699041414535    -0.871888462254
    H            4.931040464240    -0.938264703366    -0.806036763308

  Mulliken Charges: (a.u.)
   Center  Symbol    Alpha    Beta     Spin     Total
       1     O     4.28596  4.28596  0.00000 -0.57192
       2     C     2.60505  2.60505  0.00000  0.78990
       3     C     3.20867  3.20867  0.00000 -0.41734
       4     O     4.30747  4.30747  0.00000 -0.61494
       5     C     3.15500  3.15500  0.00000 -0.30999
       6     H     0.40083  0.40083  0.00000  0.19835
       7     H     0.39943  0.39943  0.00000  0.20114
       8     C     3.15746  3.15746  0.00000 -0.31492
       9     H     0.40955  0.40955  0.00000  0.18090
      10     H     0.41168  0.41168  0.00000  0.17663
      11     C     3.15383  3.15383  0.00000 -0.30765
      12     H     0.42389  0.42389  0.00000  0.15222
      13     H     0.41816  0.41816  0.00000  0.16368
      14     C     3.15049  3.15049  0.00000 -0.30098
      15     H     0.42462  0.42462  0.00000  0.15077
      16     H     0.42170  0.42170  0.00000  0.15661
      17     C     3.15146  3.15146  0.00000 -0.30292
      18     H     0.42408  0.42408  0.00000  0.15184
      19     H     0.42345  0.42345  0.00000  0.15310
      20     C     3.23934  3.23934  0.00000 -0.47867
      21     H     0.42341  0.42341  0.00000  0.15318
      22     H     0.42268  0.42268  0.00000  0.15464
      23     H     0.41923  0.41923  0.00000  0.16155
      24     H     0.42189  0.42189  0.00000  0.15621
      25     H     0.42158  0.42158  0.00000  0.15684
      26     C     3.09242  3.09242  0.00000 -0.18484
      27     H     0.40909  0.40909  0.00000  0.18183
      28     H     0.40850  0.40850  0.00000  0.18299
      29     H     0.40910  0.40910  0.00000  0.18181

   Total alpha = 44.00000, Total beta = 44.00000, Total charge =  0.00000
