  ==> Input File <==

--------------------------------------------------------------------------
set {
	reference rhf
	basis 6-31G*
}

set_num_threads( 1 )
memory 2 gb

molecule MOL {
0 1

H	 3.200789	 0.429907	 -1.435678
O	 2.270735	 0.268544	 -1.310315
C	 2.077727	 -0.067559	 -0.035091
C	 0.624473	 -0.343591	 0.253101
O	 2.972328	 -0.129213	 0.743949
C	 -0.265902	 0.883932	 0.072916
H	 0.324016	 -1.163849	 -0.390541
H	 0.565024	 -0.726111	 1.268924
C	 -1.728698	 0.646073	 0.462102
H	 -0.209144	 1.219470	 -0.958188
H	 0.135059	 1.692851	 0.673903
C	 -2.482460	 -0.343073	 -0.431425
H	 -2.245265	 1.602650	 0.432430
H	 -1.779332	 0.308348	 1.496285
C	 -3.960546	 -0.461025	 -0.060175
H	 -2.395034	 -0.026811	 -1.468912
H	 -2.024850	 -1.327147	 -0.371646
H	 -4.472726	 -1.168004	 -0.705284
H	 -4.465146	 0.496508	 -0.151489
H	 -4.081218	 -0.800940	 0.964585

	symmetry c1
}
set optking {
	frozen_dihedral = ("
		16 12 9 6,
		7 4 6 10,
		12 9 6 10,
		1 2 3 5
	")
}

ee = energy('scf')
oeprop('DIPOLE', 'QUADRUPOLE', 'MULLIKEN_CHARGES')
f=open( 'psi4out.xyz', 'w' )
f.write( "20  " )
f.write( str(ee) + "\n" )
f.write( MOL.save_string_xyz() )
f.close()
--------------------------------------------------------------------------

    Molecular point group: c1

    Geometry (in Angstrom), charge = 0, multiplicity = 1:

       Center              X                  Y                   Z               Mass
    ------------   -----------------  -----------------  -----------------  -----------------
           H          3.222729058130     0.373510255076    -1.379059361354     1.007825032070
           O          2.292675058130     0.212147255076    -1.253696361354    15.994914619560
           C          2.099667058130    -0.123955744924     0.021527638646    12.000000000000
           C          0.646413058130    -0.399987744924     0.309719638646    12.000000000000
           O          2.994268058130    -0.185609744924     0.800567638646    15.994914619560
           C         -0.243961941870     0.827535255076     0.129534638646    12.000000000000
           H          0.345956058130    -1.220245744924    -0.333922361354     1.007825032070
           H          0.586964058130    -0.782507744924     1.325542638646     1.007825032070
           C         -1.706757941870     0.589676255076     0.518720638646    12.000000000000
           H         -0.187203941870     1.163073255076    -0.901569361354     1.007825032070
           H          0.156999058130     1.636454255076     0.730521638646     1.007825032070
           C         -2.460519941870    -0.399469744924    -0.374806361354    12.000000000000
           H         -2.223324941870     1.546253255076     0.489048638646     1.007825032070
           H         -1.757391941870     0.251951255076     1.552903638646     1.007825032070
           C         -3.938605941870    -0.517421744924    -0.003556361354    12.000000000000
           H         -2.373093941870    -0.083207744924    -1.412293361354     1.007825032070
           H         -2.002909941870    -1.383543744924    -0.315027361354     1.007825032070
           H         -4.450785941870    -1.224400744924    -0.648665361354     1.007825032070
           H         -4.443205941870     0.440111255076    -0.094870361354     1.007825032070
           H         -4.059277941870    -0.857336744924     1.021203638646     1.007825032070

  Charge       = 0
  Multiplicity = 1
  Basis Set: 6-31G*
  Basis Set:

    Orbital Energies (a.u.)
    -----------------------

    Doubly Occupied:

       1A    -20.612565     2A    -20.550039     3A    -11.379811
       4A    -11.238403     5A    -11.231660     6A    -11.224396
       7A    -11.222474     8A    -11.214065     9A     -1.473910
      10A     -1.364294    11A     -1.100091    12A     -1.042787
      13A     -0.960985    14A     -0.865232    15A     -0.822153
      16A     -0.791492    17A     -0.700086    18A     -0.685026
      19A     -0.652636    20A     -0.629540    21A     -0.615328
      22A     -0.593214    23A     -0.575874    24A     -0.553060
      25A     -0.548713    26A     -0.516690    27A     -0.501589
      28A     -0.480386    29A     -0.477680    30A     -0.468223
      31A     -0.461855    32A     -0.434976

  @DF-RHF Final Energy:  -383.94706402544784

   => Energetics <=

    Nuclear Repulsion Energy =            376.8169125284039183
    One-Electron Energy =               -1269.5494640530810102
    Two-Electron Energy =                 508.7854874992296459
    DFT Exchange-Correlation Energy =       0.0000000000000000
    Empirical Dispersion Energy =           0.0000000000000000
    PCM Polarization Energy =               0.0000000000000000
    EFP Energy =                            0.0000000000000000
    Total Energy =                       -383.9470640254474461

  Mulliken Charges: (a.u.)
   Center  Symbol    Alpha    Beta     Spin     Total
       1     H     0.26778  0.26778  0.00000  0.46443
       2     O     4.34678  4.34678  0.00000 -0.69355
       3     C     2.63205  2.63205  0.00000  0.73590
       4     C     3.20190  3.20190  0.00000 -0.40381
       5     O     4.27865  4.27865  0.00000 -0.55730
       6     C     3.16545  3.16545  0.00000 -0.33089
       7     H     0.40082  0.40082  0.00000  0.19837
       8     H     0.39874  0.39874  0.00000  0.20252
       9     C     3.15431  3.15431  0.00000 -0.30862
      10     H     0.40722  0.40722  0.00000  0.18556
      11     H     0.41148  0.41148  0.00000  0.17704
      12     C     3.15486  3.15486  0.00000 -0.30972
      13     H     0.41783  0.41783  0.00000  0.16433
      14     H     0.42080  0.42080  0.00000  0.15839
      15     C     3.23958  3.23958  0.00000 -0.47916
      16     H     0.42087  0.42087  0.00000  0.15826
      17     H     0.42166  0.42166  0.00000  0.15667
      18     H     0.41777  0.41777  0.00000  0.16445
      19     H     0.42072  0.42072  0.00000  0.15855
      20     H     0.42071  0.42071  0.00000  0.15858

   Total alpha = 32.00000, Total beta = 32.00000, Total charge = -0.00000
