  ==> Input File <==

--------------------------------------------------------------------------
set {
	reference rhf
	basis cc-pvtz
}

set_num_threads( 4 )
memory 2 gb

molecule MOL {
0 1

O	 0.074770	 1.259872	 0.000487
C	 0.029490	 0.077183	 0.000078
C	 -1.232113	 -0.748027	 0.000015
O	 1.106773	 -0.690081	 -0.000204
C	 -2.501422	 0.088592	 -0.000052
H	 -1.188777	 -1.400384	 -0.865133
H	 -1.188857	 -1.400312	 0.865225
H	 -2.548170	 0.725504	 -0.873205
H	 -3.371613	 -0.556398	 -0.000040
H	 -2.548215	 0.725571	 0.873047
C	 2.352685	 -0.059371	 0.217852
H	 2.547891	 0.674673	 -0.549813
H	 3.093043	 -0.841911	 0.181445
H	 2.370428	 0.426138	 1.182327

	symmetry c1
}
set optking {
	frozen_dihedral = ("
		11 4 2 3
	")
}

ee = optimize('scf')
oeprop('DIPOLE', 'QUADRUPOLE', 'MULLIKEN_CHARGES')
f=open( 'psi4out.xyz', 'w' )
f.write( "14  " )
f.write( str(ee) + "\n" )
f.write( MOL.save_string_xyz() )
f.close()
--------------------------------------------------------------------------

    Molecular point group: c1
  Charge       = 0
  Multiplicity = 1
  Basis Set: CC-PVTZ
  Basis Set:
  @DF-RHF Final Energy:  -305.98709014905978
    Total Energy =                       -305.9870901490600090
    Molecular point group: c1
  Basis Set: CC-PVTZ
  Basis Set:
  Basis Set: CC-PVTZ
  Basis Set:
  @DF-RHF Final Energy:  -305.98620558555160
    Total Energy =                       -305.9862055855516587
  Basis Set: CC-PVTZ
  Basis Set:
  Basis Set: CC-PVTZ
  Basis Set:
  @DF-RHF Final Energy:  -305.98717849148369
    Total Energy =                       -305.9871784914838031
  Basis Set: CC-PVTZ
  Basis Set:
  Basis Set: CC-PVTZ
  Basis Set:
  @DF-RHF Final Energy:  -305.98719797424030
    Total Energy =                       -305.9871979742400754
  Basis Set: CC-PVTZ
  Basis Set:
  Basis Set: CC-PVTZ
  Basis Set:
  @DF-RHF Final Energy:  -305.98721143051375
    Total Energy =                       -305.9872114305137529
  Basis Set: CC-PVTZ
  Basis Set:
  Charge       = 0
  Multiplicity = 1
  Basis Set: CC-PVTZ
  Basis Set:

    Orbital Energies (a.u.)
    -----------------------

    Doubly Occupied:

       1A    -20.596797     2A    -20.535148     3A    -11.365301
       4A    -11.279328     5A    -11.237344     6A    -11.214958
       7A     -1.472836     8A     -1.366792     9A     -1.065450
      10A     -0.981140    11A     -0.879275    12A     -0.770964
      13A     -0.702854    14A     -0.685782    15A     -0.675605
      16A     -0.621689    17A     -0.604307    18A     -0.546904
      19A     -0.538746    20A     -0.522602    21A     -0.515658
      22A     -0.497354    23A     -0.461295    24A     -0.442497

  @DF-RHF Final Energy:  -305.98721168624206

   => Energetics <=

    Nuclear Repulsion Energy =            247.5436142819689564
    One-Electron Energy =                -907.9003953079560461
    Two-Electron Energy =                 354.3695693397452828
    DFT Exchange-Correlation Energy =       0.0000000000000000
    Empirical Dispersion Energy =           0.0000000000000000
    PCM Polarization Energy =               0.0000000000000000
    EFP Energy =                            0.0000000000000000
    Total Energy =                       -305.9872116862417784
    Molecular point group: c1
  Basis Set: CC-PVTZ
  Basis Set:

  -Total Gradient:
     Atom            X                  Y                   Z
    ------   -----------------  -----------------  -----------------
       1        0.000034507469    -0.000054245273    -0.000008479168
       2       -0.000236518921     0.000033622126    -0.001893044619
       3        0.000051018716    -0.000133106400     0.002176122720
       4        0.000341763396     0.000680710758    -0.002645154102
       5        0.000006426247    -0.000019076348    -0.000005601132
       6       -0.000004608625    -0.000006144342    -0.000001963842
       7        0.000004865086    -0.000007211518    -0.000003039375
       8        0.000002894346     0.000003275118    -0.000002728451
       9        0.000000648531     0.000003009516     0.000003325188
      10       -0.000002195476     0.000000422326     0.000001012506
      11       -0.000198142674    -0.000513726223     0.002417939510
      12        0.000006162703     0.000008054973    -0.000015951826
      13       -0.000008799125    -0.000000199046    -0.000013249445
      14        0.000001978329     0.000004614334    -0.000009187966

  **** Optimization is complete! (in 6 steps) ****
    Final optimized geometry and variables:
    Molecular point group: c1

    Geometry (in Angstrom), charge = 0, multiplicity = 1:

    O            0.073593724070     1.259596147386     0.095399979966
    C            0.029945950245     0.082205455735    -0.015595801738
    C           -1.229652501529    -0.745232551316    -0.037123375446
    O            1.108921547721    -0.679241653905    -0.098634046725
    C           -2.500184422281     0.087972709131    -0.088684813720
    H           -1.165340703805    -1.425705459510    -0.878153688992
    H           -1.204620372041    -1.367803623022     0.851188242095
    H           -2.530273260007     0.697576289627    -0.982330469012
    H           -3.369187944382    -0.558567653599    -0.087927848863
    H           -2.565387631065     0.751173240977     0.762950554473
    C            2.358990904445    -0.059577552099     0.127504249390
    H            2.555053169466     0.693858131229    -0.620643598993
    H            3.095512624535    -0.844212153267     0.066762307813
    H            2.382736028755     0.399488032643     1.104983328800

  Mulliken Charges: (a.u.)
   Center  Symbol    Alpha    Beta     Spin     Total
       1     O     4.19585  4.19585  0.00000 -0.39170
       2     C     2.80276  2.80276  0.00000  0.39447
       3     C     3.09389  3.09389  0.00000 -0.18779
       4     O     4.14749  4.14749  0.00000 -0.29497
       5     C     3.14010  3.14010  0.00000 -0.28021
       6     H     0.44002  0.44002  0.00000  0.11997
       7     H     0.44277  0.44277  0.00000  0.11445
       8     H     0.44964  0.44964  0.00000  0.10072
       9     H     0.45029  0.45029  0.00000  0.09942
      10     H     0.44690  0.44690  0.00000  0.10620
      11     C     3.03606  3.03606  0.00000 -0.07212
      12     H     0.45272  0.45272  0.00000  0.09456
      13     H     0.44551  0.44551  0.00000  0.10899
      14     H     0.45600  0.45600  0.00000  0.08800

   Total alpha = 24.00000, Total beta = 24.00000, Total charge = -0.00000
