  ==> Input File <==

--------------------------------------------------------------------------
set {
	reference rhf
	basis 6-31G*
}

set_num_threads( 4 )
memory 2 gb

molecule MOL {
0 1

H	 1.362784	 0.620471	 0.952505
C	 0.850167	 0.441173	 0.000644
C	 -0.623425	 0.760064	 0.000248
O	 1.454703	 0.028084	 -0.935112
C	 -1.518387	 -0.473136	 -0.000101
H	 -0.818289	 1.390622	 -0.866171
H	 -0.818694	 1.390413	 0.866696
H	 -1.333417	 -1.085530	 -0.874338
H	 -2.563510	 -0.183466	 -0.000351
H	 -1.333864	 -1.085676	 0.874123

	symmetry c1
}
set optking {
	frozen_dihedral = ("
		4 2 3 6
	")
}

ee = optimize('scf')
oeprop('DIPOLE', 'QUADRUPOLE', 'MULLIKEN_CHARGES')
f=open( 'psi4out.xyz', 'w' )
f.write( "10  " )
f.write( str(ee) + "\n" )
f.write( MOL.save_string_xyz() )
f.close()
--------------------------------------------------------------------------

    Molecular point group: c1
  Charge       = 0
  Multiplicity = 1
  Basis Set: 6-31G*
  Basis Set:
  @DF-RHF Final Energy:  -191.94792878705420
    Total Energy =                       -191.9479287870541953
    Molecular point group: c1
  Basis Set: 6-31G*
  Basis Set:
  Basis Set: 6-31G*
  Basis Set:
  @DF-RHF Final Energy:  -191.94821335023533
    Total Energy =                       -191.9482133502353349
  Basis Set: 6-31G*
  Basis Set:
  Basis Set: 6-31G*
  Basis Set:
  @DF-RHF Final Energy:  -191.94768334648279
    Total Energy =                       -191.9476833464827905
  Basis Set: 6-31G*
  Basis Set:
  Basis Set: 6-31G*
  Basis Set:
  @DF-RHF Final Energy:  -191.94873175398232
    Total Energy =                       -191.9487317539822584
  Basis Set: 6-31G*
  Basis Set:
  Basis Set: 6-31G*
  Basis Set:
  @DF-RHF Final Energy:  -191.94873769580030
    Total Energy =                       -191.9487376958003040
  Basis Set: 6-31G*
  Basis Set:
  Charge       = 0
  Multiplicity = 1
  Basis Set: 6-31G*
  Basis Set:

    Orbital Energies (a.u.)
    -----------------------

    Doubly Occupied:

       1A    -20.563768     2A    -11.328369     3A    -11.238379
       4A    -11.229435     5A     -1.404130     6A     -1.061388
       7A     -0.904869     8A     -0.785667     9A     -0.682397
      10A     -0.639011    11A     -0.606231    12A     -0.571586
      13A     -0.538410    14A     -0.509990    15A     -0.493183
      16A     -0.411983

  @DF-RHF Final Energy:  -191.94873797776629

   => Energetics <=

    Nuclear Repulsion Energy =            118.4059301263727377
    One-Electron Energy =                -494.7717484158837351
    Two-Electron Energy =                 184.4170803117447690
    DFT Exchange-Correlation Energy =       0.0000000000000000
    Empirical Dispersion Energy =           0.0000000000000000
    PCM Polarization Energy =               0.0000000000000000
    EFP Energy =                            0.0000000000000000
    Total Energy =                       -191.9487379777662568
    Molecular point group: c1
  Basis Set: 6-31G*
  Basis Set:

  -Total Gradient:
     Atom            X                  Y                   Z
    ------   -----------------  -----------------  -----------------
       1        0.000000586784    -0.000002822482    -0.000009415906
       2        0.000115082323     0.000504551975    -0.000140422772
       3       -0.000132821410    -0.000473451898    -0.000130411973
       4       -0.000050045343    -0.000319460120     0.000107877743
       5        0.000010401415     0.000012785266    -0.000001194614
       6        0.000072372367     0.000261552338     0.000186699852
       7       -0.000020485944     0.000010802747    -0.000006316664
       8        0.000004523165    -0.000007041346    -0.000004571192
       9       -0.000000778721     0.000009500421    -0.000000166540
      10        0.000001165363     0.000003583099    -0.000002077933

  **** Optimization is complete! (in 6 steps) ****
    Final optimized geometry and variables:
    Molecular point group: c1

    Geometry (in Angstrom), charge = 0, multiplicity = 1:

    H            1.371797625170     0.439294685414     1.175335072249
    C            0.818666483422     0.269264628089     0.245464567075
    C           -0.651593925800     0.625083222991     0.253197566170
    O            1.370223117801    -0.195674180031    -0.699340152502
    C           -1.524018886032    -0.636799172326     0.235271940558
    H           -0.852108404827     1.222972525155    -0.629876141978
    H           -0.878212413815     1.229968016969     1.125379396672
    H           -1.301296759495    -1.236139008970    -0.639002474255
    H           -2.574544398987    -0.369972975120     0.211369294642
    H           -1.355143408618    -1.247220004748     1.117003289621

  Mulliken Charges: (a.u.)
   Center  Symbol    Alpha    Beta     Spin     Total
       1     H     0.42721  0.42721  0.00000  0.14559
       2     C     2.84401  2.84401  0.00000  0.31197
       3     C     3.19919  3.19919  0.00000 -0.39838
       4     O     4.23569  4.23569  0.00000 -0.47139
       5     C     3.24622  3.24622  0.00000 -0.49244
       6     H     0.39950  0.39950  0.00000  0.20101
       7     H     0.41583  0.41583  0.00000  0.16834
       8     H     0.40340  0.40340  0.00000  0.19320
       9     H     0.41233  0.41233  0.00000  0.17534
      10     H     0.41662  0.41662  0.00000  0.16677

   Total alpha = 16.00000, Total beta = 16.00000, Total charge =  0.00000
