                              Psi4 1.0.54 Driver

  ==> Input File <==

--------------------------------------------------------------------------
set {
	reference rhf
	basis cc-pvtz
}

set_num_threads( 4 )
memory 2 gb

molecule MOL {
0 1

H	 3.050806	 -1.836025	 2.600159
C	 2.840707	 -1.574853	 1.569744
C	 1.550167	 -0.770429	 1.459923
H	 3.687307	 -1.010061	 1.193824
H	 2.781035	 -2.497051	 1.001406
C	 1.215950	 -0.382441	 0.027187
H	 1.621619	 0.132382	 2.056238
H	 0.728512	 -1.350120	 1.873952
N	 0.000002	 0.398953	 -0.040851
H	 2.024572	 0.217493	 -0.379480
H	 1.161717	 -1.284748	 -0.589242
C	 -1.215959	 -0.382435	 0.027143
H	 -0.000012	 1.086078	 0.683841
C	 -2.451944	 0.502410	 -0.038737
H	 -1.221867	 -1.069392	 -0.813828
H	 -1.259993	 -0.999709	 0.929424
C	 -3.752217	 -0.292550	 0.005776
H	 -2.407325	 1.093801	 -0.946480
H	 -2.431979	 1.206234	 0.790023
H	 -3.817783	 -0.982946	 -0.828547
H	 -4.612613	 0.364348	 -0.042306
H	 -3.830160	 -0.871666	 0.919868

	symmetry c1
}
set optking {
	frozen_dihedral = ("
		10 6 9 12
	")
}

ee,wfn = optimize('scf', return_wfn=True)
oeprop( wfn, 'DIPOLE', 'QUADRUPOLE', 'MULLIKEN_CHARGES')
f=open( 'psi4out.xyz', 'w' )
f.write( "22  " )
f.write( str(ee) + "\n" )
f.write( MOL.save_string_xyz() )
f.close()
--------------------------------------------------------------------------

    Molecular point group: c1
  Charge       = 0
  Multiplicity = 1
  Basis Set: CC-PVTZ
  Basis Set:
  @DF-RHF Final Energy:  -290.48518218675963
    Total Energy =                       -290.4851821867595731
    Molecular point group: c1
  Basis Set: CC-PVTZ
  Basis Set:
  Basis Set: CC-PVTZ
  Basis Set:
  @DF-RHF Final Energy:  -290.48617640899641
    Total Energy =                       -290.4861764089965845
  Basis Set: CC-PVTZ
  Basis Set:
  Basis Set: CC-PVTZ
  Basis Set:
  @DF-RHF Final Energy:  -290.48724630180618
    Total Energy =                       -290.4872463018060671
  Basis Set: CC-PVTZ
  Basis Set:
  Basis Set: CC-PVTZ
  Basis Set:
  @DF-RHF Final Energy:  -290.48727904100292
    Total Energy =                       -290.4872790410027505
  Basis Set: CC-PVTZ
  Basis Set:
  Basis Set: CC-PVTZ
  Basis Set:
  @DF-RHF Final Energy:  -290.48728361445927
    Total Energy =                       -290.4872836144593293
  Basis Set: CC-PVTZ
  Basis Set:
  Charge       = 0
  Multiplicity = 1
  Basis Set: CC-PVTZ
  Basis Set:

    Orbital Energies (a.u.)
    -----------------------

    Doubly Occupied:

       1A    -15.525926     2A    -11.236071     3A    -11.235898
       4A    -11.212019     5A    -11.210889     6A    -11.208631
       7A    -11.207042     8A     -1.203935     9A     -1.058487
      10A     -1.027490    11A     -0.929498    12A     -0.871400
      13A     -0.806278    14A     -0.802927    15A     -0.661862
      16A     -0.637910    17A     -0.616281    18A     -0.601495
      19A     -0.579263    20A     -0.554370    21A     -0.544936
      22A     -0.520448    23A     -0.509736    24A     -0.492539
      25A     -0.484949    26A     -0.473147    27A     -0.469024
      28A     -0.459798    29A     -0.352569

  @DF-RHF Final Energy:  -290.48728400701356

   => Energetics <=

    Nuclear Repulsion Energy =            316.6784511739253389
    One-Electron Energy =               -1019.3418316730015931
    Two-Electron Energy =                 412.1760964920626975
    DFT Exchange-Correlation Energy =       0.0000000000000000
    Empirical Dispersion Energy =           0.0000000000000000
    PCM Polarization Energy =               0.0000000000000000
    EFP Energy =                            0.0000000000000000
    Total Energy =                       -290.4872840070136135
    Molecular point group: c1
  Basis Set: CC-PVTZ
  Basis Set:

  -Total Gradient:
     Atom            X                  Y                   Z
    ------   -----------------  -----------------  -----------------
       1        0.000013497692    -0.000008107692     0.000006137713
       2        0.000031741812     0.000001658229     0.000006496918
       3       -0.000054249464     0.000022346788    -0.000049161150
       4       -0.000000431840     0.000003640102    -0.000003432204
       5       -0.000010462280    -0.000007333849    -0.000000617334
       6        0.000407214689     0.000686402348     0.001015253357
       7       -0.000000113114    -0.000008736321    -0.000003310813
       8       -0.000004424894    -0.000005796029     0.000010027201
       9        0.000062703287     0.000156573039     0.001292403792
      10       -0.000368420229    -0.000612055437    -0.001174526416
      11        0.000007681957    -0.000017809693    -0.000002543734
      12       -0.000097748532    -0.000211203061    -0.001086012864
      13        0.000001850220    -0.000007800770    -0.000015337299
      14       -0.000008850030    -0.000002479664     0.000002912984
      15       -0.000003011466    -0.000004886250    -0.000011113847
      16        0.000004904716     0.000002351160     0.000007059436
      17        0.000024440271     0.000008747281     0.000006058391
      18        0.000002088185    -0.000005102042    -0.000015412603
      19       -0.000009595677     0.000008630592     0.000011400971
      20        0.000003221627    -0.000001857510    -0.000008405940
      21       -0.000000731052     0.000008636767     0.000001822274
      22       -0.000001305880    -0.000005817991     0.000010301167

  **** Optimization is complete! (in 6 steps) ****
    Final optimized geometry and variables:
    Molecular point group: c1

    Geometry (in Angstrom), charge = 0, multiplicity = 1:

    H            3.614142518611    -1.492419006276     1.818247005665
    C            3.247741279961    -1.246957012937     0.828401760976
    C            1.953505959806    -0.443088007143     0.900370803891
    H            4.026397271096    -0.691329535583     0.316349894742
    H            3.100638225363    -2.178030666505     0.291006014401
    C            1.422345184058    -0.064207265386    -0.482300636955
    H            2.123189195392     0.465351184899     1.473514091556
    H            1.204071994857    -1.012593324316     1.440284184515
    N            0.201857606569     0.715870052483    -0.507011462523
    H            2.188684144908     0.487598894886    -1.018474366250
    H            1.249437696808    -0.967020945669    -1.060119230765
    C           -1.028292204895    -0.004433821228    -0.255167846050
    H            0.277045191409     1.506454038961     0.097141351859
    C           -2.236428441930     0.911952613022    -0.386373319463
    H           -1.103700284654    -0.800888440738    -0.989188869996
    H           -1.053172799281    -0.484050482458     0.725920663142
    C           -3.557784548340     0.185927472292    -0.159817790356
    H           -2.222723260617     1.364406212809    -1.371625648132
    H           -2.146156907391     1.725928618773     0.329108678174
    H           -3.692994926778    -0.614836536481    -0.879305856038
    H           -4.397195750925     0.863774533397    -0.260430067108
    H           -3.603922307442    -0.250789711794     0.832283101583

  Mulliken Charges: (a.u.)
   Center  Symbol    Alpha    Beta     Spin     Total
       1     H     0.44769  0.44769  0.00000  0.10461
       2     C     3.15184  3.15184  0.00000 -0.30367
       3     C     3.08614  3.08614  0.00000 -0.17229
       4     H     0.45455  0.45455  0.00000  0.09090
       5     H     0.45454  0.45454  0.00000  0.09093
       6     C     3.04199  3.04199  0.00000 -0.08397
       7     H     0.45913  0.45913  0.00000  0.08175
       8     H     0.45344  0.45344  0.00000  0.09312
       9     N     3.64298  3.64298  0.00000 -0.28596
      10     H     0.44768  0.44768  0.00000  0.10464
      11     H     0.45802  0.45802  0.00000  0.08396
      12     C     3.02003  3.02003  0.00000 -0.04005
      13     H     0.44630  0.44630  0.00000  0.10739
      14     C     3.08014  3.08014  0.00000 -0.16028
      15     H     0.45954  0.45954  0.00000  0.08091
      16     H     0.47496  0.47496  0.00000  0.05009
      17     C     3.15344  3.15344  0.00000 -0.30688
      18     H     0.44910  0.44910  0.00000  0.10179
      19     H     0.45952  0.45952  0.00000  0.08097
      20     H     0.45495  0.45495  0.00000  0.09011
      21     H     0.44776  0.44776  0.00000  0.10448
      22     H     0.45628  0.45628  0.00000  0.08744

   Total alpha = 29.00000, Total beta = 29.00000, Total charge = -0.00000

*** Psi4 exiting successfully. Buy a developer a beer!
