  ==> Input File <==

--------------------------------------------------------------------------
set {
	reference rhf
	basis cc-pvtz
}

set_num_threads( 4 )
memory 2 gb

molecule MOL {
0 1

H	 2.410010	 -1.644900	 0.892200
N	 1.430318	 -1.463495	 0.906508
C	 0.804215	 -1.936118	 -0.311878
C	 1.173672	 -0.054197	 1.125268
H	 0.997911	 -2.996225	 -0.421445
H	 1.190505	 -1.430854	 -1.199069
C	 -0.693217	 -1.700449	 -0.232909
H	 1.635085	 0.249378	 2.057089
H	 1.583304	 0.569967	 0.328876
C	 -0.324244	 0.179006	 1.202353
H	 -1.110628	 -2.328575	 0.559439
H	 -1.155858	 -1.998825	 -1.166212
N	 -0.976577	 -0.298712	 -0.000000
H	 -0.520094	 1.239593	 1.306835
H	 -0.716236	 -0.319643	 2.093579
C	 -2.391156	 -0.021003	 -0.000000
H	 -2.853954	 -0.458728	 -0.875714
H	 -2.853954	 -0.458728	 0.875714
H	 -2.614037	 1.049773	 -0.000000

	symmetry c1
}
set optking {
	frozen_dihedral = ("
		7 13 16 19
	")
}

ee = optimize('scf')
oeprop('DIPOLE', 'QUADRUPOLE', 'MULLIKEN_CHARGES')
f=open( 'psi4out.xyz', 'w' )
f.write( "19  " )
f.write( str(ee) + "\n" )
f.write( MOL.save_string_xyz() )
f.close()
--------------------------------------------------------------------------

    Molecular point group: c1
  Charge       = 0
  Multiplicity = 1
  Basis Set: CC-PVTZ
  Basis Set:
  @DF-RHF Final Energy:  -305.30820034033496
    Total Energy =                       -305.3082003403351905
    Molecular point group: c1
  Basis Set: CC-PVTZ
  Basis Set:
  Basis Set: CC-PVTZ
  Basis Set:
  @DF-RHF Final Energy:  -305.30887381585757
    Total Energy =                       -305.3088738158571687
  Basis Set: CC-PVTZ
  Basis Set:
  Basis Set: CC-PVTZ
  Basis Set:
  @DF-RHF Final Energy:  -305.30895255980846
    Total Energy =                       -305.3089525598085174
  Basis Set: CC-PVTZ
  Basis Set:
  Charge       = 0
  Multiplicity = 1
  Basis Set: CC-PVTZ
  Basis Set:

    Orbital Energies (a.u.)
    -----------------------

    Doubly Occupied:

       1A    -15.536159     2A    -15.531271     3A    -11.237279
       4A    -11.237261     5A    -11.235892     6A    -11.235823
       7A    -11.233180     8A     -1.249362     9A     -1.187756
      10A     -1.024146    11A     -0.965894    12A     -0.861979
      13A     -0.858218    14A     -0.757250    15A     -0.692807
      16A     -0.635450    17A     -0.627567    18A     -0.609361
      19A     -0.605322    20A     -0.581752    21A     -0.543704
      22A     -0.529629    23A     -0.512049    24A     -0.490527
      25A     -0.468166    26A     -0.458470    27A     -0.366134
      28A     -0.347205

  @DF-RHF Final Energy:  -305.30895349944984

   => Energetics <=

    Nuclear Repulsion Energy =            340.2997228584150093
    One-Electron Energy =               -1087.9781256428191227
    Two-Electron Energy =                 442.3694492849543849
    DFT Exchange-Correlation Energy =       0.0000000000000000
    Empirical Dispersion Energy =           0.0000000000000000
    PCM Polarization Energy =               0.0000000000000000
    EFP Energy =                            0.0000000000000000
    Total Energy =                       -305.3089534994497853
    Molecular point group: c1
  Basis Set: CC-PVTZ
  Basis Set:

  -Total Gradient:
     Atom            X                  Y                   Z
    ------   -----------------  -----------------  -----------------
       1        0.000013672761     0.000002024986     0.000006507100
       2        0.000030749172    -0.000014832328     0.000023529789
       3       -0.000031037304     0.000104173155    -0.000000695623
       4       -0.000031115152    -0.000008212354    -0.000013605308
       5       -0.000033869967     0.000011274100     0.000003290386
       6        0.000012946785    -0.000001735310    -0.000013596518
       7       -0.000037980843     0.000066425765    -0.000997429482
       8       -0.000001099686    -0.000003932479     0.000001374004
       9        0.000000147414    -0.000004777698    -0.000001292672
      10       -0.000024621535     0.000017676250     0.000050163263
      11        0.000003707578     0.000023509091    -0.000002540672
      12       -0.000013710340     0.000009952797    -0.000010395243
      13        0.000012716007    -0.000214954573     0.000980736614
      14       -0.000000630711     0.000007814454     0.000001530980
      15        0.000011759743     0.000001756506    -0.000015551185
      16       -0.000034929478     0.000029330514     0.001352143928
      17        0.000047360216    -0.000010580067    -0.000010012742
      18        0.000024697049    -0.000009666129     0.000005893949
      19        0.000051238286    -0.000005246676    -0.001360050568

  **** Optimization is complete! (in 4 steps) ****
    Final optimized geometry and variables:
    Molecular point group: c1

    Geometry (in Angstrom), charge = 0, multiplicity = 1:

    H            2.563102134231    -0.879559268089     0.499972310694
    N            1.582848698047    -0.701000220750     0.516639034758
    C            0.954592444731    -1.177853658695    -0.698899440971
    C            1.322288525469     0.707693310372     0.733952715513
    H            1.153922721878    -2.236904231428    -0.809157237082
    H            1.334625174312    -0.670532474607    -1.587775253176
    C           -0.544162714708    -0.950917290162    -0.615282817059
    H            1.786788827905     1.015069512364     1.663077577993
    H            1.726115666863     1.331685523905    -0.065646842866
    C           -0.176274876422     0.935022863869     0.817084668723
    H           -0.955404463855    -1.584564493750     0.176171410479
    H           -1.007212745348    -1.248767566652    -1.548406001309
    N           -0.832576213471     0.448634864259    -0.378572625000
    H           -0.377091722665     1.995302108361     0.917668924731
    H           -0.561716514451     0.438973674873     1.712687313161
    C           -2.245971040887     0.730606074352    -0.379562671963
    H           -2.698406638621     0.333973542967    -1.279922641965
    H           -2.768731272866     0.298656139846     0.478226910547
    H           -2.410452122853     1.801289760575    -0.376045229487

  Mulliken Charges: (a.u.)
   Center  Symbol    Alpha    Beta     Spin     Total
       1     H     0.43994  0.43994  0.00000  0.12012
       2     N     3.64287  3.64287  0.00000 -0.28574
       3     C     3.04099  3.04099  0.00000 -0.08198
       4     C     3.04060  3.04060  0.00000 -0.08121
       5     H     0.45246  0.45246  0.00000  0.09507
       6     H     0.46547  0.46547  0.00000  0.06907
       7     C     3.03359  3.03359  0.00000 -0.06719
       8     H     0.45243  0.45243  0.00000  0.09513
       9     H     0.46542  0.46542  0.00000  0.06915
      10     C     3.03450  3.03450  0.00000 -0.06899
      11     H     0.46905  0.46905  0.00000  0.06189
      12     H     0.45404  0.45404  0.00000  0.09192
      13     N     3.61431  3.61431  0.00000 -0.22863
      14     H     0.45425  0.45425  0.00000  0.09149
      15     H     0.46817  0.46817  0.00000  0.06367
      16     C     3.09683  3.09683  0.00000 -0.19366
      17     H     0.45320  0.45320  0.00000  0.09361
      18     H     0.46990  0.46990  0.00000  0.06020
      19     H     0.45197  0.45197  0.00000  0.09606

   Total alpha = 28.00000, Total beta = 28.00000, Total charge =  0.00000
