  ==> Input File <==

--------------------------------------------------------------------------
set {
	reference rhf
	basis cc-pvtz
}

set_num_threads( 4 )
memory 2 gb

molecule MOL {
0 1

H	 -2.171709	 0.882708	 0.500286
C	 -2.016894	 0.001719	 -0.114152
O	 -0.775228	 0.000056	 -0.739966
H	 -2.760846	 0.003757	 -0.898169
H	 -2.174774	 -0.879864	 0.498643
C	 0.059170	 1.138364	 -0.654434
C	 1.298585	 0.746396	 -1.451363
C	 -0.605748	 2.358960	 -1.293707
C	 0.445090	 1.432182	 0.796542
H	 1.026988	 0.513006	 -2.473061
H	 1.759689	 -0.131368	 -1.016602
H	 2.024613	 1.550612	 -1.460805
H	 -0.935595	 2.124218	 -2.298578
H	 0.098165	 3.180732	 -1.349260
H	 -1.460570	 2.702167	 -0.724453
H	 0.855132	 0.544860	 1.263676
H	 1.194912	 2.213453	 0.832029
H	 -0.400912	 1.767817	 1.383225

	symmetry c1
}
set optking {
	frozen_dihedral = ("
		6 3 2 5
	")
}

ee = optimize('scf')
oeprop('DIPOLE', 'QUADRUPOLE', 'MULLIKEN_CHARGES')
f=open( 'psi4out.xyz', 'w' )
f.write( "18  " )
f.write( str(ee) + "\n" )
f.write( MOL.save_string_xyz() )
f.close()
--------------------------------------------------------------------------

    Molecular point group: c1
  Charge       = 0
  Multiplicity = 1
  Basis Set: CC-PVTZ
  Basis Set:
  @DF-RHF Final Energy:  -271.27348205737064
    Total Energy =                       -271.2734820573710977
    Molecular point group: c1
  Basis Set: CC-PVTZ
  Basis Set:
  Basis Set: CC-PVTZ
  Basis Set:
  @DF-RHF Final Energy:  -271.27428325384085
    Total Energy =                       -271.2742832538408493
  Basis Set: CC-PVTZ
  Basis Set:
  Basis Set: CC-PVTZ
  Basis Set:
  @DF-RHF Final Energy:  -271.27404572588239
    Total Energy =                       -271.2740457258822744
  Basis Set: CC-PVTZ
  Basis Set:
  Basis Set: CC-PVTZ
  Basis Set:
  @DF-RHF Final Energy:  -271.27458530930039
    Total Energy =                       -271.2745853093005053
  Basis Set: CC-PVTZ
  Basis Set:
  Basis Set: CC-PVTZ
  Basis Set:
  @DF-RHF Final Energy:  -271.27457315338762
    Total Energy =                       -271.2745731533877347
  Basis Set: CC-PVTZ
  Basis Set:
  Basis Set: CC-PVTZ
  Basis Set:
  @DF-RHF Final Energy:  -271.27459728508728
    Total Energy =                       -271.2745972850873386
  Basis Set: CC-PVTZ
  Basis Set:
  Basis Set: CC-PVTZ
  Basis Set:
  @DF-RHF Final Energy:  -271.27459837469155
    Total Energy =                       -271.2745983746914931
  Basis Set: CC-PVTZ
  Basis Set:
  Charge       = 0
  Multiplicity = 1
  Basis Set: CC-PVTZ
  Basis Set:

    Orbital Energies (a.u.)
    -----------------------

    Doubly Occupied:

       1A    -20.538193     2A    -11.280789     3A    -11.258451
       4A    -11.207267     5A    -11.206841     6A    -11.201796
       7A     -1.371262     8A     -1.074126     9A     -0.946537
      10A     -0.940963    11A     -0.913496    12A     -0.753850
      13A     -0.656339    14A     -0.645814    15A     -0.640378
      16A     -0.591106    17A     -0.572083    18A     -0.552168
      19A     -0.538972    20A     -0.524752    21A     -0.515382
      22A     -0.491268    23A     -0.488424    24A     -0.439506
      25A     -0.404378

  @DF-RHF Final Energy:  -271.27459860647843

   => Energetics <=

    Nuclear Repulsion Energy =            272.5010277201080271
    One-Electron Energy =                -908.0429750277337462
    Two-Electron Energy =                 364.2673487011474549
    DFT Exchange-Correlation Energy =       0.0000000000000000
    Empirical Dispersion Energy =           0.0000000000000000
    PCM Polarization Energy =               0.0000000000000000
    EFP Energy =                            0.0000000000000000
    Total Energy =                       -271.2745986064782642
    Molecular point group: c1
  Basis Set: CC-PVTZ
  Basis Set:

  -Total Gradient:
     Atom            X                  Y                   Z
    ------   -----------------  -----------------  -----------------
       1       -0.000012623585    -0.000005525523     0.000004327969
       2       -0.000325607145    -0.000850411624    -0.000672195032
       3       -0.000441960545     0.000625486187    -0.000977335758
       4       -0.000005844223    -0.000003437842     0.000011260499
       5        0.000398966962     0.000551991978     0.000856504449
       6        0.000382379634    -0.000321913478     0.000776458830
       7        0.000016107103     0.000002330346     0.000002421591
       8       -0.000016159504    -0.000003471088     0.000007536108
       9       -0.000001131022     0.000007587308    -0.000000516235
      10       -0.000005264374     0.000008579966     0.000003368054
      11        0.000005442182    -0.000005979702    -0.000011241254
      12        0.000007475293    -0.000004506426     0.000004800940
      13        0.000003747312    -0.000000378382    -0.000006031359
      14       -0.000002457500    -0.000013540058     0.000006481010
      15       -0.000004845002     0.000007817487    -0.000005090717
      16       -0.000004339403     0.000000532382    -0.000001916536
      17        0.000002816942     0.000000626159     0.000001252493
      18        0.000003296877     0.000004212309    -0.000000085054

  **** Optimization is complete! (in 8 steps) ****
    Final optimized geometry and variables:
    Molecular point group: c1

    Geometry (in Angstrom), charge = 0, multiplicity = 1:

    H           -1.919269560359    -0.058563339551     1.065586843011
    C           -1.752759301206    -0.921757464112     0.434684325301
    O           -0.487353364619    -0.938167401611    -0.151465565335
    H           -2.521524672500    -0.932156215173    -0.330431090359
    H           -1.864200909962    -1.805193960489     1.051476564206
    C            0.350038157079     0.198368446209    -0.080486331519
    C            1.584605935063    -0.199538315844    -0.881897200361
    C           -0.319129350635     1.413037067193    -0.726278610781
    C            0.746904827813     0.494416555622     1.367159470564
    H            1.308569702923    -0.433404609406    -1.902170525085
    H            2.044783430365    -1.077859578834    -0.447495804150
    H            2.313111065329     0.602555726277    -0.895026349399
    H           -0.616462066171     1.180324235511    -1.741646405010
    H            0.367256033274     2.250963551807    -0.755433173425
    H           -1.198461400117     1.730546616839    -0.179437825991
    H            1.187766801509    -0.385397461711     1.819648586586
    H            1.474024105340     1.297179748696     1.401413816108
    H           -0.100061337191     0.797816902376     1.969749246384

  Mulliken Charges: (a.u.)
   Center  Symbol    Alpha    Beta     Spin     Total
       1     H     0.46864  0.46864  0.00000  0.06272
       2     C     3.04264  3.04264  0.00000 -0.08528
       3     O     4.19370  4.19370  0.00000 -0.38740
       4     H     0.45662  0.45662  0.00000  0.08676
       5     H     0.45086  0.45086  0.00000  0.09827
       6     C     2.87905  2.87905  0.00000  0.24190
       7     C     3.14293  3.14293  0.00000 -0.28585
       8     C     3.16058  3.16058  0.00000 -0.32116
       9     C     3.16076  3.16076  0.00000 -0.32152
      10     H     0.44919  0.44919  0.00000  0.10162
      11     H     0.44882  0.44882  0.00000  0.10236
      12     H     0.45923  0.45923  0.00000  0.08155
      13     H     0.44660  0.44660  0.00000  0.10680
      14     H     0.44827  0.44827  0.00000  0.10346
      15     H     0.44857  0.44857  0.00000  0.10286
      16     H     0.44649  0.44649  0.00000  0.10703
      17     H     0.44894  0.44894  0.00000  0.10212
      18     H     0.44813  0.44813  0.00000  0.10375

   Total alpha = 25.00000, Total beta = 25.00000, Total charge =  0.00000
