                              Psi4 1.0.54 Driver

  ==> Input File <==

--------------------------------------------------------------------------
set {
	reference rhf
	basis cc-pvtz
}

set_num_threads( 4 )
memory 2 gb

molecule MOL {
0 1

H	 -1.067551	 -1.366296	 0.127042
O	 -1.432053	 -0.565244	 -0.200812
C	 -0.727158	 0.534527	 0.310686
C	 0.680222	 0.664433	 -0.252229
H	 -1.306802	 1.408001	 0.044211
H	 -0.690821	 0.490158	 1.397609
C	 1.605391	 -0.489360	 0.123098
H	 0.615089	 0.745647	 -1.332226
H	 1.101414	 1.597893	 0.110950
H	 1.247627	 -1.432485	 -0.275204
H	 2.601435	 -0.332816	 -0.273062
H	 1.691776	 -0.589902	 1.200774

	symmetry c1
}
set optking {
	frozen_dihedral = ("
		1 2 3 4
	")
}

ee,wfn = optimize('scf', return_wfn=True)
oeprop( wfn, 'DIPOLE', 'QUADRUPOLE', 'MULLIKEN_CHARGES')
f=open( 'psi4out.xyz', 'w' )
f.write( "12  " )
f.write( str(ee) + "\n" )
f.write( MOL.save_string_xyz() )
f.close()
--------------------------------------------------------------------------

    Molecular point group: c1
  Charge       = 0
  Multiplicity = 1
  Basis Set: CC-PVTZ
  Basis Set:
  @DF-RHF Final Energy:  -193.19060535097495
    Total Energy =                       -193.1906053509749199
    Molecular point group: c1
  Basis Set: CC-PVTZ
  Basis Set:
  Charge       = 0
  Multiplicity = 1
  Basis Set: CC-PVTZ
  Basis Set:

    Orbital Energies (a.u.)
    -----------------------

    Doubly Occupied:

       1A    -20.546164     2A    -11.265956     3A    -11.217309
       4A    -11.215323     5A     -1.364306     6A     -1.052178
       7A     -0.928653     8A     -0.810657     9A     -0.698543
      10A     -0.637836    11A     -0.603016    12A     -0.590008
      13A     -0.541915    14A     -0.510935    15A     -0.493113
      16A     -0.469959    17A     -0.432996

  @DF-RHF Final Energy:  -193.19060578332278

   => Energetics <=

    Nuclear Repulsion Energy =            133.1960558817406763
    One-Electron Energy =                -526.0155919232856832
    Two-Electron Energy =                 199.6289302582223115
    DFT Exchange-Correlation Energy =       0.0000000000000000
    Empirical Dispersion Energy =           0.0000000000000000
    PCM Polarization Energy =               0.0000000000000000
    EFP Energy =                            0.0000000000000000
    Total Energy =                       -193.1906057833226953
    Molecular point group: c1
  Basis Set: CC-PVTZ
  Basis Set:

  -Total Gradient:
     Atom            X                  Y                   Z
    ------   -----------------  -----------------  -----------------
       1        0.000086469885     0.000048344394    -0.000117595837
       2       -0.000187207482    -0.000006056854     0.000177634393
       3        0.000025945967     0.000050080017    -0.000078433837
       4        0.000080523403    -0.000054938723     0.000027631225
       5       -0.000037206605    -0.000038693718     0.000000698123
       6       -0.000033525129    -0.000013879926    -0.000010716365
       7        0.000018614534     0.000023916711     0.000035173196
       8       -0.000014911653    -0.000006680206     0.000002093815
       9        0.000029247280    -0.000001730495    -0.000025226318
      10        0.000030187738     0.000008091472    -0.000035182740
      11        0.000012297686    -0.000000234963     0.000009617950
      12       -0.000010435624    -0.000008217708     0.000014306394

  **** Optimization is complete! (in 2 steps) ****
    Final optimized geometry and variables:
    Molecular point group: c1

    Geometry (in Angstrom), charge = 0, multiplicity = 1:

    H           -1.071270666865    -1.365391803927     0.129162658803
    O           -1.434904513196    -0.563911819767    -0.198341610105
    C           -0.726689075029     0.534452760476     0.311103393772
    C            0.680231107097     0.663095732192    -0.253614602561
    H           -1.306128288636     1.408232400821     0.045487480916
    H           -0.688495632859     0.490136514332     1.398006749320
    C            1.606606162925    -0.489426819085     0.122932665162
    H            0.614291612871     0.742839719758    -1.333669084309
    H            1.101759472465     1.596986579309     0.107843952318
    H            1.255323182211    -1.432520375398    -0.281417226631
    H            2.604521967838    -0.328103094404    -0.266489390159
    H            1.686556982982    -0.593973594621     1.200652773172

  Mulliken Charges: (a.u.)
   Center  Symbol    Alpha    Beta     Spin     Total
       1     H     0.39260  0.39260  0.00000  0.21480
       2     O     4.20527  4.20527  0.00000 -0.41053
       3     C     2.97573  2.97573  0.00000  0.04855
       4     C     3.08322  3.08322  0.00000 -0.16644
       5     H     0.45008  0.45008  0.00000  0.09984
       6     H     0.47070  0.47070  0.00000  0.05859
       7     C     3.15929  3.15929  0.00000 -0.31857
       8     H     0.45130  0.45130  0.00000  0.09741
       9     H     0.45648  0.45648  0.00000  0.08704
      10     H     0.45703  0.45703  0.00000  0.08595
      11     H     0.44464  0.44464  0.00000  0.11071
      12     H     0.45367  0.45367  0.00000  0.09266

   Total alpha = 17.00000, Total beta = 17.00000, Total charge = -0.00000

*** Psi4 exiting successfully. Buy a developer a beer!
