  ==> Input File <==

--------------------------------------------------------------------------
set {
	reference rhf
	basis 6-31G*
}

set_num_threads( 4 )
memory 2 gb

molecule MOL {
0 1

H	 -2.798360	 -0.862255	 -0.071053
N	 -1.863561	 -0.715187	 0.256814
C	 -1.344686	 0.554728	 -0.219830
H	 -1.300452	 -1.461917	 -0.101532
C	 0.081427	 0.741154	 0.254071
H	 -1.362155	 0.656231	 -1.305829
H	 -1.952773	 1.354456	 0.191809
O	 0.918412	 0.750230	 -0.866848
H	 0.177158	 1.679267	 0.800348
H	 0.354192	 -0.072885	 0.922033
C	 2.275864	 0.829975	 -0.569297
H	 2.817428	 0.830629	 -1.505462
H	 2.511345	 1.743776	 -0.026619
H	 2.602747	 -0.019418	 0.026931

	symmetry c1
}
set optking {
	frozen_dihedral = ("
		8 5 3 6
	")
}

ee = optimize('scf')
oeprop('DIPOLE', 'QUADRUPOLE', 'MULLIKEN_CHARGES')
f=open( 'psi4out.xyz', 'w' )
f.write( "14  " )
f.write( str(ee) + "\n" )
f.write( MOL.save_string_xyz() )
f.close()
--------------------------------------------------------------------------

    Molecular point group: c1
  Charge       = 0
  Multiplicity = 1
  Basis Set: 6-31G*
  Basis Set:
  @DF-RHF Final Energy:  -248.11740190508678
    Total Energy =                       -248.1174019050868083
    Molecular point group: c1
  Basis Set: 6-31G*
  Basis Set:
  Basis Set: 6-31G*
  Basis Set:
  @DF-RHF Final Energy:  -248.11802171019755
    Total Energy =                       -248.1180217101974677
  Basis Set: 6-31G*
  Basis Set:
  Basis Set: 6-31G*
  Basis Set:
  @DF-RHF Final Energy:  -248.11821546059073
    Total Energy =                       -248.1182154605905907
  Basis Set: 6-31G*
  Basis Set:
  Basis Set: 6-31G*
  Basis Set:
  @DF-RHF Final Energy:  -248.11822232700311
    Total Energy =                       -248.1182223270033091
  Basis Set: 6-31G*
  Basis Set:
  Charge       = 0
  Multiplicity = 1
  Basis Set: 6-31G*
  Basis Set:

    Orbital Energies (a.u.)
    -----------------------

    Doubly Occupied:

       1A    -20.554819     2A    -15.535200     3A    -11.264656
       4A    -11.264605     5A    -11.241221     6A     -1.378859
       7A     -1.177028     8A     -0.996383     9A     -0.901608
      10A     -0.822300    11A     -0.683699    12A     -0.666041
      13A     -0.649867    14A     -0.617009    15A     -0.591956
      16A     -0.555945    17A     -0.519333    18A     -0.498235
      19A     -0.469951    20A     -0.415806    21A     -0.383105

  @DF-RHF Final Energy:  -248.11822279042531

   => Energetics <=

    Nuclear Repulsion Energy =            191.4567903819787489
    One-Electron Energy =                -716.7747767286132330
    Two-Electron Energy =                 277.1997635562090636
    DFT Exchange-Correlation Energy =       0.0000000000000000
    Empirical Dispersion Energy =           0.0000000000000000
    PCM Polarization Energy =               0.0000000000000000
    EFP Energy =                            0.0000000000000000
    Total Energy =                       -248.1182227904254205
    Molecular point group: c1
  Basis Set: 6-31G*
  Basis Set:

  -Total Gradient:
     Atom            X                  Y                   Z
    ------   -----------------  -----------------  -----------------
       1       -0.000029017576    -0.000002958833    -0.000009041725
       2        0.000021119736    -0.000015989887     0.000014533583
       3       -0.000440937406     0.003119745921     0.000171317248
       4        0.000007535388    -0.000024235260    -0.000006031599
       5        0.000282568041    -0.002644115403     0.000107920163
       6        0.000320283407    -0.002131996655    -0.000170333003
       7        0.000011951315     0.000010159968     0.000001493969
       8       -0.000187043548     0.001669293569    -0.000104785931
       9        0.000001098846     0.000012272238    -0.000010749429
      10       -0.000001326161    -0.000008624725    -0.000000143470
      11        0.000017366548     0.000027789997     0.000015449034
      12       -0.000011762616    -0.000005410603    -0.000001190165
      13        0.000014727205     0.000002301915    -0.000001975295
      14       -0.000006563186    -0.000008232244    -0.000006463379

  **** Optimization is complete! (in 5 steps) ****
    Final optimized geometry and variables:
    Molecular point group: c1

    Geometry (in Angstrom), charge = 0, multiplicity = 1:

    H           -2.886604705010    -1.215169529559     0.241818808052
    N           -1.919334667376    -1.135269740905     0.490884866207
    C           -1.376418287625     0.134785825789     0.022262742061
    H           -1.444367170379    -1.897764848784     0.044830767971
    C            0.072625423875     0.313035406691     0.484939838135
    H           -1.385739107037     0.227982210701    -1.061412616581
    H           -1.997578038458     0.924489137354     0.428241709840
    O            0.914886563754     0.304570604464    -0.633127829259
    H            0.195981846816     1.252071188823     1.022578229059
    H            0.338243940780    -0.489777324336     1.168658560249
    C            2.264118059811     0.448794042311    -0.326542544481
    H            2.815398631178     0.431415785578    -1.256883435827
    H            2.459368466822     1.392334183083     0.180466470947
    H            2.618863012233    -0.361346360093     0.308285238430

  Mulliken Charges: (a.u.)
   Center  Symbol    Alpha    Beta     Spin     Total
       1     H     0.33220  0.33220  0.00000  0.33559
       2     N     3.92452  3.92452  0.00000 -0.84904
       3     C     3.07584  3.07584  0.00000 -0.15167
       4     H     0.33231  0.33231  0.00000  0.33537
       5     C     2.99638  2.99638  0.00000  0.00724
       6     H     0.41427  0.41427  0.00000  0.17145
       7     H     0.41776  0.41776  0.00000  0.16448
       8     O     4.30723  4.30723  0.00000 -0.61446
       9     H     0.42886  0.42886  0.00000  0.14229
      10     H     0.41854  0.41854  0.00000  0.16292
      11     C     3.07984  3.07984  0.00000 -0.15968
      12     H     0.41252  0.41252  0.00000  0.17497
      13     H     0.43000  0.43000  0.00000  0.14001
      14     H     0.42974  0.42974  0.00000  0.14052

   Total alpha = 21.00000, Total beta = 21.00000, Total charge =  0.00000
