  ==> Input File <==

--------------------------------------------------------------------------
set {
	reference rhf
	basis 6-31G*
}

set_num_threads( 4 )
memory 2 gb

molecule MOL {
0 1

H	 -2.768968	 -0.607552	 -0.714930
O	 -2.315789	 -0.143634	 -0.024262
C	 -0.945151	 -0.064130	 -0.333158
H	 -0.813375	 -0.223047	 -1.403232
C	 -0.232801	 -1.184051	 0.407206
C	 -0.355424	 1.302939	 0.054523
H	 -0.318824	 -0.992899	 1.473524
H	 -0.742411	 -2.122033	 0.217954
C	 1.248522	 -1.270719	 -0.013048
H	 -0.546144	 2.018388	 -0.742941
H	 -0.890929	 1.656788	 0.930149
C	 1.156425	 1.235120	 0.355905
H	 1.825384	 -1.683246	 0.809111
H	 1.357782	 -1.965923	 -0.840362
C	 1.828244	 0.099899	 -0.419275
H	 1.626109	 2.185622	 0.123525
H	 1.309438	 1.071213	 1.419539
H	 2.901447	 0.112642	 -0.255830
H	 1.681817	 0.263413	 -1.484607

	symmetry c1
}
set optking {
	frozen_dihedral = ("
		1 2 3 4
	")
}

ee = optimize('scf')
oeprop('DIPOLE', 'QUADRUPOLE', 'MULLIKEN_CHARGES')
f=open( 'psi4out.xyz', 'w' )
f.write( "19  " )
f.write( str(ee) + "\n" )
f.write( MOL.save_string_xyz() )
f.close()
--------------------------------------------------------------------------

    Molecular point group: c1
  Charge       = 0
  Multiplicity = 1
  Basis Set: 6-31G*
  Basis Set:
  @DF-RHF Final Energy:  -309.04622060610359
    Total Energy =                       -309.0462206061035317
    Molecular point group: c1
  Basis Set: 6-31G*
  Basis Set:
  Basis Set: 6-31G*
  Basis Set:
  @DF-RHF Final Energy:  -309.04722303250401
    Total Energy =                       -309.0472230325041210
  Basis Set: 6-31G*
  Basis Set:
  Basis Set: 6-31G*
  Basis Set:
  @DF-RHF Final Energy:  -309.04741253172210
    Total Energy =                       -309.0474125317225003
  Basis Set: 6-31G*
  Basis Set:
  Charge       = 0
  Multiplicity = 1
  Basis Set: 6-31G*
  Basis Set:

    Orbital Energies (a.u.)
    -----------------------

    Doubly Occupied:

       1A    -20.549397     2A    -11.270054     3A    -11.215620
       4A    -11.214797     5A    -11.213505     6A    -11.208504
       7A    -11.207926     8A     -1.357816     9A     -1.107309
      10A     -0.999721    11A     -0.987903    12A     -0.842877
      13A     -0.830704    14A     -0.730773    15A     -0.711696
      16A     -0.653133    17A     -0.621016    18A     -0.597637
      19A     -0.560897    20A     -0.543059    21A     -0.536859
      22A     -0.517226    23A     -0.496869    24A     -0.486182
      25A     -0.463404    26A     -0.448779    27A     -0.430073
      28A     -0.405449

  @DF-RHF Final Energy:  -309.04741622685913

   => Energetics <=

    Nuclear Repulsion Energy =            331.1390810627165138
    One-Electron Energy =               -1075.9546299989474392
    Two-Electron Energy =                 435.7681327093720256
    DFT Exchange-Correlation Energy =       0.0000000000000000
    Empirical Dispersion Energy =           0.0000000000000000
    PCM Polarization Energy =               0.0000000000000000
    EFP Energy =                            0.0000000000000000
    Total Energy =                       -309.0474162268588998
    Molecular point group: c1
  Basis Set: 6-31G*
  Basis Set:

  -Total Gradient:
     Atom            X                  Y                   Z
    ------   -----------------  -----------------  -----------------
       1       -0.000176742817     0.001658771998    -0.000927190739
       2        0.000403263608    -0.002423194253     0.001210080683
       3       -0.000144762269     0.002493727133    -0.000594246103
       4        0.000008360877    -0.001564284682     0.000273833385
       5        0.000054054494     0.000062111204     0.000086256163
       6       -0.000136000443     0.000003878919    -0.000042890253
       7       -0.000017595417    -0.000017937148     0.000037697698
       8       -0.000020009434    -0.000002569912    -0.000011608946
       9       -0.000006089527     0.000067678961    -0.000058210705
      10       -0.000053081425    -0.000013951661    -0.000010315728
      11       -0.000014171927    -0.000050798226    -0.000022559561
      12        0.000011643681    -0.000129622632     0.000060474178
      13        0.000013229375     0.000030224972     0.000004237785
      14        0.000045110380     0.000044541610    -0.000001783750
      15        0.000019056344    -0.000047371277     0.000008782453
      16       -0.000000400402    -0.000022473070    -0.000022442886
      17        0.000000675411     0.000002281501     0.000029670622
      18        0.000018029367    -0.000039049059    -0.000000517144
      19       -0.000004569868    -0.000051964378    -0.000019267151

  **** Optimization is complete! (in 4 steps) ****
    Final optimized geometry and variables:
    Molecular point group: c1

    Geometry (in Angstrom), charge = 0, multiplicity = 1:

    H           -2.812219438974    -0.504585974567    -0.693730135986
    O           -2.321591640537    -0.068573813037    -0.013563092235
    C           -0.946345312436    -0.073280360326    -0.330756696819
    H           -0.827208114394    -0.243980198938    -1.399460187266
    C           -0.218096989569    -1.191385897332     0.407672637201
    C           -0.364862052747     1.294914553644     0.043539009442
    H           -0.306617673958    -1.003204917940     1.474273728557
    H           -0.715851187927    -2.138402427997     0.221363480012
    C            1.264603470240    -1.266832081871    -0.011503314464
    H           -0.558743907160     1.996420796403    -0.762691058927
    H           -0.914725903511     1.654901855569     0.906431389296
    C            1.143061109335     1.235403683759     0.360783451780
    H            1.844844178634    -1.675531410895     0.810273668335
    H            1.381667488997    -1.959794174867    -0.839978073949
    C            1.831606114049     0.110119271241    -0.414020902155
    H            1.607490465181     2.190806941181     0.137583307445
    H            1.288926454338     1.067635520443     1.425120394480
    H            2.904224343762     0.132879259028    -0.247617522928
    H            1.686452432358     0.274050884674    -1.479692128671

  Mulliken Charges: (a.u.)
   Center  Symbol    Alpha    Beta     Spin     Total
       1     H     0.28101  0.28101  0.00000  0.43799
       2     O     4.37973  4.37973  0.00000 -0.75947
       3     C     2.91397  2.91397  0.00000  0.17207
       4     H     0.43061  0.43061  0.00000  0.13877
       5     C     3.16606  3.16606  0.00000 -0.33212
       6     C     3.16189  3.16189  0.00000 -0.32379
       7     H     0.41567  0.41567  0.00000  0.16866
       8     H     0.41972  0.41972  0.00000  0.16055
       9     C     3.16122  3.16122  0.00000 -0.32245
      10     H     0.41950  0.41950  0.00000  0.16099
      11     H     0.40778  0.40778  0.00000  0.18445
      12     C     3.16518  3.16518  0.00000 -0.33037
      13     H     0.41773  0.41773  0.00000  0.16454
      14     H     0.42033  0.42033  0.00000  0.15934
      15     C     3.16369  3.16369  0.00000 -0.32738
      16     H     0.41691  0.41691  0.00000  0.16617
      17     H     0.41952  0.41952  0.00000  0.16096
      18     H     0.41680  0.41680  0.00000  0.16640
      19     H     0.42266  0.42266  0.00000  0.15467

   Total alpha = 28.00000, Total beta = 28.00000, Total charge = -0.00000
