                              Psi4 1.0.54 Driver

  ==> Input File <==

--------------------------------------------------------------------------
set {
	reference rhf
	basis cc-pvtz
}

set_num_threads( 4 )
memory 2 gb

molecule MOL {
0 1

O	 0.363376	 1.056863	 -0.776673
C	 0.485107	 0.171416	 -0.000134
C	 1.606966	 -0.836201	 0.000174
O	 -0.363982	 -0.052939	 0.987438
C	 2.988788	 -0.202529	 -0.000115
H	 1.465110	 -1.474645	 -0.864821
H	 1.465209	 -1.474077	 0.865596
H	 3.131767	 0.419673	 -0.873407
H	 3.750876	 -0.972315	 0.000098
H	 3.131883	 0.420264	 0.872742
C	 -1.477675	 0.819772	 1.115306
C	 -2.290699	 0.359846	 2.302719
H	 -2.056142	 0.789917	 0.202710
H	 -1.120296	 1.831359	 1.246818
H	 -2.642178	 -0.654310	 2.160165
H	 -3.151147	 1.006294	 2.429077
H	 -1.701049	 0.393117	 3.210230

	symmetry c1
}
set optking {
	frozen_dihedral = ("
		4 2 3 6
	")
}

ee,wfn = optimize('scf', return_wfn=True)
oeprop( wfn, 'DIPOLE', 'QUADRUPOLE', 'MULLIKEN_CHARGES')
f=open( 'psi4out.xyz', 'w' )
f.write( "17  " )
f.write( str(ee) + "\n" )
f.write( MOL.save_string_xyz() )
f.close()
--------------------------------------------------------------------------

    Molecular point group: c1
  Charge       = 0
  Multiplicity = 1
  Basis Set: CC-PVTZ
  Basis Set:
  @DF-RHF Final Energy:  -345.03850421725650
    Total Energy =                       -345.0385042172565591
    Molecular point group: c1
  Basis Set: CC-PVTZ
  Basis Set:
  Basis Set: CC-PVTZ
  Basis Set:
  @DF-RHF Final Energy:  -345.03908918260771
    Total Energy =                       -345.0390891826076540
  Basis Set: CC-PVTZ
  Basis Set:
  Basis Set: CC-PVTZ
  Basis Set:
  @DF-RHF Final Energy:  -345.03855154990777
    Total Energy =                       -345.0385515499079361
  Basis Set: CC-PVTZ
  Basis Set:
  Basis Set: CC-PVTZ
  Basis Set:
  @DF-RHF Final Energy:  -345.03912780000502
    Total Energy =                       -345.0391278000054172
  Basis Set: CC-PVTZ
  Basis Set:
  Basis Set: CC-PVTZ
  Basis Set:
  @DF-RHF Final Energy:  -345.03913781015729
    Total Energy =                       -345.0391378101573991
  Basis Set: CC-PVTZ
  Basis Set:
  Charge       = 0
  Multiplicity = 1
  Basis Set: CC-PVTZ
  Basis Set:

    Orbital Energies (a.u.)
    -----------------------

    Doubly Occupied:

       1A    -20.595918     2A    -20.530245     3A    -11.363339
       4A    -11.282735     5A    -11.234784     6A    -11.220649
       7A    -11.218830     8A     -1.471075     9A     -1.363934
      10A     -1.070776    11A     -1.033167    12A     -0.910604
      13A     -0.850730    14A     -0.777578    15A     -0.696880
      16A     -0.689752    17A     -0.669151    18A     -0.623317
      19A     -0.593418    20A     -0.576463    21A     -0.556428
      22A     -0.531184    23A     -0.525105    24A     -0.511426
      25A     -0.503453    26A     -0.493286    27A     -0.455598
      28A     -0.436925

  @DF-RHF Final Energy:  -345.03913808691061

   => Energetics <=

    Nuclear Repulsion Energy =            315.5274730786637747
    One-Electron Energy =               -1095.5597221271793842
    Two-Electron Energy =                 434.9931109616051685
    DFT Exchange-Correlation Energy =       0.0000000000000000
    Empirical Dispersion Energy =           0.0000000000000000
    PCM Polarization Energy =               0.0000000000000000
    EFP Energy =                            0.0000000000000000
    Total Energy =                       -345.0391380869104410
    Molecular point group: c1
  Basis Set: CC-PVTZ
  Basis Set:

  -Total Gradient:
     Atom            X                  Y                   Z
    ------   -----------------  -----------------  -----------------
       1       -0.000008710155    -0.000123029695     0.000091644837
       2       -0.000376171997    -0.000326503692    -0.000749768840
       3       -0.000399102767    -0.000404109087     0.000702593300
       4        0.000351683793     0.000369475783     0.000337477152
       5       -0.000039256562    -0.000032065506    -0.000030169202
       6        0.000463736449     0.000514851987    -0.000402086306
       7        0.000000745610    -0.000037593160     0.000007174125
       8        0.000013741533     0.000010563461    -0.000012647226
       9       -0.000010596212     0.000004431006    -0.000001819802
      10       -0.000023947641    -0.000009954782     0.000001628625
      11        0.000096613755     0.000107422586     0.000109285362
      12       -0.000037180457    -0.000025196406    -0.000021172118
      13        0.000006589365    -0.000023693049    -0.000015717160
      14       -0.000038554626    -0.000016174839    -0.000013768013
      15       -0.000009893997    -0.000003570932     0.000015117432
      16        0.000006044042    -0.000011083704    -0.000001619080
      17        0.000004259865     0.000006230030    -0.000016153087

  **** Optimization is complete! (in 6 steps) ****
    Final optimized geometry and variables:
    Molecular point group: c1

    Geometry (in Angstrom), charge = 0, multiplicity = 1:

    O            0.253835724674     0.855064569302    -1.260434192836
    C            0.326126894149    -0.039111203639    -0.486394627269
    C            1.429905749691    -1.068967330319    -0.487875049600
    O           -0.559843695374    -0.245207820344     0.469978456516
    C            2.812373324933    -0.423681826316    -0.543713047645
    H            1.279240484931    -1.676381391743    -1.373936577857
    H            1.327868597747    -1.710237464886     0.375149861252
    H            2.899774989060     0.218877752140    -1.408347970378
    H            3.578158945068    -1.187011060496    -0.601060358090
    H            3.000754789450     0.173144078290     0.341142924817
    C           -1.661288090219     0.649062553643     0.555140715725
    C           -2.528245068059     0.204738132744     1.709907572285
    H           -2.203656862662     0.629678411166    -0.379537887863
    H           -1.289316686714     1.653291339727     0.700322936768
    H           -2.893330830249    -0.802523410545     1.553423805057
    H           -3.380380114584     0.867545812184     1.803151926272
    H           -1.973718399989     0.227096457509     2.639615814980

  Mulliken Charges: (a.u.)
   Center  Symbol    Alpha    Beta     Spin     Total
       1     O     4.20351  4.20351  0.00000 -0.40703
       2     C     2.81250  2.81250  0.00000  0.37500
       3     C     3.08577  3.08577  0.00000 -0.17155
       4     O     4.14767  4.14767  0.00000 -0.29534
       5     C     3.14433  3.14433  0.00000 -0.28866
       6     H     0.44633  0.44633  0.00000  0.10735
       7     H     0.43931  0.43931  0.00000  0.12139
       8     H     0.44154  0.44154  0.00000  0.11693
       9     H     0.44971  0.44971  0.00000  0.10059
      10     H     0.45374  0.45374  0.00000  0.09252
      11     C     2.97749  2.97749  0.00000  0.04502
      12     C     3.13319  3.13319  0.00000 -0.26639
      13     H     0.45402  0.45402  0.00000  0.09196
      14     H     0.45393  0.45393  0.00000  0.09214
      15     H     0.45133  0.45133  0.00000  0.09734
      16     H     0.45421  0.45421  0.00000  0.09158
      17     H     0.45143  0.45143  0.00000  0.09714

   Total alpha = 28.00000, Total beta = 28.00000, Total charge =  0.00000

*** Psi4 exiting successfully. Buy a developer a beer!
