                              Psi4 1.0.54 Driver

  ==> Input File <==

--------------------------------------------------------------------------
set {
	reference rhf
	basis cc-pvtz
}

set_num_threads( 4 )
memory 2 gb

molecule MOL {
0 1

O	 2.830469	 1.413364	 -0.503874
C	 2.783484	 0.257473	 -0.771862
C	 1.485900	 -0.524829	 -0.761262
C	 4.027944	 -0.516108	 -1.144844
C	 0.260048	 0.292225	 -0.378458
H	 1.362029	 -0.966722	 -1.747393
H	 1.615920	 -1.365398	 -0.083365
C	 -1.021552	 -0.536390	 -0.381308
H	 0.160888	 1.126583	 -1.063387
H	 0.415101	 0.727662	 0.602097
C	 -2.258482	 0.271340	 0.000669
H	 -1.169310	 -0.971934	 -1.367078
H	 -0.914099	 -1.372412	 0.306285
C	 -3.544441	 -0.550271	 -0.000253
H	 -2.366875	 1.107122	 -0.686232
H	 -2.112068	 0.706471	 0.986241
C	 -4.804551	 0.308747	 0.000556
H	 -3.553737	 -1.201524	 -0.870151
H	 -3.553831	 -1.203282	 0.868313
H	 -4.842050	 0.949078	 -0.874436
H	 -5.698404	 -0.304480	 -0.000254
H	 -4.842277	 0.947103	 0.876982
H	 3.920717	 -0.941638	 -2.136547
H	 4.886285	 0.137388	 -1.120677
H	 4.176739	 -1.339816	 -0.455345

	symmetry c1
}
set optking {
	frozen_dihedral = ("
		15 11 14 18
	")
}

ee,wfn = optimize('scf', return_wfn=True)
oeprop( wfn, 'DIPOLE', 'QUADRUPOLE', 'MULLIKEN_CHARGES')
f=open( 'psi4out.xyz', 'w' )
f.write( "25  " )
f.write( str(ee) + "\n" )
f.write( MOL.save_string_xyz() )
f.close()
--------------------------------------------------------------------------

    Molecular point group: c1
  Charge       = 0
  Multiplicity = 1
  Basis Set: CC-PVTZ
  Basis Set:
  @DF-RHF Final Energy:  -387.27374467589607
    Total Energy =                       -387.2737446758958413
    Molecular point group: c1
  Basis Set: CC-PVTZ
  Basis Set:
  Basis Set: CC-PVTZ
  Basis Set:
  @DF-RHF Final Energy:  -387.27382313686275
    Total Energy =                       -387.2738231368630295
  Basis Set: CC-PVTZ
  Basis Set:
  Basis Set: CC-PVTZ
  Basis Set:
  @DF-RHF Final Energy:  -387.27388726566977
    Total Energy =                       -387.2738872656693729
  Basis Set: CC-PVTZ
  Basis Set:
  Basis Set: CC-PVTZ
  Basis Set:
  @DF-RHF Final Energy:  -387.27370374595114
    Total Energy =                       -387.2737037459511384
  Basis Set: CC-PVTZ
  Basis Set:
  Charge       = 0
  Multiplicity = 1
  Basis Set: CC-PVTZ
  Basis Set:

    Orbital Energies (a.u.)
    -----------------------

    Doubly Occupied:

       1A    -20.538891     2A    -11.320538     3A    -11.230243
       4A    -11.226596     5A    -11.215463     6A    -11.214769
       7A    -11.213445     8A    -11.211406     9A    -11.206761
      10A     -1.398943    11A     -1.095107    12A     -1.057480
      13A     -1.015623    14A     -0.970344    15A     -0.891728
      16A     -0.815193    17A     -0.791833    18A     -0.731056
      19A     -0.662138    20A     -0.654468    21A     -0.632022
      22A     -0.626843    23A     -0.597070    24A     -0.585798
      25A     -0.568327    26A     -0.559709    27A     -0.541187
      28A     -0.527677    29A     -0.513362    30A     -0.492439
      31A     -0.489911    32A     -0.473924    33A     -0.464880
      34A     -0.460585    35A     -0.452937    36A     -0.401492

  @DF-RHF Final Energy:  -387.27388999810063

   => Energetics <=

    Nuclear Repulsion Energy =            439.0831786107145831
    One-Electron Energy =               -1395.0137529915045889
    Two-Electron Energy =                 568.6566843826891500
    DFT Exchange-Correlation Energy =       0.0000000000000000
    Empirical Dispersion Energy =           0.0000000000000000
    PCM Polarization Energy =               0.0000000000000000
    EFP Energy =                            0.0000000000000000
    Total Energy =                       -387.2738899981007989
    Molecular point group: c1
  Basis Set: CC-PVTZ
  Basis Set:

  -Total Gradient:
     Atom            X                  Y                   Z
    ------   -----------------  -----------------  -----------------
       1        0.000082966755    -0.000016190154     0.000019311733
       2       -0.000110949633    -0.000066636511    -0.000098562298
       3       -0.000016202520     0.000000674132     0.000045604190
       4        0.000050537749     0.000066188200     0.000044319805
       5       -0.000010146405     0.000005538369    -0.000011876716
       6        0.000000267176     0.000006118269    -0.000000665938
       7       -0.000001737742     0.000000325196    -0.000004594826
       8        0.000065295450    -0.000063670149    -0.000007170251
       9       -0.000000392277    -0.000002342885     0.000004159165
      10       -0.000000649105    -0.000001808975     0.000001421407
      11        0.001497199749    -0.002377694459    -0.002272736432
      12       -0.000002553585     0.000007344772     0.000007299733
      13       -0.000004974331     0.000008039249    -0.000000699814
      14       -0.001858050140     0.002777568524    -0.001349615002
      15       -0.000966508583     0.001589489760     0.002160425761
      16       -0.000007180152    -0.000014907404    -0.000045133197
      17       -0.000045693231     0.000084168536     0.000031615545
      18        0.001334002009    -0.002008582001     0.001522489328
      19       -0.000003266660     0.000026761037    -0.000040445504
      20       -0.000002722315    -0.000014850667     0.000005662853
      21        0.000006886060    -0.000002961641     0.000001761791
      22       -0.000012336708    -0.000017274461    -0.000012717641
      23       -0.000007610053     0.000017433058    -0.000001110572
      24        0.000018492018    -0.000017364628    -0.000006573621
      25       -0.000004673529     0.000014634835     0.000007830503

  **** Optimization is complete! (in 5 steps) ****
    Final optimized geometry and variables:
    Molecular point group: c1

    Geometry (in Angstrom), charge = 0, multiplicity = 1:

    O            2.872021612504     1.349042716966    -0.032261234674
    C            2.820717496537     0.198422304634    -0.321109861368
    C            1.518527645859    -0.576268684945    -0.336652355275
    C            4.064551075183    -0.575901115771    -0.694897351756
    C            0.293591192720     0.241680381190     0.047109234772
    H            1.402354022899    -1.001088934908    -1.331163546769
    H            1.636816020344    -1.428605012715     0.328609504642
    C           -0.992388741519    -0.579495665276     0.019436312677
    H            0.205197079089     1.086945687373    -0.625906324990
    H            0.441695662238     0.661232240390     1.035576425522
    C           -2.229252817210     0.230332548294     0.393216320879
    H           -1.130442954847    -1.004447401966    -0.972164839493
    H           -0.898834513414    -1.423044802233     0.700181960496
    C           -3.515665192553    -0.593840079044     0.427092659525
    H           -2.349191645211     1.064818750415    -0.293303742746
    H           -2.077358097896     0.682833757075     1.370416222401
    C           -4.778690171198     0.256767388748     0.490217095527
    H           -3.550503730675    -1.251177056746    -0.437553737687
    H           -3.486068773765    -1.254659485008     1.289634829539
    H           -4.871055705820     0.885689354902    -0.388784360387
    H           -5.666973346969    -0.361563213669     0.550156708830
    H           -4.768842614470     0.906013546711     1.359550656118
    H            3.964832569588    -0.983592361967    -1.694831266786
    H            4.926507212460     0.071831900060    -0.650950122889
    H            4.201502239031    -1.412120519947    -0.018129316581

  Mulliken Charges: (a.u.)
   Center  Symbol    Alpha    Beta     Spin     Total
       1     O     4.17075  4.17075  0.00000 -0.34150
       2     C     2.86223  2.86223  0.00000  0.27554
       3     C     3.11393  3.11393  0.00000 -0.22785
       4     C     3.15125  3.15125  0.00000 -0.30249
       5     C     3.08310  3.08310  0.00000 -0.16619
       6     H     0.44561  0.44561  0.00000  0.10879
       7     H     0.44560  0.44560  0.00000  0.10880
       8     C     3.09009  3.09009  0.00000 -0.18018
       9     H     0.44589  0.44589  0.00000  0.10821
      10     H     0.44598  0.44598  0.00000  0.10805
      11     C     3.08713  3.08713  0.00000 -0.17427
      12     H     0.45573  0.45573  0.00000  0.08853
      13     H     0.45580  0.45580  0.00000  0.08840
      14     C     3.08455  3.08455  0.00000 -0.16910
      15     H     0.45427  0.45427  0.00000  0.09145
      16     H     0.45340  0.45340  0.00000  0.09320
      17     C     3.14976  3.14976  0.00000 -0.29951
      18     H     0.45612  0.45612  0.00000  0.08776
      19     H     0.45453  0.45453  0.00000  0.09094
      20     H     0.45492  0.45492  0.00000  0.09016
      21     H     0.44879  0.44879  0.00000  0.10241
      22     H     0.45441  0.45441  0.00000  0.09118
      23     H     0.45042  0.45042  0.00000  0.09915
      24     H     0.43534  0.43534  0.00000  0.12931
      25     H     0.45040  0.45040  0.00000  0.09921

   Total alpha = 36.00000, Total beta = 36.00000, Total charge =  0.00000

*** Psi4 exiting successfully. Buy a developer a beer!
