  ==> Input File <==

--------------------------------------------------------------------------
set {
	reference rhf
	basis 6-31G*
}

set_num_threads( 4 )
memory 2 gb

molecule MOL {
0 1

H	 -0.216825	 0.021369	 -3.357402
C	 0.374198	 0.036393	 -2.447010
C	 -0.521757	 -0.028637	 -1.217342
H	 0.969602	 0.942322	 -2.434777
H	 1.053364	 -0.811668	 -2.481329
N	 0.263400	 0.031178	 0.000000
H	 -1.199035	 0.820290	 -1.219355
H	 -1.147901	 -0.924895	 -1.265384
C	 -0.521757	 -0.028637	 1.217342
H	 0.935769	 -0.712709	 0.000000
C	 0.158158	 0.740340	 2.342258
H	 -1.490969	 0.415792	 1.011190
H	 -0.714229	 -1.056931	 1.538605
H	 0.315818	 1.773481	 2.053941
H	 -0.444996	 0.719620	 3.244547
H	 1.125694	 0.307225	 2.582958

	symmetry c1
}
set optking {
	frozen_dihedral = ("
		12 9 6 3
	")
}

ee = optimize('scf')
oeprop('DIPOLE', 'QUADRUPOLE', 'MULLIKEN_CHARGES')
f=open( 'psi4out.xyz', 'w' )
f.write( "16  " )
f.write( str(ee) + "\n" )
f.write( MOL.save_string_xyz() )
f.close()
--------------------------------------------------------------------------

    Molecular point group: c1
  Charge       = 0
  Multiplicity = 1
  Basis Set: 6-31G*
  Basis Set:
  @DF-RHF Final Energy:  -212.31122314539525
    Total Energy =                       -212.3112231453951608
    Molecular point group: c1
  Basis Set: 6-31G*
  Basis Set:
  Basis Set: 6-31G*
  Basis Set:
  @DF-RHF Final Energy:  -212.31150360092516
    Total Energy =                       -212.3115036009252776
  Basis Set: 6-31G*
  Basis Set:
  Basis Set: 6-31G*
  Basis Set:
  @DF-RHF Final Energy:  -212.31156507735375
    Total Energy =                       -212.3115650773539187
  Basis Set: 6-31G*
  Basis Set:
  Basis Set: 6-31G*
  Basis Set:
  @DF-RHF Final Energy:  -212.31156775617549
    Total Energy =                       -212.3115677561754637
  Basis Set: 6-31G*
  Basis Set:
  Charge       = 0
  Multiplicity = 1
  Basis Set: 6-31G*
  Basis Set:

    Orbital Energies (a.u.)
    -----------------------

    Doubly Occupied:

       1A    -15.532140     2A    -11.241304     3A    -11.240569
       4A    -11.208285     5A    -11.203499     6A     -1.202406
       7A     -1.026647     8A     -0.962285     9A     -0.833366
      10A     -0.818631    11A     -0.663131    12A     -0.626631
      13A     -0.602856    14A     -0.573668    15A     -0.557480
      16A     -0.522284    17A     -0.506947    18A     -0.488825
      19A     -0.482134    20A     -0.473963    21A     -0.354264

  @DF-RHF Final Energy:  -212.31156801407886

   => Energetics <=

    Nuclear Repulsion Energy =            189.0298033602337853
    One-Electron Energy =                -660.4401107674906370
    Two-Electron Energy =                 259.0987393931779934
    DFT Exchange-Correlation Energy =       0.0000000000000000
    Empirical Dispersion Energy =           0.0000000000000000
    PCM Polarization Energy =               0.0000000000000000
    EFP Energy =                            0.0000000000000000
    Total Energy =                       -212.3115680140788299
    Molecular point group: c1
  Basis Set: 6-31G*
  Basis Set:

  -Total Gradient:
     Atom            X                  Y                   Z
    ------   -----------------  -----------------  -----------------
       1        0.000009115502    -0.000000502481    -0.000011337901
       2       -0.000014985819    -0.000007536694    -0.000012747465
       3       -0.000217272632     0.002879775454    -0.000013179229
       4       -0.000011149272     0.000000884766     0.000005986621
       5       -0.000003997974    -0.000003238554     0.000003910639
       6        0.000032886643    -0.004859874940    -0.000176862154
       7       -0.000005966891    -0.000000234494    -0.000009432362
       8        0.000011649153     0.000007217768    -0.000002943079
       9        0.001520075749     0.005290504440     0.001149406045
      10        0.000003985789    -0.000009318257     0.000003188738
      11       -0.000035870252    -0.000005243039    -0.000012578746
      12       -0.001299683174    -0.003270057279    -0.000939291490
      13        0.000001690672    -0.000023046408     0.000006467728
      14        0.000002048090    -0.000007844870     0.000005123221
      15        0.000014992564     0.000015107988     0.000010580988
      16       -0.000007518150    -0.000006593400    -0.000006291554

  **** Optimization is complete! (in 5 steps) ****
    Final optimized geometry and variables:
    Molecular point group: c1

    Geometry (in Angstrom), charge = 0, multiplicity = 1:

    H           -0.146322297586    -0.136750036677    -3.344357986279
    C            0.431395936049    -0.117471096414    -2.425546625432
    C           -0.482322202148    -0.182551244216    -1.209008303072
    H            1.023107614772     0.790825579216    -2.406422748044
    H            1.113936060924    -0.963235937297    -2.448253675702
    N            0.287523463854    -0.106947730224     0.016480014635
    H           -1.164134507529     0.661897819804    -1.225673629310
    H           -1.100906109459    -1.083732904043    -1.266446544705
    C           -0.484073675503    -0.154720551255     1.247017878743
    H            1.001465796763    -0.808512055856     0.025557058482
    C            0.218020992936     0.589018027336     2.374899410513
    H           -1.458397301737     0.282141906683     1.053557467992
    H           -0.688180945623    -1.182304466468     1.558846275376
    H            0.368549490093     1.628408484925     2.106308486270
    H           -0.362386227322     0.545169855493     3.292259528814
    H            1.192530747648     0.153269944057     2.576120876818

  Mulliken Charges: (a.u.)
   Center  Symbol    Alpha    Beta     Spin     Total
       1     H     0.42007  0.42007  0.00000  0.15987
       2     C     3.24341  3.24341  0.00000 -0.48682
       3     C     3.05041  3.05041  0.00000 -0.10082
       4     H     0.41209  0.41209  0.00000  0.17583
       5     H     0.42483  0.42483  0.00000  0.15034
       6     N     3.85379  3.85379  0.00000 -0.70758
       7     H     0.42012  0.42012  0.00000  0.15977
       8     H     0.43587  0.43587  0.00000  0.12825
       9     C     3.05703  3.05703  0.00000 -0.11407
      10     H     0.33374  0.33374  0.00000  0.33253
      11     C     3.23151  3.23151  0.00000 -0.46303
      12     H     0.42111  0.42111  0.00000  0.15778
      13     H     0.43237  0.43237  0.00000  0.13525
      14     H     0.41502  0.41502  0.00000  0.16997
      15     H     0.42494  0.42494  0.00000  0.15012
      16     H     0.42370  0.42370  0.00000  0.15260

   Total alpha = 21.00000, Total beta = 21.00000, Total charge =  0.00000
