  ==> Input File <==

--------------------------------------------------------------------------
set {
	reference rhf
	basis cc-pvtz
}

set_num_threads( 4 )
memory 2 gb

molecule MOL {
0 1

H	 -0.366580	 2.045936	 -0.305741
C	 0.351829	 1.335402	 0.083179
N	 -0.000018	 0.000080	 -0.334836
H	 1.327156	 1.599860	 -0.305475
H	 0.380566	 1.445403	 1.171445
C	 -1.424572	 -0.224141	 -0.282392
C	 0.549983	 -0.323105	 -1.629166
H	 -1.646283	 -1.253471	 -0.534219
H	 -1.791432	 -0.038887	 0.719247
H	 -1.980793	 0.419504	 -0.970439
H	 1.626638	 -0.210377	 -1.612162
H	 0.325964	 -1.352268	 -1.879690
H	 0.156464	 0.312619	 -2.427983

	symmetry c1
}
set optking {
	frozen_dihedral = ("
		6 3 2 1
	")
}

ee = optimize('scf')
oeprop('DIPOLE', 'QUADRUPOLE', 'MULLIKEN_CHARGES')
f=open( 'psi4out.xyz', 'w' )
f.write( "13  " )
f.write( str(ee) + "\n" )
f.write( MOL.save_string_xyz() )
f.close()
--------------------------------------------------------------------------

    Molecular point group: c1
  Charge       = 0
  Multiplicity = 1
  Basis Set: CC-PVTZ
  Basis Set:
  @DF-RHF Final Energy:  -173.33111390370752
    Total Energy =                       -173.3311139037074611
    Molecular point group: c1
  Basis Set: CC-PVTZ
  Basis Set:
  Basis Set: CC-PVTZ
  Basis Set:
  @DF-RHF Final Energy:  -173.33190551342886
    Total Energy =                       -173.3319055134288647
  Basis Set: CC-PVTZ
  Basis Set:
  Basis Set: CC-PVTZ
  Basis Set:
  @DF-RHF Final Energy:  -173.33197417313667
    Total Energy =                       -173.3319741731368424
  Basis Set: CC-PVTZ
  Basis Set:
  Charge       = 0
  Multiplicity = 1
  Basis Set: CC-PVTZ
  Basis Set:

    Orbital Energies (a.u.)
    -----------------------

    Doubly Occupied:

       1A    -15.539612     2A    -11.234202     3A    -11.234123
       4A    -11.234078     5A     -1.225992     6A     -0.952227
       7A     -0.951173     8A     -0.807703     9A     -0.642391
      10A     -0.631587    11A     -0.629469    12A     -0.548152
      13A     -0.542442    14A     -0.516871    15A     -0.501576
      16A     -0.499978    17A     -0.349867

  @DF-RHF Final Energy:  -173.33197615515732

   => Energetics <=

    Nuclear Repulsion Energy =            139.4051036223602580
    One-Electron Energy =                -509.3912763082262245
    Two-Electron Energy =                 196.6541965307087025
    DFT Exchange-Correlation Energy =       0.0000000000000000
    Empirical Dispersion Energy =           0.0000000000000000
    PCM Polarization Energy =               0.0000000000000000
    EFP Energy =                            0.0000000000000000
    Total Energy =                       -173.3319761551572924
    Molecular point group: c1
  Basis Set: CC-PVTZ
  Basis Set:

  -Total Gradient:
     Atom            X                  Y                   Z
    ------   -----------------  -----------------  -----------------
       1       -0.002707427421    -0.000469935825     0.003959535108
       2        0.003351312258     0.000992590160    -0.006316328040
       3       -0.000385806848    -0.001595952021     0.005646666726
       4        0.000003759023    -0.000009347468    -0.000008058249
       5       -0.000004722343     0.000016033502    -0.000013769008
       6       -0.000134590540     0.001067329710    -0.003397424491
       7       -0.000046438018    -0.000007776226     0.000175502750
       8       -0.000057194540    -0.000023127461    -0.000005922496
       9       -0.000020076997     0.000012098881     0.000004011191
      10        0.000000775738     0.000016819347    -0.000004483187
      11        0.000010792098     0.000014104866    -0.000005872784
      12       -0.000005483091    -0.000017620694    -0.000023654596
      13       -0.000004899317     0.000004783229    -0.000010202926

  **** Optimization is complete! (in 4 steps) ****
    Final optimized geometry and variables:
    Molecular point group: c1

    Geometry (in Angstrom), charge = 0, multiplicity = 1:

    H           -0.219145430800     1.878416003549     0.254648384883
    C            0.485864400244     1.134892053476     0.633491573054
    N            0.149970132925    -0.213008829963     0.225002285854
    H            1.482708523694     1.394302359336     0.305589305920
    H            0.462673168291     1.208516196743     1.715510652213
    C           -1.274589283222    -0.440300322353     0.278189014353
    C            0.678337285681    -0.535724494022    -1.081045096924
    H           -1.495561631259    -1.477110382486     0.058010724155
    H           -1.647664751536    -0.224896546120     1.272243270632
    H           -1.826197826722     0.184107554255    -0.430583905582
    H            1.756076374630    -0.436019951128    -1.081053557709
    H            0.439620478018    -1.562279311748    -1.329638060568
    H            0.278119748861     0.102978395733    -1.874393184863

  Mulliken Charges: (a.u.)
   Center  Symbol    Alpha    Beta     Spin     Total
       1     H     0.47176  0.47176  0.00000  0.05649
       2     C     3.08904  3.08904  0.00000 -0.17809
       3     N     3.59722  3.59722  0.00000 -0.19444
       4     H     0.45402  0.45402  0.00000  0.09196
       5     H     0.45101  0.45101  0.00000  0.09799
       6     C     3.09068  3.09068  0.00000 -0.18136
       7     C     3.08881  3.08881  0.00000 -0.17762
       8     H     0.45266  0.45266  0.00000  0.09468
       9     H     0.45241  0.45241  0.00000  0.09517
      10     H     0.47300  0.47300  0.00000  0.05400
      11     H     0.45225  0.45225  0.00000  0.09550
      12     H     0.45290  0.45290  0.00000  0.09420
      13     H     0.47424  0.47424  0.00000  0.05152

   Total alpha = 17.00000, Total beta = 17.00000, Total charge = -0.00000
