  ==> Input File <==

--------------------------------------------------------------------------
set {
	reference rhf
	basis 6-31G*
}

set_num_threads( 1 )
memory 2 gb

molecule MOL {
0 1

H	 2.530134	 -0.329102	 -0.660947
O	 1.654024	 -0.625927	 -0.460906
C	 1.135793	 0.118896	 0.612333
C	 0.031547	 1.023609	 0.088541
H	 1.915668	 0.729681	 1.063582
H	 0.754543	 -0.542641	 1.387006
C	 -1.134819	 0.293262	 -0.585751
H	 0.474374	 1.714721	 -0.623187
H	 -0.338529	 1.620940	 0.920081
C	 -1.917817	 -0.639439	 0.339494
H	 -0.758119	 -0.268455	 -1.433105
H	 -1.813832	 1.041889	 -0.986690
H	 -2.777680	 -1.057197	 -0.174994
H	 -1.310268	 -1.471279	 0.680599
H	 -2.283753	 -0.111424	 1.216626

	symmetry c1
}
set optking {
	frozen_dihedral = ("
		8 4 7 11,
		2 3 4 8
	")
}

ee = energy('scf')
oeprop('DIPOLE', 'QUADRUPOLE', 'MULLIKEN_CHARGES')
f=open( 'psi4out.xyz', 'w' )
f.write( "15  " )
f.write( str(ee) + "\n" )
f.write( MOL.save_string_xyz() )
f.close()
--------------------------------------------------------------------------

    Molecular point group: c1

    Geometry (in Angstrom), charge = 0, multiplicity = 1:

       Center              X                  Y                   Z               Mass
    ------------   -----------------  -----------------  -----------------  -----------------
           H          2.527478110340    -0.341006512733    -0.653968651290     1.007825032070
           O          1.651368110340    -0.637831512733    -0.453927651290    15.994914619560
           C          1.133137110340     0.106991487267     0.619311348710    12.000000000000
           C          0.028891110340     1.011704487267     0.095519348710    12.000000000000
           H          1.913012110340     0.717776487267     1.070560348710     1.007825032070
           H          0.751887110340    -0.554545512733     1.393984348710     1.007825032070
           C         -1.137474889660     0.281357487267    -0.578772651290    12.000000000000
           H          0.471718110340     1.702816487267    -0.616208651290     1.007825032070
           H         -0.341184889660     1.609035487267     0.927059348710     1.007825032070
           C         -1.920472889660    -0.651343512733     0.346472348710    12.000000000000
           H         -0.760774889660    -0.280359512733    -1.426126651290     1.007825032070
           H         -1.816487889660     1.029984487267    -0.979711651290     1.007825032070
           H         -2.780335889660    -1.069101512733    -0.168015651290     1.007825032070
           H         -1.312923889660    -1.483183512733     0.687577348710     1.007825032070
           H         -2.286408889660    -0.123328512733     1.223604348710     1.007825032070

  Charge       = 0
  Multiplicity = 1
  Basis Set: 6-31G*
  Basis Set:

    Orbital Energies (a.u.)
    -----------------------

    Doubly Occupied:

       1A    -20.552456     2A    -11.268054     3A    -11.210443
       4A    -11.208159     5A    -11.203325     6A     -1.360373
       7A     -1.062742     8A     -0.968869     9A     -0.869777
      10A     -0.778255    11A     -0.698109    12A     -0.643668
      13A     -0.614915    14A     -0.574131    15A     -0.559905
      16A     -0.532551    17A     -0.506168    18A     -0.482429
      19A     -0.466005    20A     -0.451876    21A     -0.423816

  @DF-RHF Final Energy:  -232.14122719460997

   => Energetics <=

    Nuclear Repulsion Energy =            191.9893960649719986
    One-Electron Energy =                -695.3892302051438037
    Two-Electron Energy =                 271.2586069455616098
    DFT Exchange-Correlation Energy =       0.0000000000000000
    Empirical Dispersion Energy =           0.0000000000000000
    PCM Polarization Energy =               0.0000000000000000
    EFP Energy =                            0.0000000000000000
    Total Energy =                       -232.1412271946102237

  Mulliken Charges: (a.u.)
   Center  Symbol    Alpha    Beta     Spin     Total
       1     H     0.27913  0.27913  0.00000  0.44173
       2     O     4.37006  4.37006  0.00000 -0.74013
       3     C     3.00511  3.00511  0.00000 -0.01022
       4     C     3.15572  3.15572  0.00000 -0.31145
       5     H     0.42902  0.42902  0.00000  0.14195
       6     H     0.41962  0.41962  0.00000  0.16076
       7     C     3.15314  3.15314  0.00000 -0.30627
       8     H     0.42311  0.42311  0.00000  0.15378
       9     H     0.42812  0.42812  0.00000  0.14377
      10     C     3.24399  3.24399  0.00000 -0.48798
      11     H     0.40846  0.40846  0.00000  0.18308
      12     H     0.42322  0.42322  0.00000  0.15356
      13     H     0.41909  0.41909  0.00000  0.16182
      14     H     0.41712  0.41712  0.00000  0.16576
      15     H     0.42507  0.42507  0.00000  0.14986

   Total alpha = 21.00000, Total beta = 21.00000, Total charge =  0.00000
