                              Psi4 1.0.54 Driver

  ==> Input File <==

--------------------------------------------------------------------------
set {
	reference rhf
	basis cc-pvtz
}

set_num_threads( 4 )
memory 2 gb

molecule MOL {
0 1

H	 -2.168959	 -1.087986	 0.542348
O	 -2.346257	 -0.289210	 0.080372
C	 -1.183935	 0.486039	 -0.009831
C	 0.062853	 -0.375310	 0.027457
H	 -1.178881	 1.094526	 -0.908634
H	 -1.184406	 1.155156	 0.838676
O	 1.172093	 0.457955	 -0.054438
H	 0.052476	 -1.081302	 -0.804627
H	 0.076323	 -0.955658	 0.947560
C	 2.395478	 -0.199028	 -0.000366
H	 2.505946	 -0.901710	 -0.823354
H	 3.174616	 0.545641	 -0.071768
H	 2.513730	 -0.742241	 0.934223

	symmetry c1
}
set optking {
	frozen_dihedral = ("
		1 2 3 5
	")
}

ee,wfn = optimize('scf', return_wfn=True)
oeprop( wfn, 'DIPOLE', 'QUADRUPOLE', 'MULLIKEN_CHARGES')
f=open( 'psi4out.xyz', 'w' )
f.write( "13  " )
f.write( str(ee) + "\n" )
f.write( MOL.save_string_xyz() )
f.close()
--------------------------------------------------------------------------

    Molecular point group: c1
  Charge       = 0
  Multiplicity = 1
  Basis Set: CC-PVTZ
  Basis Set:
  @DF-RHF Final Energy:  -268.05881219808947
    Total Energy =                       -268.0588121980894130
    Molecular point group: c1
  Basis Set: CC-PVTZ
  Basis Set:
  Basis Set: CC-PVTZ
  Basis Set:
  @DF-RHF Final Energy:  -268.05800094876662
    Total Energy =                       -268.0580009487667326
  Basis Set: CC-PVTZ
  Basis Set:
  Basis Set: CC-PVTZ
  Basis Set:
  @DF-RHF Final Energy:  -268.06014235953609
    Total Energy =                       -268.0601423595359165
  Basis Set: CC-PVTZ
  Basis Set:
  Basis Set: CC-PVTZ
  Basis Set:
  @DF-RHF Final Energy:  -268.06020099827271
    Total Energy =                       -268.0602009982728759
  Basis Set: CC-PVTZ
  Basis Set:
  Basis Set: CC-PVTZ
  Basis Set:
  @DF-RHF Final Energy:  -268.06020356181000
    Total Energy =                       -268.0602035618102263
  Basis Set: CC-PVTZ
  Basis Set:
  Charge       = 0
  Multiplicity = 1
  Basis Set: CC-PVTZ
  Basis Set:

    Orbital Energies (a.u.)
    -----------------------

    Doubly Occupied:

       1A    -20.560247     2A    -20.551486     3A    -11.276223
       4A    -11.270924     5A    -11.267239     6A     -1.396351
       7A     -1.368237     8A     -1.022140     9A     -0.916030
      10A     -0.850388    11A     -0.702610    12A     -0.683878
      13A     -0.671048    14A     -0.631407    15A     -0.604914
      16A     -0.580562    17A     -0.546294    18A     -0.498796
      19A     -0.474886    20A     -0.443793    21A     -0.428963

  @DF-RHF Final Energy:  -268.06020381532676

   => Energetics <=

    Nuclear Repulsion Energy =            190.6975830231401403
    One-Electron Energy =                -744.0227372299734725
    Two-Electron Energy =                 285.2649503915063178
    DFT Exchange-Correlation Energy =       0.0000000000000000
    Empirical Dispersion Energy =           0.0000000000000000
    PCM Polarization Energy =               0.0000000000000000
    EFP Energy =                            0.0000000000000000
    Total Energy =                       -268.0602038153269859
    Molecular point group: c1
  Basis Set: CC-PVTZ
  Basis Set:

  -Total Gradient:
     Atom            X                  Y                   Z
    ------   -----------------  -----------------  -----------------
       1        0.000703954780    -0.000799942786    -0.002440590200
       2       -0.000608866829     0.000656499050     0.002717293244
       3       -0.001170427758     0.001627947414     0.001089716131
       4       -0.000000889812    -0.000019110156    -0.000002530043
       5        0.001100329181    -0.001461951546    -0.001350935444
       6       -0.000011471135    -0.000016158693    -0.000002644255
       7        0.000005339477     0.000021182151    -0.000001455707
       8        0.000002397901    -0.000011048458    -0.000005646183
       9       -0.000008638954     0.000011352653    -0.000006420825
      10       -0.000008469299    -0.000017076031     0.000006428377
      11       -0.000000818040     0.000002532465    -0.000005643139
      12       -0.000004825308     0.000007949652    -0.000001931530
      13        0.000002385798    -0.000002175715     0.000004359575

  **** Optimization is complete! (in 6 steps) ****
    Final optimized geometry and variables:
    Molecular point group: c1

    Geometry (in Angstrom), charge = 0, multiplicity = 1:

    H           -2.173830796964    -1.209384524656     0.373595371732
    O           -2.347182308853    -0.348582518958     0.039251522303
    C           -1.197810952189     0.450441277090     0.103733602928
    C            0.070440857389    -0.365500681139    -0.052051403141
    H           -1.251970068762     1.160512498452    -0.709682544944
    H           -1.159808539588     1.000271983924     1.037879587732
    O            1.157003889338     0.494366729169     0.021311394980
    H            0.053595192202    -0.890939160770    -1.005872045201
    H            0.127053539456    -1.118317901641     0.737598212916
    C            2.394884781441    -0.120885558150    -0.127088612435
    H            2.481668527035    -0.610096471414    -1.094346265386
    H            3.154058197294     0.643596865686    -0.053457033536
    H            2.566148930337    -0.861353991674     0.650958507051

  Mulliken Charges: (a.u.)
   Center  Symbol    Alpha    Beta     Spin     Total
       1     H     0.39411  0.39411  0.00000  0.21179
       2     O     4.20289  4.20289  0.00000 -0.40577
       3     C     2.95576  2.95576  0.00000  0.08847
       4     C     2.97517  2.97517  0.00000  0.04965
       5     H     0.45975  0.45975  0.00000  0.08050
       6     H     0.46942  0.46942  0.00000  0.06117
       7     O     4.17250  4.17250  0.00000 -0.34500
       8     H     0.46918  0.46918  0.00000  0.06163
       9     H     0.48266  0.48266  0.00000  0.03468
      10     C     3.03300  3.03300  0.00000 -0.06600
      11     H     0.46985  0.46985  0.00000  0.06031
      12     H     0.44491  0.44491  0.00000  0.11018
      13     H     0.47080  0.47080  0.00000  0.05840

   Total alpha = 21.00000, Total beta = 21.00000, Total charge =  0.00000

*** Psi4 exiting successfully. Buy a developer a beer!
