  ==> Input File <==

--------------------------------------------------------------------------
set {
	reference rhf
	basis 6-31G*
}

set_num_threads( 1 )
memory 2 gb

molecule MOL {
0 1

H	 3.711303	 -0.950601	 -0.183591
O	 2.806912	 -1.182552	 0.003576
C	 2.077727	 -0.067559	 -0.035091
C	 0.624473	 -0.343591	 0.253101
O	 2.557738	 0.992866	 -0.271956
C	 -0.265902	 0.883932	 0.072916
H	 0.324016	 -1.163849	 -0.390541
H	 0.565024	 -0.726111	 1.268924
C	 -1.728698	 0.646073	 0.462102
H	 -0.209144	 1.219470	 -0.958188
H	 0.135059	 1.692851	 0.673903
C	 -2.482460	 -0.343073	 -0.431425
H	 -2.245265	 1.602650	 0.432430
H	 -1.779332	 0.308348	 1.496285
C	 -3.960546	 -0.461025	 -0.060175
H	 -2.395034	 -0.026811	 -1.468912
H	 -2.024850	 -1.327147	 -0.371646
H	 -4.472726	 -1.168004	 -0.705284
H	 -4.465146	 0.496508	 -0.151489
H	 -4.081218	 -0.800940	 0.964585

	symmetry c1
}
set optking {
	frozen_dihedral = ("
		16 12 9 6,
		7 4 6 10,
		12 9 6 10,
		1 2 3 5
	")
}

ee = energy('scf')
oeprop('DIPOLE', 'QUADRUPOLE', 'MULLIKEN_CHARGES')
f=open( 'psi4out.xyz', 'w' )
f.write( "20  " )
f.write( str(ee) + "\n" )
f.write( MOL.save_string_xyz() )
f.close()
--------------------------------------------------------------------------

    Molecular point group: c1

    Geometry (in Angstrom), charge = 0, multiplicity = 1:

       Center              X                  Y                   Z               Mass
    ------------   -----------------  -----------------  -----------------  -----------------
           H          3.712057638948    -0.949677831408    -0.178901647812     1.007825032070
           O          2.807666638948    -1.181628831408     0.008265352188    15.994914619560
           C          2.078481638948    -0.066635831408    -0.030401647812    12.000000000000
           C          0.625227638948    -0.342667831408     0.257790352188    12.000000000000
           O          2.558492638948     0.993789168592    -0.267266647812    15.994914619560
           C         -0.265147361052     0.884855168592     0.077605352188    12.000000000000
           H          0.324770638948    -1.162925831408    -0.385851647812     1.007825032070
           H          0.565778638948    -0.725187831408     1.273613352188     1.007825032070
           C         -1.727943361052     0.646996168592     0.466791352188    12.000000000000
           H         -0.208389361052     1.220393168592    -0.953498647812     1.007825032070
           H          0.135813638948     1.693774168592     0.678592352188     1.007825032070
           C         -2.481705361052    -0.342149831408    -0.426735647812    12.000000000000
           H         -2.244510361052     1.603573168592     0.437119352188     1.007825032070
           H         -1.778577361052     0.309271168592     1.500974352188     1.007825032070
           C         -3.959791361052    -0.460101831408    -0.055485647812    12.000000000000
           H         -2.394279361052    -0.025887831408    -1.464222647812     1.007825032070
           H         -2.024095361052    -1.326223831408    -0.366956647812     1.007825032070
           H         -4.471971361052    -1.167080831408    -0.700594647812     1.007825032070
           H         -4.464391361052     0.497431168592    -0.146799647812     1.007825032070
           H         -4.080463361052    -0.800016831408     0.969274352188     1.007825032070

  Charge       = 0
  Multiplicity = 1
  Basis Set: 6-31G*
  Basis Set:

    Orbital Energies (a.u.)
    -----------------------

    Doubly Occupied:

       1A    -20.612602     2A    -20.551597     3A    -11.381208
       4A    -11.240172     5A    -11.222991     6A    -11.220706
       7A    -11.220116     8A    -11.212408     9A     -1.474621
      10A     -1.365663    11A     -1.096233    12A     -1.040970
      13A     -0.961259    14A     -0.868881    15A     -0.816118
      16A     -0.777166    17A     -0.699737    18A     -0.690018
      19A     -0.663116    20A     -0.636384    21A     -0.602960
      22A     -0.593859    23A     -0.575399    24A     -0.555590
      25A     -0.540541    26A     -0.512875    27A     -0.495969
      28A     -0.478998    29A     -0.470592    30A     -0.467653
      31A     -0.457007    32A     -0.443767

  @DF-RHF Final Energy:  -383.94872283828261

   => Energetics <=

    Nuclear Repulsion Energy =            375.9235284056989030
    One-Electron Energy =               -1267.8501513027244982
    Two-Electron Energy =                 507.9779000587424207
    DFT Exchange-Correlation Energy =       0.0000000000000000
    Empirical Dispersion Energy =           0.0000000000000000
    PCM Polarization Energy =               0.0000000000000000
    EFP Energy =                            0.0000000000000000
    Total Energy =                       -383.9487228382831745

  Mulliken Charges: (a.u.)
   Center  Symbol    Alpha    Beta     Spin     Total
       1     H     0.26788  0.26788  0.00000  0.46425
       2     O     4.35155  4.35155  0.00000 -0.70310
       3     C     2.62199  2.62199  0.00000  0.75603
       4     C     3.21320  3.21320  0.00000 -0.42640
       5     O     4.27926  4.27926  0.00000 -0.55851
       6     C     3.15468  3.15468  0.00000 -0.30935
       7     H     0.39712  0.39712  0.00000  0.20575
       8     H     0.39869  0.39869  0.00000  0.20262
       9     C     3.15556  3.15556  0.00000 -0.31112
      10     H     0.41322  0.41322  0.00000  0.17357
      11     H     0.40677  0.40677  0.00000  0.18647
      12     C     3.15484  3.15484  0.00000 -0.30967
      13     H     0.41787  0.41787  0.00000  0.16427
      14     H     0.42363  0.42363  0.00000  0.15275
      15     C     3.23924  3.23924  0.00000 -0.47847
      16     H     0.42158  0.42158  0.00000  0.15684
      17     H     0.42264  0.42264  0.00000  0.15471
      18     H     0.41834  0.41834  0.00000  0.16332
      19     H     0.42065  0.42065  0.00000  0.15869
      20     H     0.42131  0.42131  0.00000  0.15738

   Total alpha = 32.00000, Total beta = 32.00000, Total charge = -0.00000
