  ==> Input File <==

--------------------------------------------------------------------------
set {
	reference rhf
	basis 6-31G*
}

set_num_threads( 4 )
memory 2 gb

molecule MOL {
0 1

H	 -0.216825	 0.021369	 -3.357402
C	 0.374198	 0.036393	 -2.447010
C	 -0.521757	 -0.028637	 -1.217342
H	 0.969602	 0.942322	 -2.434777
H	 1.053364	 -0.811668	 -2.481329
N	 0.263400	 0.031178	 0.000000
H	 -1.199035	 0.820290	 -1.219355
H	 -1.147901	 -0.924895	 -1.265384
C	 -0.521757	 -0.028637	 1.217342
H	 0.935769	 -0.712709	 0.000000
C	 -0.928628	 1.366611	 1.672079
H	 -1.412459	 -0.614759	 1.011190
H	 0.005508	 -0.540659	 2.028186
H	 -1.490542	 1.870239	 0.893636
H	 -1.541198	 1.318452	 2.566946
H	 -0.056199	 1.972767	 1.902502

	symmetry c1
}
set optking {
	frozen_dihedral = ("
		12 9 6 3
	")
}

ee = optimize('scf')
oeprop('DIPOLE', 'QUADRUPOLE', 'MULLIKEN_CHARGES')
f=open( 'psi4out.xyz', 'w' )
f.write( "16  " )
f.write( str(ee) + "\n" )
f.write( MOL.save_string_xyz() )
f.close()
--------------------------------------------------------------------------

    Molecular point group: c1
  Charge       = 0
  Multiplicity = 1
  Basis Set: 6-31G*
  Basis Set:
  @DF-RHF Final Energy:  -212.30993462890734
    Total Energy =                       -212.3099346289073992
    Molecular point group: c1
  Basis Set: 6-31G*
  Basis Set:
  Basis Set: 6-31G*
  Basis Set:
  @DF-RHF Final Energy:  -212.31107427417763
    Total Energy =                       -212.3110742741777131
  Basis Set: 6-31G*
  Basis Set:
  Basis Set: 6-31G*
  Basis Set:
  @DF-RHF Final Energy:  -212.31131985517223
    Total Energy =                       -212.3113198551720870
  Basis Set: 6-31G*
  Basis Set:
  Basis Set: 6-31G*
  Basis Set:
  @DF-RHF Final Energy:  -212.31132327543276
    Total Energy =                       -212.3113232754327555
  Basis Set: 6-31G*
  Basis Set:
  Charge       = 0
  Multiplicity = 1
  Basis Set: 6-31G*
  Basis Set:

    Orbital Energies (a.u.)
    -----------------------

    Doubly Occupied:

       1A    -15.533997     2A    -11.241132     3A    -11.240980
       4A    -11.208295     5A    -11.202036     6A     -1.203313
       7A     -1.024303     8A     -0.964697     9A     -0.842351
      10A     -0.804643    11A     -0.664180    12A     -0.626721
      13A     -0.612475    14A     -0.577147    15A     -0.539647
      16A     -0.527913    17A     -0.506432    18A     -0.493809
      19A     -0.480917    20A     -0.467261    21A     -0.359345

  @DF-RHF Final Energy:  -212.31132367021988

   => Energetics <=

    Nuclear Repulsion Energy =            190.5949118341198698
    One-Electron Energy =                -663.5692799410413727
    Two-Electron Energy =                 260.6630444367017390
    DFT Exchange-Correlation Energy =       0.0000000000000000
    Empirical Dispersion Energy =           0.0000000000000000
    PCM Polarization Energy =               0.0000000000000000
    EFP Energy =                            0.0000000000000000
    Total Energy =                       -212.3113236702197355
    Molecular point group: c1
  Basis Set: 6-31G*
  Basis Set:

  -Total Gradient:
     Atom            X                  Y                   Z
    ------   -----------------  -----------------  -----------------
       1       -0.000001448944    -0.000000023406    -0.000005540292
       2       -0.000002398542    -0.000001837349    -0.000000724836
       3        0.000174850673    -0.001800049222     0.000064740391
       4       -0.000002115079    -0.000001354394     0.000001888118
       5       -0.000004150674     0.000002024036     0.000003562646
       6       -0.000547904504     0.003063392000    -0.000237391151
       7       -0.000003464652     0.000004405264    -0.000006899639
       8       -0.000003135299    -0.000001655027    -0.000005029128
       9        0.001543539051    -0.003213383213     0.000838625306
      10        0.000014684885     0.000006814152    -0.000015014769
      11       -0.000008525196    -0.000022663603     0.000022216022
      12       -0.001144096493     0.001962205636    -0.000666899331
      13       -0.000006596211     0.000003199657     0.000014881270
      14       -0.000001888913    -0.000003560100    -0.000006641720
      15       -0.000005499249     0.000009418788     0.000000788994
      16       -0.000001850853    -0.000006933219    -0.000002561883

  **** Optimization is complete! (in 5 steps) ****
    Final optimized geometry and variables:
    Molecular point group: c1

    Geometry (in Angstrom), charge = 0, multiplicity = 1:

    H            0.087832615553    -0.266473785115    -3.210294548470
    C            0.663132698463    -0.231223065892    -2.290360102314
    C           -0.250187410891    -0.319699508105    -1.075188321040
    H            1.231411002950     0.691731634675    -2.271389618166
    H            1.367833275638    -1.058764802547    -2.310470487128
    N            0.517303004518    -0.248476226098     0.154630722604
    H           -0.947768700338     0.511577491133    -1.091298610915
    H           -0.853060472105    -1.230756171691    -1.131677553855
    C           -0.279102379866    -0.294384097873     1.373612377667
    H            1.183742142884    -0.995180138508     0.160824202951
    C           -0.649191095709     1.104852656428     1.857013156310
    H           -1.194190170317    -0.873671285171     1.233638003033
    H            0.299289228385    -0.793195976404     2.144081994292
    H           -1.229299337874     1.638433587828     1.110714242703
    H           -1.242973661184     1.055561238652     2.765729423365
    H            0.245757523772     1.682784352229     2.058153259403

  Mulliken Charges: (a.u.)
   Center  Symbol    Alpha    Beta     Spin     Total
       1     H     0.42044  0.42044  0.00000  0.15913
       2     C     3.24132  3.24132  0.00000 -0.48265
       3     C     3.05676  3.05676  0.00000 -0.11352
       4     H     0.41189  0.41189  0.00000  0.17623
       5     H     0.42501  0.42501  0.00000  0.14999
       6     N     3.84882  3.84882  0.00000 -0.69764
       7     H     0.41995  0.41995  0.00000  0.16010
       8     H     0.43435  0.43435  0.00000  0.13131
       9     C     3.06174  3.06174  0.00000 -0.12347
      10     H     0.33272  0.33272  0.00000  0.33456
      11     C     3.23091  3.23091  0.00000 -0.46183
      12     H     0.43125  0.43125  0.00000  0.13751
      13     H     0.42154  0.42154  0.00000  0.15693
      14     H     0.42187  0.42187  0.00000  0.15626
      15     H     0.42571  0.42571  0.00000  0.14858
      16     H     0.41574  0.41574  0.00000  0.16852

   Total alpha = 21.00000, Total beta = 21.00000, Total charge =  0.00000
