                              Psi4 1.0.54 Driver

  ==> Input File <==

--------------------------------------------------------------------------
set {
	reference rhf
	basis cc-pvtz
}

set_num_threads( 4 )
memory 2 gb

molecule MOL {
0 1

H	 3.221695	 0.281173	 -0.503843
N	 2.391272	 -0.271627	 -0.483851
C	 1.263552	 0.494993	 0.021953
H	 2.576480	 -1.060440	 0.099938
C	 -0.016533	 -0.325589	 -0.026925
H	 1.150336	 1.371860	 -0.606761
H	 1.418715	 0.857285	 1.039132
C	 -1.280353	 0.525521	 0.047747
H	 -0.016686	 -0.912532	 -0.939714
H	 -0.014099	 -1.037598	 0.796369
C	 -2.560681	 -0.301323	 -0.007747
H	 -1.279957	 1.241025	 -0.770189
H	 -1.270445	 1.110526	 0.963468
H	 -2.617064	 -0.872870	 -0.928010
H	 -3.439525	 0.331102	 0.043462
H	 -2.609427	 -1.002736	 0.818585

	symmetry c1
}
set optking {
	frozen_dihedral = ("
		6 3 5 9
	")
}

ee,wfn = optimize('scf', return_wfn=True)
oeprop( wfn, 'DIPOLE', 'QUADRUPOLE', 'MULLIKEN_CHARGES')
f=open( 'psi4out.xyz', 'w' )
f.write( "16  " )
f.write( str(ee) + "\n" )
f.write( MOL.save_string_xyz() )
f.close()
--------------------------------------------------------------------------

    Molecular point group: c1
  Charge       = 0
  Multiplicity = 1
  Basis Set: CC-PVTZ
  Basis Set:
  @DF-RHF Final Energy:  -212.39911582912111
    Total Energy =                       -212.3991158291212287
    Molecular point group: c1
  Basis Set: CC-PVTZ
  Basis Set:
  Basis Set: CC-PVTZ
  Basis Set:
  @DF-RHF Final Energy:  -212.39924535444393
    Total Energy =                       -212.3992453544439627
  Basis Set: CC-PVTZ
  Basis Set:
  Basis Set: CC-PVTZ
  Basis Set:
  @DF-RHF Final Energy:  -212.39929578748536
    Total Energy =                       -212.3992957874853005
  Basis Set: CC-PVTZ
  Basis Set:
  Basis Set: CC-PVTZ
  Basis Set:
  @DF-RHF Final Energy:  -212.39929729129457
    Total Energy =                       -212.3992972912946584
  Basis Set: CC-PVTZ
  Basis Set:
  Charge       = 0
  Multiplicity = 1
  Basis Set: CC-PVTZ
  Basis Set:

    Orbital Energies (a.u.)
    -----------------------

    Doubly Occupied:

       1A    -15.527093     2A    -11.237987     3A    -11.213263
       4A    -11.207849     5A    -11.205871     6A     -1.178570
       7A     -1.060865     8A     -0.959681     9A     -0.844338
      10A     -0.793253    11A     -0.660283    12A     -0.644723
      13A     -0.602012    14A     -0.577666    15A     -0.569567
      16A     -0.521952    17A     -0.501783    18A     -0.469789
      19A     -0.464909    20A     -0.463197    21A     -0.383785

  @DF-RHF Final Energy:  -212.39929746764258

   => Energetics <=

    Nuclear Repulsion Energy =            186.5153232791151083
    One-Electron Energy =                -655.6523742058298012
    Two-Electron Energy =                 256.7377534590719961
    DFT Exchange-Correlation Energy =       0.0000000000000000
    Empirical Dispersion Energy =           0.0000000000000000
    PCM Polarization Energy =               0.0000000000000000
    EFP Energy =                            0.0000000000000000
    Total Energy =                       -212.3992974676426684
    Molecular point group: c1
  Basis Set: CC-PVTZ
  Basis Set:

  -Total Gradient:
     Atom            X                  Y                   Z
    ------   -----------------  -----------------  -----------------
       1        0.000015017420     0.000006301817    -0.000011163902
       2       -0.000017945397     0.000018502019     0.000011016483
       3        0.001777629032    -0.002656782630    -0.002851929862
       4        0.000004849075    -0.000020824849     0.000009433142
       5       -0.002063057837     0.003495814650    -0.001310627126
       6       -0.001189273856     0.001684621456     0.002569906522
       7        0.000008737050    -0.000000750361     0.000016462572
       8        0.000011495814    -0.000015528828     0.000012152186
       9        0.001452184472    -0.002505905419     0.001553098716
      10       -0.000001142554    -0.000006698236     0.000005913381
      11       -0.000001436645     0.000001866320    -0.000005835500
      12        0.000003140034    -0.000003724153     0.000004401433
      13        0.000004430627     0.000002693947    -0.000000625608
      14       -0.000001931558    -0.000000983942     0.000002794644
      15       -0.000002410766    -0.000001827922    -0.000002668034
      16       -0.000000284913     0.000003226130    -0.000002329048

  **** Optimization is complete! (in 5 steps) ****
    Final optimized geometry and variables:
    Molecular point group: c1

    Geometry (in Angstrom), charge = 0, multiplicity = 1:

    H            3.253734068765     0.216457479252    -0.323459735327
    N            2.410491357657    -0.315366887325    -0.369007836253
    C            1.275771916011     0.464787548120     0.096315412463
    H            2.543295550469    -1.123901169094     0.202485612343
    C           -0.017869572055    -0.336640325514     0.018199477865
    H            1.189171287921     1.353273875252    -0.520332984481
    H            1.402150453742     0.825851857440     1.118519201018
    C           -1.272477501699     0.523514339812     0.117726536797
    H           -0.014723877693    -0.911118058580    -0.902546291749
    H           -0.025057215132    -1.071060121543     0.822235342339
    C           -2.559759390374    -0.293955184228     0.111047132205
    H           -1.289197070054     1.227402270701    -0.709488744995
    H           -1.230917411869     1.120529660542     1.025161029428
    H           -2.643408149228    -0.882175677908    -0.796598603831
    H           -3.432167492286     0.346483330769     0.172050014739
    H           -2.592930947768    -0.979074015482     0.951621224168

  Mulliken Charges: (a.u.)
   Center  Symbol    Alpha    Beta     Spin     Total
       1     H     0.43053  0.43053  0.00000  0.13894
       2     N     3.68730  3.68730  0.00000 -0.37460
       3     C     3.02515  3.02515  0.00000 -0.05029
       4     H     0.43101  0.43101  0.00000  0.13797
       5     C     3.08404  3.08404  0.00000 -0.16808
       6     H     0.45919  0.45919  0.00000  0.08162
       7     H     0.46861  0.46861  0.00000  0.06277
       8     C     3.08707  3.08707  0.00000 -0.17414
       9     H     0.44904  0.44904  0.00000  0.10191
      10     H     0.46025  0.46025  0.00000  0.07950
      11     C     3.14942  3.14942  0.00000 -0.29884
      12     H     0.45358  0.45358  0.00000  0.09283
      13     H     0.45638  0.45638  0.00000  0.08724
      14     H     0.45404  0.45404  0.00000  0.09192
      15     H     0.44882  0.44882  0.00000  0.10235
      16     H     0.45557  0.45557  0.00000  0.08887

   Total alpha = 21.00000, Total beta = 21.00000, Total charge = -0.00000

*** Psi4 exiting successfully. Buy a developer a beer!
