  ==> Input File <==

--------------------------------------------------------------------------
set {
	reference rhf
	basis 6-31G*
}

set_num_threads( 4 )
memory 2 gb

molecule MOL {
0 1

H	 -3.161837	 0.500524	 -0.000234
C	 -2.367097	 -0.232926	 -0.000000
O	 -1.158440	 0.455814	 -0.000122
H	 -2.468853	 -0.861886	 -0.882833
H	 -2.468942	 -0.861421	 0.883154
C	 -0.029776	 -0.365156	 0.000148
C	 -0.290877	 -1.557164	 0.904363
H	 0.839915	 0.192431	 0.350340
H	 0.190751	 -0.700470	 -1.014170
C	 0.897868	 -2.515258	 0.966195
H	 -0.528503	 -1.189944	 1.898015
H	 -1.173079	 -2.076671	 0.543071
H	 1.786273	 -2.020548	 1.348847
H	 0.684050	 -3.356051	 1.617497
H	 1.137633	 -2.913108	 -0.015961

	symmetry c1
}
set optking {
	frozen_dihedral = ("
		8 6 3 2
	")
}

ee = optimize('scf')
oeprop('DIPOLE', 'QUADRUPOLE', 'MULLIKEN_CHARGES')
f=open( 'psi4out.xyz', 'w' )
f.write( "15  " )
f.write( str(ee) + "\n" )
f.write( MOL.save_string_xyz() )
f.close()
--------------------------------------------------------------------------

    Molecular point group: c1
  Charge       = 0
  Multiplicity = 1
  Basis Set: 6-31G*
  Basis Set:
  @DF-RHF Final Energy:  -232.12248790756806
    Total Energy =                       -232.1224879075681429
    Molecular point group: c1
  Basis Set: 6-31G*
  Basis Set:
  Basis Set: 6-31G*
  Basis Set:
  @DF-RHF Final Energy:  -232.12199863360070
    Total Energy =                       -232.1219986336007537
  Basis Set: 6-31G*
  Basis Set:
  Basis Set: 6-31G*
  Basis Set:
  @DF-RHF Final Energy:  -232.13081558158379
    Total Energy =                       -232.1308155815838177
  Basis Set: 6-31G*
  Basis Set:
  Basis Set: 6-31G*
  Basis Set:
  @DF-RHF Final Energy:  -232.13263946118033
    Total Energy =                       -232.1326394611804176
  Basis Set: 6-31G*
  Basis Set:
  @DF-RHF Final Energy:  -232.13302831586952
    Total Energy =                       -232.1330283158694670
  Basis Set: 6-31G*
  Basis Set:
  @DF-RHF Final Energy:  -232.13316263013311
    Total Energy =                       -232.1331626301330857
  Basis Set: 6-31G*
  Basis Set:
  Basis Set: 6-31G*
  Basis Set:
  @DF-RHF Final Energy:  -232.13317478640388
    Total Energy =                       -232.1331747864040835
  Basis Set: 6-31G*
  Basis Set:
  Basis Set: 6-31G*
  Basis Set:
  @DF-RHF Final Energy:  -232.13317613031182
    Total Energy =                       -232.1331761303121084
  Basis Set: 6-31G*
  Basis Set:
  Charge       = 0
  Multiplicity = 1
  Basis Set: 6-31G*
  Basis Set:

    Orbital Energies (a.u.)
    -----------------------

    Doubly Occupied:

       1A    -20.549686     2A    -11.266372     3A    -11.262512
       4A    -11.220677     5A    -11.217254     6A     -1.371200
       7A     -1.058580     8A     -0.961291     9A     -0.886173
      10A     -0.799344    11A     -0.672273    12A     -0.659137
      13A     -0.628404    14A     -0.605750    15A     -0.562747
      16A     -0.535681    17A     -0.525093    18A     -0.499125
      19A     -0.489935    20A     -0.446006    21A     -0.406108

  @DF-RHF Final Energy:  -232.13317618845656

   => Energetics <=

    Nuclear Repulsion Energy =            192.1790262637364890
    One-Electron Energy =                -695.3777077567694960
    Two-Electron Energy =                 271.0655053045765044
    DFT Exchange-Correlation Energy =       0.0000000000000000
    Empirical Dispersion Energy =           0.0000000000000000
    PCM Polarization Energy =               0.0000000000000000
    EFP Energy =                            0.0000000000000000
    Total Energy =                       -232.1331761884565026
    Molecular point group: c1
  Basis Set: 6-31G*
  Basis Set:

  -Total Gradient:
     Atom            X                  Y                   Z
    ------   -----------------  -----------------  -----------------
       1       -0.000000953787    -0.000001269799    -0.000000187341
       2       -0.000076486048    -0.000017216761     0.004353301040
       3       -0.000131873952    -0.000251221257    -0.005403510165
       4       -0.000003398232    -0.000001986500     0.000001042742
       5       -0.000000672541     0.000002278925     0.000000005296
       6        0.001418900325     0.001627006248    -0.003753063896
       7        0.000003020590     0.000017237398     0.000011370633
       8       -0.001218013747    -0.001366139260     0.004797970577
       9        0.000009982080    -0.000007988644    -0.000006829823
      10       -0.000003308393    -0.000002039673    -0.000006756925
      11        0.000001517035    -0.000001633092     0.000003458203
      12        0.000002166468     0.000001854122    -0.000000145102
      13        0.000000006536    -0.000002290463     0.000005779047
      14       -0.000001643352    -0.000001469592    -0.000002984467
      15        0.000000757022     0.000004878345     0.000000550183

  **** Optimization is complete! (in 9 steps) ****
    Final optimized geometry and variables:
    Molecular point group: c1

    Geometry (in Angstrom), charge = 0, multiplicity = 1:

    H           -2.520799041688     1.601415526289    -0.537900930458
    C           -1.848529311235     0.765751937874    -0.397472556142
    O           -0.557512120827     1.287873528239    -0.372218951656
    H           -1.990579953536     0.067304497661    -1.220913498858
    H           -2.109475824069     0.265549970094     0.529697618819
    C            0.516373169915     0.386863923538    -0.357408289822
    C            0.349861754203    -0.832703405482     0.548721676934
    H            1.358213036792     0.956123069623     0.017829557907
    H            0.739627974310     0.062244354017    -1.373201477193
    C            1.640592164092    -1.650304820457     0.614163648215
    H            0.075082392170    -0.498241901630     1.545536229188
    H           -0.455293001631    -1.468998815783     0.194339647309
    H            2.460794383414    -1.062632347790     1.015906812682
    H            1.516555976599    -2.521086778058     1.249041460380
    H            1.935757138443    -2.000411087858    -0.370989980197

  Mulliken Charges: (a.u.)
   Center  Symbol    Alpha    Beta     Spin     Total
       1     H     0.41222  0.41222  0.00000  0.17557
       2     C     3.08072  3.08072  0.00000 -0.16143
       3     O     4.31139  4.31139  0.00000 -0.62277
       4     H     0.43213  0.43213  0.00000  0.13573
       5     H     0.42747  0.42747  0.00000  0.14505
       6     C     2.97436  2.97436  0.00000  0.05127
       7     C     3.17886  3.17886  0.00000 -0.35772
       8     H     0.41828  0.41828  0.00000  0.16344
       9     H     0.43110  0.43110  0.00000  0.13780
      10     C     3.24542  3.24542  0.00000 -0.49083
      11     H     0.41522  0.41522  0.00000  0.16956
      12     H     0.41916  0.41916  0.00000  0.16169
      13     H     0.41879  0.41879  0.00000  0.16241
      14     H     0.41527  0.41527  0.00000  0.16946
      15     H     0.41962  0.41962  0.00000  0.16077

   Total alpha = 21.00000, Total beta = 21.00000, Total charge =  0.00000
