  ==> Input File <==

--------------------------------------------------------------------------
set {
	reference rhf
	basis 6-31G*
}

set_num_threads( 4 )
memory 2 gb

molecule MOL {
0 1

H	 3.641292	 -0.900605	 0.540831
O	 2.826016	 -1.159218	 0.122261
C	 2.077727	 -0.067559	 -0.035091
C	 0.624473	 -0.343591	 0.253101
O	 2.542965	 0.974826	 -0.363729
C	 -0.265902	 0.883932	 0.072916
H	 0.324016	 -1.163849	 -0.390541
H	 0.565024	 -0.726111	 1.268924
C	 -1.728698	 0.646073	 0.462102
H	 -0.209144	 1.219470	 -0.958188
H	 0.135059	 1.692851	 0.673903
C	 -2.482460	 -0.343073	 -0.431425
H	 -2.245265	 1.602650	 0.432430
H	 -1.779332	 0.308348	 1.496285
C	 -3.960546	 -0.461025	 -0.060175
H	 -2.395034	 -0.026811	 -1.468912
H	 -2.024850	 -1.327147	 -0.371646
H	 -4.472726	 -1.168004	 -0.705284
H	 -4.465146	 0.496508	 -0.151489
H	 -4.081218	 -0.800940	 0.964585

	symmetry c1
}
set optking {
	frozen_dihedral = ("
		1 2 3 5
	")
}

ee = optimize('scf')
oeprop('DIPOLE', 'QUADRUPOLE', 'MULLIKEN_CHARGES')
f=open( 'psi4out.xyz', 'w' )
f.write( "20  " )
f.write( str(ee) + "\n" )
f.write( MOL.save_string_xyz() )
f.close()
--------------------------------------------------------------------------

    Molecular point group: c1
  Charge       = 0
  Multiplicity = 1
  Basis Set: 6-31G*
  Basis Set:
  @DF-RHF Final Energy:  -383.93976731701224
    Total Energy =                       -383.9397673170124108
    Molecular point group: c1
  Basis Set: 6-31G*
  Basis Set:
  Basis Set: 6-31G*
  Basis Set:
  @DF-RHF Final Energy:  -383.93726520216137
    Total Energy =                       -383.9372652021610861
  Basis Set: 6-31G*
  Basis Set:
  Basis Set: 6-31G*
  Basis Set:
  @DF-RHF Final Energy:  -383.94052532157900
    Total Energy =                       -383.9405253215793437
  Basis Set: 6-31G*
  Basis Set:
  Basis Set: 6-31G*
  Basis Set:
  @DF-RHF Final Energy:  -383.94058378411830
    Total Energy =                       -383.9405837841185303
  Basis Set: 6-31G*
  Basis Set:
  Basis Set: 6-31G*
  Basis Set:
  @DF-RHF Final Energy:  -383.94058999827615
    Total Energy =                       -383.9405899982762094
  Basis Set: 6-31G*
  Basis Set:
  Charge       = 0
  Multiplicity = 1
  Basis Set: 6-31G*
  Basis Set:

    Orbital Energies (a.u.)
    -----------------------

    Doubly Occupied:

       1A    -20.605542     2A    -20.555251     3A    -11.381235
       4A    -11.239762     5A    -11.222583     6A    -11.220544
       7A    -11.219910     8A    -11.212250     9A     -1.467955
      10A     -1.366544    11A     -1.095708    12A     -1.040225
      13A     -0.960119    14A     -0.867614    15A     -0.815449
      16A     -0.778186    17A     -0.702797    18A     -0.685935
      19A     -0.658489    20A     -0.639040    21A     -0.606605
      22A     -0.586302    23A     -0.573071    24A     -0.556166
      25A     -0.532673    26A     -0.514302    27A     -0.494326
      28A     -0.484924    29A     -0.469969    30A     -0.465692
      31A     -0.457096    32A     -0.443152

  @DF-RHF Final Energy:  -383.94058988838293

   => Energetics <=

    Nuclear Repulsion Energy =            375.5649152408716986
    One-Electron Energy =               -1267.1721799746333090
    Two-Electron Energy =                 507.6666748453787363
    DFT Exchange-Correlation Energy =       0.0000000000000000
    Empirical Dispersion Energy =           0.0000000000000000
    PCM Polarization Energy =               0.0000000000000000
    EFP Energy =                            0.0000000000000000
    Total Energy =                       -383.9405898883829309
    Molecular point group: c1
  Basis Set: 6-31G*
  Basis Set:

  -Total Gradient:
     Atom            X                  Y                   Z
    ------   -----------------  -----------------  -----------------
       1       -0.004000504839    -0.002265907697     0.010720148616
       2        0.003929171825     0.001999004712    -0.017948053896
       3        0.002272389191     0.002514563375     0.017134387376
       4        0.000097549055    -0.000086969131     0.000096569665
       5       -0.002221926276    -0.002158603967    -0.009929996817
       6       -0.000047076728    -0.000061980388    -0.000037230175
       7        0.000030452511     0.000071148055    -0.000035088552
       8        0.000004058607    -0.000007864789     0.000004996347
       9        0.000013640762    -0.000029319439     0.000029518297
      10        0.000000063391    -0.000036388447    -0.000018156457
      11       -0.000024365746     0.000032059794    -0.000012335401
      12       -0.000028860868     0.000014487574    -0.000007057659
      13        0.000008760879     0.000008023792     0.000030156094
      14        0.000025588846    -0.000035018992    -0.000003304710
      15       -0.000000136548     0.000019936515    -0.000012733804
      16        0.000007856000    -0.000007701987    -0.000024860110
      17       -0.000067548114     0.000029867190     0.000014523360
      18        0.000000551218     0.000000954902    -0.000001316210
      19       -0.000004811774    -0.000001655174     0.000001150901
      20        0.000005148604     0.000001364104    -0.000001316865

  **** Optimization is complete! (in 6 steps) ****
    Final optimized geometry and variables:
    Molecular point group: c1

    Geometry (in Angstrom), charge = 0, multiplicity = 1:

    H            3.675862224548    -0.991316463785     0.405357077241
    O            2.817862338460    -1.178952352775     0.041106009997
    C            2.084273149398    -0.052689355036     0.002087732070
    C            0.628337389720    -0.330306128732     0.274123288108
    O            2.547796108606     0.994236945846    -0.302665283432
    C           -0.269480008866     0.886527199383     0.063655132609
    H            0.343824926000    -1.164585714048    -0.358707526991
    H            0.558185513241    -0.698366793501     1.295311160289
    C           -1.734059895523     0.646653541066     0.445014992612
    H           -0.206332936154     1.202306902947    -0.973496928981
    H            0.120712812200     1.710023197976     0.651845098978
    C           -2.477509817480    -0.354823831450    -0.443394108003
    H           -2.254457438775     1.600650794958     0.401936682711
    H           -1.790526865827     0.319422457384     1.482350553815
    C           -3.958463967314    -0.472296518415    -0.083655093763
    H           -2.381821670645    -0.050481424020    -1.483685268002
    H           -2.017898050100    -1.336868239648    -0.368236413748
    H           -4.463108163375    -1.188347951723    -0.724667856410
    H           -4.464787300485     0.482690487253    -0.190869460776
    H           -4.087291672045    -0.800238200335     0.944037578161

  Mulliken Charges: (a.u.)
   Center  Symbol    Alpha    Beta     Spin     Total
       1     H     0.26686  0.26686  0.00000  0.46627
       2     O     4.35838  4.35838  0.00000 -0.71675
       3     C     2.62637  2.62637  0.00000  0.74727
       4     C     3.21280  3.21280  0.00000 -0.42559
       5     O     4.26635  4.26635  0.00000 -0.53271
       6     C     3.15466  3.15466  0.00000 -0.30932
       7     H     0.39561  0.39561  0.00000  0.20878
       8     H     0.40252  0.40252  0.00000  0.19497
       9     C     3.15545  3.15545  0.00000 -0.31091
      10     H     0.41224  0.41224  0.00000  0.17553
      11     H     0.40835  0.40835  0.00000  0.18330
      12     C     3.15473  3.15473  0.00000 -0.30946
      13     H     0.41796  0.41796  0.00000  0.16409
      14     H     0.42417  0.42417  0.00000  0.15166
      15     C     3.23925  3.23925  0.00000 -0.47851
      16     H     0.42122  0.42122  0.00000  0.15757
      17     H     0.42262  0.42262  0.00000  0.15476
      18     H     0.41826  0.41826  0.00000  0.16348
      19     H     0.42068  0.42068  0.00000  0.15864
      20     H     0.42153  0.42153  0.00000  0.15693

   Total alpha = 32.00000, Total beta = 32.00000, Total charge =  0.00000
