  ==> Input File <==

--------------------------------------------------------------------------
set {
	reference rhf
	basis 6-31G*
}

set_num_threads( 4 )
memory 2 gb

molecule MOL {
0 1

O	 1.215555	 1.305535	 -0.055701
C	 1.122059	 0.121804	 -0.000188
C	 -0.170150	 -0.657997	 -0.000612
O	 2.171538	 -0.687168	 0.071457
C	 -1.412532	 0.227344	 -0.000452
H	 -0.153702	 -1.313099	 -0.867402
H	 -0.153924	 -1.313811	 0.865644
C	 -2.706999	 -0.587347	 -0.000541
H	 -1.388000	 0.879466	 -0.868000
H	 -1.387972	 0.879138	 0.867341
C	 -3.956778	 0.291888	 0.000910
H	 -2.726114	 -1.239230	 -0.871609
H	 -2.725217	 -1.240844	 0.869333
H	 -3.985213	 0.933254	 -0.875158
H	 -4.860123	 -0.309979	 0.000519
H	 -3.984618	 0.931166	 0.878514
C	 3.451072	 -0.080651	 0.079955
H	 3.608476	 0.487191	 -0.825731
H	 4.161150	 -0.890542	 0.141710
H	 3.555327	 0.574682	 0.932701

	symmetry c1
}
set optking {
	frozen_dihedral = ("
		1 2 3 6
	")
}

ee = optimize('scf')
oeprop('DIPOLE', 'QUADRUPOLE', 'MULLIKEN_CHARGES')
f=open( 'psi4out.xyz', 'w' )
f.write( "20  " )
f.write( str(ee) + "\n" )
f.write( MOL.save_string_xyz() )
f.close()
--------------------------------------------------------------------------

    Molecular point group: c1
  Charge       = 0
  Multiplicity = 1
  Basis Set: 6-31G*
  Basis Set:
  @DF-RHF Final Energy:  -383.94158137798877
    Total Energy =                       -383.9415813779889959
    Molecular point group: c1
  Basis Set: 6-31G*
  Basis Set:
  Basis Set: 6-31G*
  Basis Set:
  @DF-RHF Final Energy:  -383.94152896292110
    Total Energy =                       -383.9415289629210974
  Basis Set: 6-31G*
  Basis Set:
  Basis Set: 6-31G*
  Basis Set:
  @DF-RHF Final Energy:  -383.94158541887020
    Total Energy =                       -383.9415854188699768
  Basis Set: 6-31G*
  Basis Set:
  Charge       = 0
  Multiplicity = 1
  Basis Set: 6-31G*
  Basis Set:

    Orbital Energies (a.u.)
    -----------------------

    Doubly Occupied:

       1A    -20.603785     2A    -20.545565     3A    -11.372441
       4A    -11.280949     5A    -11.235739     6A    -11.220353
       7A    -11.219373     8A    -11.210682     9A     -1.469476
      10A     -1.362923    11A     -1.088777    12A     -1.024439
      13A     -0.969157    14A     -0.885886    15A     -0.804040
      16A     -0.767641    17A     -0.696825    18A     -0.683828
      19A     -0.672029    20A     -0.646154    21A     -0.597503
      22A     -0.592125    23A     -0.578881    24A     -0.539266
      25A     -0.537572    26A     -0.522813    27A     -0.500709
      28A     -0.478235    29A     -0.473474    30A     -0.470674
      31A     -0.455831    32A     -0.437059

  @DF-RHF Final Energy:  -383.94158619607094

   => Energetics <=

    Nuclear Repulsion Energy =            381.0721481945320193
    One-Electron Energy =               -1278.1390576512603729
    Two-Electron Energy =                 513.1253232606574102
    DFT Exchange-Correlation Energy =       0.0000000000000000
    Empirical Dispersion Energy =           0.0000000000000000
    PCM Polarization Energy =               0.0000000000000000
    EFP Energy =                            0.0000000000000000
    Total Energy =                       -383.9415861960709435
    Molecular point group: c1
  Basis Set: 6-31G*
  Basis Set:

  -Total Gradient:
     Atom            X                  Y                   Z
    ------   -----------------  -----------------  -----------------
       1        0.000003739511    -0.000004415305    -0.000157246716
       2       -0.000018579543     0.000028488758     0.000211150060
       3        0.000070316727    -0.000119676985     0.000053883546
       4        0.000006487831    -0.000003147828    -0.000038533910
       5       -0.000000384633    -0.000001665931    -0.000019850905
       6       -0.000044686702     0.000091603566    -0.000084571794
       7       -0.000010821590     0.000004096472    -0.000013100341
       8       -0.000001898434     0.000002975941     0.000002488715
       9        0.000008245273    -0.000016566971     0.000007173238
      10       -0.000011787566     0.000018009042     0.000007334503
      11       -0.000000153980    -0.000000945190     0.000008912320
      12       -0.000000315889     0.000003459749    -0.000004361874
      13        0.000000354413    -0.000003068205    -0.000004253693
      14        0.000001794678    -0.000002682895     0.000000097081
      15       -0.000000479979    -0.000000068377     0.000002252301
      16       -0.000001302151     0.000002554800     0.000000485314
      17       -0.000001205094     0.000003097154     0.000064384506
      18       -0.000011253660     0.000001209529    -0.000013297640
      19        0.000000229754    -0.000000785929    -0.000010336703
      20        0.000011701037    -0.000002471395    -0.000012608007

  **** Optimization is complete! (in 4 steps) ****
    Final optimized geometry and variables:
    Molecular point group: c1

    Geometry (in Angstrom), charge = 0, multiplicity = 1:

    O            1.215220836309     1.305372082651    -0.059950844276
    C            1.122109534865     0.121580279414    -0.005060688641
    C           -0.169970534260    -0.658495008390    -0.005088479752
    O            2.172087685617    -0.687438806540     0.058565697095
    C           -1.412369886999     0.226938657661    -0.010886236648
    H           -0.151106071110    -1.312171232147    -0.873321098738
    H           -0.156664819051    -1.315020209422     0.860203068494
    C           -2.706855370478    -0.587687034527    -0.016962744084
    H           -1.383302552381     0.879050753129    -0.878047204903
    H           -1.392346382642     0.878708689590     0.857307843153
    C           -3.956593982574     0.291593313750    -0.020332678595
    H           -2.722154215852    -1.238859731231    -0.888646045488
    H           -2.728943536780    -1.241878301059     0.852285656035
    H           -3.981250709478     0.933374717822    -0.896203259216
    H           -4.859961068636    -0.310235146091    -0.024830340376
    H           -3.988127462500     0.930447387059     0.857476480334
    C            3.451668542849    -0.080990368801     0.056978434442
    H            3.601219589790     0.488320778083    -0.849151077475
    H            4.162201289009    -0.891028641298     0.111190184370
    H            3.563405783341     0.572949051724     0.909821799818

  Mulliken Charges: (a.u.)
   Center  Symbol    Alpha    Beta     Spin     Total
       1     O     4.28597  4.28597  0.00000 -0.57193
       2     C     2.60522  2.60522  0.00000  0.78956
       3     C     3.20814  3.20814  0.00000 -0.41627
       4     O     4.30722  4.30722  0.00000 -0.61445
       5     C     3.15115  3.15115  0.00000 -0.30230
       6     H     0.40059  0.40059  0.00000  0.19883
       7     H     0.40073  0.40073  0.00000  0.19853
       8     C     3.15423  3.15423  0.00000 -0.30847
       9     H     0.41124  0.41124  0.00000  0.17752
      10     H     0.41267  0.41267  0.00000  0.17465
      11     C     3.23931  3.23931  0.00000 -0.47862
      12     H     0.42294  0.42294  0.00000  0.15412
      13     H     0.42297  0.42297  0.00000  0.15406
      14     H     0.41990  0.41990  0.00000  0.16020
      15     H     0.41874  0.41874  0.00000  0.16253
      16     H     0.42002  0.42002  0.00000  0.15996
      17     C     3.09246  3.09246  0.00000 -0.18491
      18     H     0.40908  0.40908  0.00000  0.18183
      19     H     0.40841  0.40841  0.00000  0.18319
      20     H     0.40902  0.40902  0.00000  0.18197

   Total alpha = 32.00000, Total beta = 32.00000, Total charge =  0.00000
