  ==> Input File <==

--------------------------------------------------------------------------
set {
	reference rhf
	basis cc-pvtz
}

set_num_threads( 4 )
memory 2 gb

molecule MOL {
0 1

H	 -2.390071	 1.102475	 1.683398
C	 -1.718825	 1.375466	 2.494440
O	 -0.413701	 0.984317	 2.227617
H	 -1.725991	 2.450020	 2.604760
H	 -2.090682	 0.927305	 3.414092
C	 -0.246578	 -0.386343	 2.069517
C	 1.179918	 -0.685228	 1.682061
H	 -0.475215	 -0.904269	 3.000886
H	 -0.913743	 -0.769289	 1.300313
O	 1.401606	 -0.295166	 0.366636
H	 1.851494	 -0.159955	 2.357712
H	 1.359369	 -1.754459	 1.793931
C	 2.714315	 -0.441627	 -0.061017
H	 2.765292	 -0.641548	 -1.128869
H	 3.305661	 0.447341	 0.150952
H	 3.143725	 -1.278506	 0.470147

	symmetry c1
}
set optking {
	frozen_dihedral = ("
		7 10 13 14
	")
}

ee = optimize('scf')
oeprop('DIPOLE', 'QUADRUPOLE', 'MULLIKEN_CHARGES')
f=open( 'psi4out.xyz', 'w' )
f.write( "16  " )
f.write( str(ee) + "\n" )
f.write( MOL.save_string_xyz() )
f.close()
--------------------------------------------------------------------------

    Molecular point group: c1
  Charge       = 0
  Multiplicity = 1
  Basis Set: CC-PVTZ
  Basis Set:
  @DF-RHF Final Energy:  -307.09516129128144
    Total Energy =                       -307.0951612912812152
    Molecular point group: c1
  Basis Set: CC-PVTZ
  Basis Set:
  Basis Set: CC-PVTZ
  Basis Set:
  @DF-RHF Final Energy:  -307.09597534621315
    Total Energy =                       -307.0959753462128106
  Basis Set: CC-PVTZ
  Basis Set:
  Basis Set: CC-PVTZ
  Basis Set:
  @DF-RHF Final Energy:  -307.09617779435752
    Total Energy =                       -307.0961777943572883
  Basis Set: CC-PVTZ
  Basis Set:
  Charge       = 0
  Multiplicity = 1
  Basis Set: CC-PVTZ
  Basis Set:

    Orbital Energies (a.u.)
    -----------------------

    Doubly Occupied:

       1A    -20.547668     2A    -20.546024     3A    -11.267619
       4A    -11.266758     5A    -11.261482     6A    -11.261326
       7A     -1.390631     8A     -1.373204     9A     -1.031886
      10A     -0.937164    11A     -0.892241    12A     -0.824243
      13A     -0.685838    14A     -0.682104    15A     -0.658808
      16A     -0.636921    17A     -0.632097    18A     -0.597249
      19A     -0.552485    20A     -0.538737    21A     -0.508223
      22A     -0.479278    23A     -0.464420    24A     -0.421896
      25A     -0.412525

  @DF-RHF Final Energy:  -307.09617895045176

   => Energetics <=

    Nuclear Repulsion Energy =            258.7726070152380089
    One-Electron Energy =                -931.9959220622654357
    Two-Electron Energy =                 366.1271360965754411
    DFT Exchange-Correlation Energy =       0.0000000000000000
    Empirical Dispersion Energy =           0.0000000000000000
    PCM Polarization Energy =               0.0000000000000000
    EFP Energy =                            0.0000000000000000
    Total Energy =                       -307.0961789504519857
    Molecular point group: c1
  Basis Set: CC-PVTZ
  Basis Set:

  -Total Gradient:
     Atom            X                  Y                   Z
    ------   -----------------  -----------------  -----------------
       1        0.000001544489    -0.000000384854    -0.000001012887
       2       -0.000000049338    -0.000004073926     0.000004603330
       3        0.000001621928    -0.000001345122     0.000016832221
       4        0.000002370148    -0.000001709613    -0.000000513868
       5       -0.000003325979     0.000001458189     0.000001181094
       6       -0.000008293161     0.000040943143    -0.000126530134
       7       -0.000357462501    -0.002177024226    -0.000681404223
       8        0.000044432113    -0.000000698734    -0.000013479430
       9       -0.000029113920    -0.000013796127    -0.000002041786
      10        0.000672395968     0.002412562301     0.001117120806
      11        0.000017029448    -0.000001624553    -0.000010133644
      12        0.000001112164     0.000005173923    -0.000029650650
      13       -0.000075883563     0.002539973200    -0.000840853324
      14       -0.000208387319    -0.002802918415     0.000531324805
      15       -0.000050006127     0.000017141606     0.000008910344
      16       -0.000007984352    -0.000013676794     0.000025647343

  **** Optimization is complete! (in 4 steps) ****
    Final optimized geometry and variables:
    Molecular point group: c1

    Geometry (in Angstrom), charge = 0, multiplicity = 1:

    H           -2.872285193530     1.013985294932     0.206670714491
    C           -2.207165667969     1.282497859360     1.024209515815
    O           -0.901174409740     0.887435466220     0.767673506264
    H           -2.211519717277     2.356774445549     1.137323763530
    H           -2.588552927607     0.833251981149     1.939437293620
    C           -0.737441528328    -0.483380569232     0.607444774010
    C            0.690850723257    -0.786620346636     0.230656397900
    H           -0.974821472462    -1.002786803477     1.535866292796
    H           -1.399800427611    -0.862275089903    -0.167899075389
    O            0.920182513081    -0.397497257757    -1.084353666459
    H            1.357000776370    -0.264057686067     0.913749953118
    H            0.865800204397    -1.856074126599     0.341381759716
    C            2.233824563713    -0.536945572577    -1.520822162030
    H            2.219249663011    -0.731318283452    -2.584436580332
    H            2.813414700875     0.359715186590    -1.322189786603
    H            2.727167829670    -1.378369846513    -1.040005756408

  Mulliken Charges: (a.u.)
   Center  Symbol    Alpha    Beta     Spin     Total
       1     H     0.47015  0.47015  0.00000  0.05970
       2     C     3.03201  3.03201  0.00000 -0.06403
       3     O     4.17053  4.17053  0.00000 -0.34105
       4     H     0.44639  0.44639  0.00000  0.10721
       5     H     0.47370  0.47370  0.00000  0.05261
       6     C     2.96185  2.96185  0.00000  0.07631
       7     C     2.95968  2.95968  0.00000  0.08064
       8     H     0.47610  0.47610  0.00000  0.04781
       9     H     0.47097  0.47097  0.00000  0.05806
      10     O     4.17298  4.17298  0.00000 -0.34595
      11     H     0.47135  0.47135  0.00000  0.05729
      12     H     0.47531  0.47531  0.00000  0.04938
      13     C     3.02960  3.02960  0.00000 -0.05919
      14     H     0.45114  0.45114  0.00000  0.09773
      15     H     0.46259  0.46259  0.00000  0.07482
      16     H     0.47567  0.47567  0.00000  0.04867

   Total alpha = 25.00000, Total beta = 25.00000, Total charge =  0.00000
