                              Psi4 1.0.54 Driver

  ==> Input File <==

--------------------------------------------------------------------------
set {
	reference rhf
	basis cc-pvtz
}

set_num_threads( 4 )
memory 2 gb

molecule MOL {
0 1

H	 -2.123894	 -0.667238	 -0.609809
O	 -2.041679	 -0.058866	 0.103463
C	 -0.959304	 0.780994	 -0.094939
C	 0.354905	 0.037902	 -0.006215
H	 -0.985899	 1.279578	 -1.057596
H	 -0.969809	 1.529522	 0.682889
F	 0.192157	 -1.245168	 -0.276465
F	 1.214069	 0.522431	 -0.878377
F	 0.899666	 0.121643	 1.183825

	symmetry c1
}
set optking {
	frozen_dihedral = ("
		7 4 3 5
	")
}

ee,wfn = optimize('scf', return_wfn=True)
oeprop( wfn, 'DIPOLE', 'QUADRUPOLE', 'MULLIKEN_CHARGES')
f=open( 'psi4out.xyz', 'w' )
f.write( "9  " )
f.write( str(ee) + "\n" )
f.write( MOL.save_string_xyz() )
f.close()
--------------------------------------------------------------------------

    Molecular point group: c1
  Charge       = 0
  Multiplicity = 1
  Basis Set: CC-PVTZ
  Basis Set:
  @DF-RHF Final Energy:  -450.84210656614283
    Total Energy =                       -450.8421065661427747
    Molecular point group: c1
  Basis Set: CC-PVTZ
  Basis Set:
  Basis Set: CC-PVTZ
  Basis Set:
  @DF-RHF Final Energy:  -450.84254278818509
    Total Energy =                       -450.8425427881852556
  Basis Set: CC-PVTZ
  Basis Set:
  Basis Set: CC-PVTZ
  Basis Set:
  @DF-RHF Final Energy:  -450.84287267617742
    Total Energy =                       -450.8428726761772509
  Basis Set: CC-PVTZ
  Basis Set:
  Basis Set: CC-PVTZ
  Basis Set:
  @DF-RHF Final Energy:  -450.84289087601383
    Total Energy =                       -450.8428908760139393
  Basis Set: CC-PVTZ
  Basis Set:
  Basis Set: CC-PVTZ
  Basis Set:
  @DF-RHF Final Energy:  -450.84289348707273
    Total Energy =                       -450.8428934870725584
  Basis Set: CC-PVTZ
  Basis Set:
  Charge       = 0
  Multiplicity = 1
  Basis Set: CC-PVTZ
  Basis Set:

    Orbital Energies (a.u.)
    -----------------------

    Doubly Occupied:

       1A    -26.340924     2A    -26.340358     3A    -26.334346
       4A    -20.583578     5A    -11.495774     6A    -11.309787
       7A     -1.748628     8A     -1.646815     9A     -1.641393
      10A     -1.407360    11A     -1.047313    12A     -0.930557
      13A     -0.837239    14A     -0.836423    15A     -0.815424
      16A     -0.728894    17A     -0.719138    18A     -0.705735
      19A     -0.671957    20A     -0.666899    21A     -0.649111
      22A     -0.631610    23A     -0.618987    24A     -0.530230
      25A     -0.484270

  @DF-RHF Final Energy:  -450.84289370770011

   => Energetics <=

    Nuclear Repulsion Energy =            277.0525323556043986
    One-Electron Energy =               -1176.3453525613324473
    Two-Electron Energy =                 448.4499264980278213
    DFT Exchange-Correlation Energy =       0.0000000000000000
    Empirical Dispersion Energy =           0.0000000000000000
    PCM Polarization Energy =               0.0000000000000000
    EFP Energy =                            0.0000000000000000
    Total Energy =                       -450.8428937077002274
    Molecular point group: c1
  Basis Set: CC-PVTZ
  Basis Set:

  -Total Gradient:
     Atom            X                  Y                   Z
    ------   -----------------  -----------------  -----------------
       1       -0.000020710276    -0.000007819852     0.000000869295
       2        0.000042642089     0.000003241380    -0.000031113211
       3       -0.003121556439    -0.005723431017    -0.001364449895
       4        0.001583196306     0.002083293261    -0.005481131626
       5        0.002331959880     0.004460451167     0.002319166650
       6        0.000003921605     0.000000917740     0.000004370069
       7       -0.000846270223    -0.000848080648     0.004531151836
       8        0.000012258862     0.000022383933    -0.000032705803
       9        0.000014558197     0.000009044038     0.000053842688

  **** Optimization is complete! (in 6 steps) ****
    Final optimized geometry and variables:
    Molecular point group: c1

    Geometry (in Angstrom), charge = 0, multiplicity = 1:

    H           -2.123935347013    -0.707891364924    -0.533192926599
    O           -2.066214002493    -0.028382293464     0.114865594626
    C           -0.970407193335     0.779573633343    -0.116094697979
    C            0.359119615709     0.033646368795    -0.019562611406
    H           -0.995310411281     1.294117504542    -1.070003555017
    H           -0.962328225624     1.538075385900     0.652162025262
    F            0.222561661248    -1.244876179459    -0.305567612337
    F            1.247633824553     0.542809938481    -0.846476320577
    F            0.871995033777     0.099616035920     1.191473492150

  Mulliken Charges: (a.u.)
   Center  Symbol    Alpha    Beta     Spin     Total
       1     H     0.38609  0.38609  0.00000  0.22782
       2     O     4.18774  4.18774  0.00000 -0.37547
       3     C     3.00079  3.00079  0.00000 -0.00157
       4     C     2.67859  2.67859  0.00000  0.64281
       5     H     0.46323  0.46323  0.00000  0.07355
       6     H     0.44914  0.44914  0.00000  0.10173
       7     F     4.61366  4.61366  0.00000 -0.22732
       8     F     4.61050  4.61050  0.00000 -0.22100
       9     F     4.61027  4.61027  0.00000 -0.22054

   Total alpha = 25.00000, Total beta = 25.00000, Total charge = -0.00000

*** Psi4 exiting successfully. Buy a developer a beer!
