                              Psi4 1.0.54 Driver

  ==> Input File <==

--------------------------------------------------------------------------
set {
	reference rhf
	basis cc-pvtz
}

set_num_threads( 4 )
memory 2 gb

molecule MOL {
0 1

H	 -3.436473	 1.252944	 -1.023892
O	 -3.458596	 0.315260	 -0.960865
C	 -3.176635	 -0.080824	 0.355601
C	 -1.763371	 0.265266	 0.799691
H	 -3.321825	 -1.153438	 0.379502
H	 -3.895468	 0.357385	 1.043382
C	 -0.673390	 -0.426948	 -0.013392
H	 -1.631049	 1.344913	 0.747560
H	 -1.664587	 -0.001624	 1.849167
C	 -0.015937	 0.490482	 -1.041035
H	 -1.095519	 -1.291107	 -0.514341
H	 0.085127	 -0.809151	 0.665635
C	 1.077451	 -0.207010	 -1.847915
H	 -0.780358	 0.876424	 -1.708568
H	 0.410472	 1.353637	 -0.534088
C	 1.821839	 0.692891	 -2.835798
H	 0.644930	 -1.047449	 -2.385908
H	 1.800850	 -0.631269	 -1.157033
C	 0.970434	 1.213977	 -3.991100
H	 2.657977	 0.134387	 -3.245337
H	 2.254024	 1.533610	 -2.299303
H	 0.520012	 0.394903	 -4.542747
H	 1.574431	 1.786099	 -4.686158
H	 0.171461	 1.859858	 -3.647465

	symmetry c1
}
set optking {
	frozen_dihedral = ("
		11 7 4 3
	")
}

ee,wfn = optimize('scf', return_wfn=True)
oeprop( wfn, 'DIPOLE', 'QUADRUPOLE', 'MULLIKEN_CHARGES')
f=open( 'psi4out.xyz', 'w' )
f.write( "24  " )
f.write( str(ee) + "\n" )
f.write( MOL.save_string_xyz() )
f.close()
--------------------------------------------------------------------------

    Molecular point group: c1
  Charge       = 0
  Multiplicity = 1
  Basis Set: CC-PVTZ
  Basis Set:
  @DF-RHF Final Energy:  -349.37604816461680
    Total Energy =                       -349.3760481646167477
    Molecular point group: c1
  Basis Set: CC-PVTZ
  Basis Set:
  Basis Set: CC-PVTZ
  Basis Set:
  @DF-RHF Final Energy:  -349.37634566150393
    Total Energy =                       -349.3763456615043879
  Basis Set: CC-PVTZ
  Basis Set:
  Basis Set: CC-PVTZ
  Basis Set:
  @DF-RHF Final Energy:  -349.37642538231387
    Total Energy =                       -349.3764253823139256
  Basis Set: CC-PVTZ
  Basis Set:
  Charge       = 0
  Multiplicity = 1
  Basis Set: CC-PVTZ
  Basis Set:

    Orbital Energies (a.u.)
    -----------------------

    Doubly Occupied:

       1A    -20.547580     2A    -11.266105     3A    -11.215099
       4A    -11.210489     5A    -11.210307     6A    -11.207604
       7A    -11.206812     8A    -11.203198     9A     -1.365072
      10A     -1.087361    11A     -1.047277    12A     -0.985794
      13A     -0.914891    14A     -0.851733    15A     -0.800285
      16A     -0.774981    17A     -0.683376    18A     -0.649589
      19A     -0.633161    20A     -0.614358    21A     -0.601589
      22A     -0.578093    23A     -0.556166    24A     -0.533955
      25A     -0.529220    26A     -0.510667    27A     -0.490699
      28A     -0.483424    29A     -0.467741    30A     -0.458711
      31A     -0.452559    32A     -0.441718    33A     -0.422139

  @DF-RHF Final Energy:  -349.37642625784315

   => Energetics <=

    Nuclear Repulsion Energy =            392.9457248603237076
    One-Electron Energy =               -1252.6407945268140338
    Two-Electron Energy =                 510.3186434086476311
    DFT Exchange-Correlation Energy =       0.0000000000000000
    Empirical Dispersion Energy =           0.0000000000000000
    PCM Polarization Energy =               0.0000000000000000
    EFP Energy =                            0.0000000000000000
    Total Energy =                       -349.3764262578426951
    Molecular point group: c1
  Basis Set: CC-PVTZ
  Basis Set:

  -Total Gradient:
     Atom            X                  Y                   Z
    ------   -----------------  -----------------  -----------------
       1        0.000011836490    -0.000019928471     0.000044381021
       2       -0.000008772997    -0.000098311866    -0.000088040184
       3       -0.000024089928    -0.000857078521     0.000867480437
       4       -0.000127792233     0.001583520002    -0.001465160360
       5        0.000015630269     0.000041965323    -0.000063504426
       6       -0.000013524096    -0.000023251536     0.000046962373
       7        0.000531393555    -0.001639570225     0.002003633680
       8       -0.000016807190    -0.000016106257    -0.000016439663
       9        0.000041345591    -0.000012626034    -0.000017566838
      10        0.000029247429     0.000042296395     0.000059164502
      11       -0.000445170412     0.000988934325    -0.001377913913
      12       -0.000015972941     0.000041205058     0.000012541336
      13       -0.000021745725    -0.000010638044     0.000014627006
      14        0.000001138190     0.000012194686     0.000018682529
      15        0.000025913340     0.000015452390     0.000009745500
      16       -0.000012803272    -0.000034397318    -0.000031650411
      17        0.000026269224    -0.000021851972    -0.000008036585
      18        0.000012862598     0.000009102225    -0.000016417997
      19        0.000003787564     0.000007690812     0.000004170106
      20        0.000010925301     0.000005840351    -0.000012793911
      21       -0.000014183412    -0.000015503442     0.000005617747
      22        0.000001180838    -0.000000289224     0.000002107349
      23       -0.000001619467    -0.000000187540    -0.000000943489
      24       -0.000009048717     0.000001538883     0.000009354193

  **** Optimization is complete! (in 4 steps) ****
    Final optimized geometry and variables:
    Molecular point group: c1

    Geometry (in Angstrom), charge = 0, multiplicity = 1:

    H           -2.732305966422     0.930270610661     0.149203599573
    O           -2.741581447539    -0.005760684115     0.234730782888
    C           -2.475198873650    -0.365433298546     1.565251072475
    C           -1.062410210878    -0.028262862180     2.017509738585
    H           -2.630317327944    -1.435344542603     1.616895618864
    H           -3.196439887801     0.098143030031     2.233961293482
    C            0.045456332998    -0.710287392260     1.195655216223
    H           -0.927115190767     1.050949677365     2.003955482472
    H           -0.985651730622    -0.324256542506     3.059710144820
    C            0.703615290762     0.202424224612     0.161065815869
    H           -0.371485892168    -1.568758053442     0.678259338359
    H            0.811738442190    -1.089459914243     1.863786337846
    C            1.777009353670    -0.509679623466    -0.659081015429
    H           -0.063028427114     0.597729512402    -0.494880941923
    H            1.150223732884     1.054690331589     0.669573012016
    C            2.526871449179     0.383092175345    -1.649473928494
    H            1.324334265961    -1.338666717964    -1.198150665026
    H            2.500390469991    -0.950552978414     0.021889767381
    C            1.670942932426     0.930283993925    -2.789252266071
    H            3.346534462937    -0.188363559746    -2.074358031682
    H            2.982705263528     1.210658760429    -1.111946506415
    H            1.194963543569     0.125175564179    -3.339645988517
    H            2.277356899294     1.494592680653    -3.488682968899
    H            0.890419623802     1.589853765530    -2.429764337443

  Mulliken Charges: (a.u.)
   Center  Symbol    Alpha    Beta     Spin     Total
       1     H     0.39382  0.39382  0.00000  0.21236
       2     O     4.20396  4.20396  0.00000 -0.40792
       3     C     2.97679  2.97679  0.00000  0.04642
       4     C     3.11299  3.11299  0.00000 -0.22598
       5     H     0.45869  0.45869  0.00000  0.08262
       6     H     0.46006  0.46006  0.00000  0.07988
       7     C     3.08723  3.08723  0.00000 -0.17447
       8     H     0.45668  0.45668  0.00000  0.08664
       9     H     0.44660  0.44660  0.00000  0.10680
      10     C     3.09056  3.09056  0.00000 -0.18112
      11     H     0.45323  0.45323  0.00000  0.09355
      12     H     0.44704  0.44704  0.00000  0.10592
      13     C     3.09657  3.09657  0.00000 -0.19314
      14     H     0.45252  0.45252  0.00000  0.09496
      15     H     0.45696  0.45696  0.00000  0.08609
      16     C     3.08988  3.08988  0.00000 -0.17976
      17     H     0.45256  0.45256  0.00000  0.09488
      18     H     0.45111  0.45111  0.00000  0.09779
      19     C     3.15170  3.15170  0.00000 -0.30340
      20     H     0.44905  0.44905  0.00000  0.10191
      21     H     0.45584  0.45584  0.00000  0.08832
      22     H     0.45377  0.45377  0.00000  0.09246
      23     H     0.44716  0.44716  0.00000  0.10568
      24     H     0.45525  0.45525  0.00000  0.08949

   Total alpha = 33.00000, Total beta = 33.00000, Total charge = -0.00000

*** Psi4 exiting successfully. Buy a developer a beer!
