                              Psi4 1.0.54 Driver

  ==> Input File <==

--------------------------------------------------------------------------
set {
	reference rhf
	basis cc-pvtz
}

set_num_threads( 4 )
memory 2 gb

molecule MOL {
0 1

H	 -0.000105	 1.988529	 0.748933
O	 -0.000098	 1.879786	 -0.188206
C	 -0.000014	 0.545691	 -0.532416
C	 0.159699	 -0.322124	 0.717050
C	 1.039342	 0.281740	 -1.623216
H	 -0.965874	 0.312080	 -0.955737
F	 -0.830832	 -0.082239	 1.540556
F	 0.150496	 -1.601321	 0.439052
F	 1.280254	 -0.048302	 1.350100
F	 0.754531	 1.006085	 -2.677286
F	 1.064713	 -0.973733	 -1.993158
F	 2.247780	 0.615910	 -1.223987

	symmetry c1
}
set optking {
	frozen_dihedral = ("
		6 3 2 1
	")
}

ee,wfn = optimize('scf', return_wfn=True)
oeprop( wfn, 'DIPOLE', 'QUADRUPOLE', 'MULLIKEN_CHARGES')
f=open( 'psi4out.xyz', 'w' )
f.write( "12  " )
f.write( str(ee) + "\n" )
f.write( MOL.save_string_xyz() )
f.close()
--------------------------------------------------------------------------

    Molecular point group: c1
  Charge       = 0
  Multiplicity = 1
  Basis Set: CC-PVTZ
  Basis Set:
  @DF-RHF Final Energy:  -786.58416530007776
    Total Energy =                       -786.5841653000777569
    Molecular point group: c1
  Basis Set: CC-PVTZ
  Basis Set:
  Basis Set: CC-PVTZ
  Basis Set:
  @DF-RHF Final Energy:  -786.58528361485321
    Total Energy =                       -786.5852836148537790
  Basis Set: CC-PVTZ
  Basis Set:
  Basis Set: CC-PVTZ
  Basis Set:
  @DF-RHF Final Energy:  -786.58553332196880
    Total Energy =                       -786.5855333219691374
  Basis Set: CC-PVTZ
  Basis Set:
  Basis Set: CC-PVTZ
  Basis Set:
  @DF-RHF Final Energy:  -786.58557478978844
    Total Energy =                       -786.5855747897884385
  Basis Set: CC-PVTZ
  Basis Set:
  Basis Set: CC-PVTZ
  Basis Set:
  @DF-RHF Final Energy:  -786.58559038883448
    Total Energy =                       -786.5855903888343619
  Basis Set: CC-PVTZ
  Basis Set:
  Basis Set: CC-PVTZ
  Basis Set:
  @DF-RHF Final Energy:  -786.58559297875024
    Total Energy =                       -786.5855929787499008
  Basis Set: CC-PVTZ
  Basis Set:
  Charge       = 0
  Multiplicity = 1
  Basis Set: CC-PVTZ
  Basis Set:

    Orbital Energies (a.u.)
    -----------------------

    Doubly Occupied:

       1A    -26.364763     2A    -26.363440     3A    -26.362366
       4A    -26.351354     5A    -26.348674     6A    -26.347735
       7A    -20.607366     8A    -11.527364     9A    -11.514347
      10A    -11.351840    11A     -1.776917    12A     -1.762015
      13A     -1.672382    14A     -1.669716    15A     -1.657446
      16A     -1.655730    17A     -1.436817    18A     -1.105299
      19A     -1.003197    20A     -0.943938    21A     -0.876463
      22A     -0.869062    23A     -0.863563    24A     -0.849359
      25A     -0.838874    26A     -0.803602    27A     -0.754100
      28A     -0.740878    29A     -0.726346    30A     -0.724638
      31A     -0.710877    32A     -0.696236    33A     -0.692058
      34A     -0.676817    35A     -0.674908    36A     -0.671667
      37A     -0.659359    38A     -0.655695    39A     -0.621036
      40A     -0.550210    41A     -0.507247

  @DF-RHF Final Energy:  -786.58559355420743

   => Energetics <=

    Nuclear Repulsion Energy =            671.1293415651964551
    One-Electron Energy =               -2429.4584507317567841
    Two-Electron Energy =                 971.7435156123530078
    DFT Exchange-Correlation Energy =       0.0000000000000000
    Empirical Dispersion Energy =           0.0000000000000000
    PCM Polarization Energy =               0.0000000000000000
    EFP Energy =                            0.0000000000000000
    Total Energy =                       -786.5855935542073212
    Molecular point group: c1
  Basis Set: CC-PVTZ
  Basis Set:

  -Total Gradient:
     Atom            X                  Y                   Z
    ------   -----------------  -----------------  -----------------
       1        0.000750477423    -0.000048840348     0.000043603571
       2       -0.000868953071     0.000037430809    -0.000233273896
       3       -0.000198141660    -0.000078624291     0.000739370334
       4        0.000082842491    -0.000088714828    -0.000020452444
       5        0.000066456703     0.000101939333     0.000052929279
       6        0.000241965578     0.000083117298    -0.000574795281
       7       -0.000057846786     0.000069791730     0.000019741827
       8       -0.000010489022    -0.000025080769    -0.000040122088
       9        0.000028789099     0.000029593921     0.000015131782
      10       -0.000028610053    -0.000004551537    -0.000002677074
      11       -0.000038890739    -0.000084842724    -0.000005506929
      12        0.000032400028     0.000008781407     0.000006050935

  **** Optimization is complete! (in 7 steps) ****
    Final optimized geometry and variables:
    Molecular point group: c1

    Geometry (in Angstrom), charge = 0, multiplicity = 1:

    H           -0.556872271119     2.032109790434     0.965020131100
    O           -0.556981395290     1.801593952942     0.053096264402
    C           -0.608938996848     0.435700074144    -0.148384592615
    C           -0.442990323064    -0.340510667496     1.156357386460
    C            0.432850289322     0.086418433388    -1.211163379283
    H           -1.569462878924     0.143869344324    -0.556653922228
    F           -1.341802182884     0.093739312604     2.019295531637
    F           -0.634964749580    -1.621207369612     0.987354609883
    F            0.734506028069    -0.164565040776     1.704134147752
    F            0.159936260407     0.743669329663    -2.311652251079
    F            0.406217111010    -1.196273289217    -1.493265727623
    F            1.648862548350     0.397719625024    -0.843889779800

  Mulliken Charges: (a.u.)
   Center  Symbol    Alpha    Beta     Spin     Total
       1     H     0.38223  0.38223  0.00000  0.23554
       2     O     4.18949  4.18949  0.00000 -0.37898
       3     C     2.99475  2.99475  0.00000  0.01050
       4     C     2.68727  2.68727  0.00000  0.62546
       5     C     2.67948  2.67948  0.00000  0.64105
       6     H     0.44056  0.44056  0.00000  0.11888
       7     F     4.61099  4.61099  0.00000 -0.22199
       8     F     4.59888  4.59888  0.00000 -0.19776
       9     F     4.60365  4.60365  0.00000 -0.20729
      10     F     4.60272  4.60272  0.00000 -0.20543
      11     F     4.60654  4.60654  0.00000 -0.21307
      12     F     4.60346  4.60346  0.00000 -0.20691

   Total alpha = 41.00000, Total beta = 41.00000, Total charge =  0.00000

*** Psi4 exiting successfully. Buy a developer a beer!
