  ==> Input File <==

--------------------------------------------------------------------------
set {
	reference rhf
	basis 6-31G*
}

set_num_threads( 1 )
memory 2 gb

molecule MOL {
0 1

H	 -2.172150	 0.880146	 0.502514
C	 -2.018062	 -0.000025	 -0.114509
O	 -0.774054	 0.001095	 -0.743181
H	 -2.760490	 0.003458	 -0.901350
H	 -2.173624	 -0.884374	 0.496163
C	 -0.164295	 -1.228511	 -1.093603
C	 1.148921	 -0.806512	 -1.748882
C	 0.121249	 -2.077659	 0.149217
C	 -1.022917	 -2.005277	 -2.096857
H	 1.747644	 -0.233517	 -1.049854
H	 0.951228	 -0.182427	 -2.613064
H	 1.721620	 -1.670941	 -2.068945
H	 0.667929	 -1.495903	 0.883879
H	 0.720643	 -2.942543	 -0.115930
H	 -0.788586	 -2.443920	 0.612474
H	 -1.279660	 -1.372894	 -2.940199
H	 -0.478581	 -2.866810	 -2.469676
H	 -1.942271	 -2.370713	 -1.652023

	symmetry c1
}
set optking {
	frozen_dihedral = ("
		2 3 6 7
	")
}

ee = energy('scf')
oeprop('DIPOLE', 'QUADRUPOLE', 'MULLIKEN_CHARGES')
f=open( 'psi4out.xyz', 'w' )
f.write( "18  " )
f.write( str(ee) + "\n" )
f.write( MOL.save_string_xyz() )
f.close()
--------------------------------------------------------------------------

    Molecular point group: c1

    Geometry (in Angstrom), charge = 0, multiplicity = 1:

       Center              X                  Y                   Z               Mass
    ------------   -----------------  -----------------  -----------------  -----------------
           H         -1.701786633138     1.891632520633     1.435064673848     1.007825032070
           C         -1.547698633138     1.011461520633     0.818041673848    12.000000000000
           O         -0.303690633138     1.012581520633     0.189369673848    15.994914619560
           H         -2.290126633138     1.014944520633     0.031200673848     1.007825032070
           H         -1.703260633138     0.127112520633     1.428713673848     1.007825032070
           C          0.306068366862    -0.217024479367    -0.161052326152    12.000000000000
           C          1.619284366862     0.204974520633    -0.816331326152    12.000000000000
           C          0.591612366862    -1.066172479367     1.081767673848    12.000000000000
           C         -0.552553633138    -0.993790479367    -1.164306326152    12.000000000000
           H          2.218007366862     0.777969520633    -0.117303326152     1.007825032070
           H          1.421591366862     0.829059520633    -1.680513326152     1.007825032070
           H          2.191983366862    -0.659454479367    -1.136394326152     1.007825032070
           H          1.138292366862    -0.484416479367     1.816429673848     1.007825032070
           H          1.191006366862    -1.931056479367     0.816620673848     1.007825032070
           H         -0.318222633138    -1.432433479367     1.545024673848     1.007825032070
           H         -0.809296633138    -0.361407479367    -2.007648326152     1.007825032070
           H         -0.008217633138    -1.855323479367    -1.537125326152     1.007825032070
           H         -1.471907633138    -1.359226479367    -0.719472326152     1.007825032070

  Charge       = 0
  Multiplicity = 1
  Basis Set: 6-31G*
  Basis Set:

    Orbital Energies (a.u.)
    -----------------------

    Doubly Occupied:

       1A    -20.544375     2A    -11.282271     3A    -11.260456
       4A    -11.208920     5A    -11.208744     6A    -11.203321
       7A     -1.369141     8A     -1.072908     9A     -0.946194
      10A     -0.939943    11A     -0.911902    12A     -0.752295
      13A     -0.654657    14A     -0.644426    15A     -0.639589
      16A     -0.591814    17A     -0.574290    18A     -0.551003
      19A     -0.535961    20A     -0.524319    21A     -0.515029
      22A     -0.489663    23A     -0.486194    24A     -0.437622
      25A     -0.401134

  @DF-RHF Final Energy:  -271.17237879522560

   => Energetics <=

    Nuclear Repulsion Energy =            272.3890334396559751
    One-Electron Energy =                -907.6300925728660332
    Two-Electron Energy =                 364.0686803379845742
    DFT Exchange-Correlation Energy =       0.0000000000000000
    Empirical Dispersion Energy =           0.0000000000000000
    PCM Polarization Energy =               0.0000000000000000
    EFP Energy =                            0.0000000000000000
    Total Energy =                       -271.1723787952254270

  Mulliken Charges: (a.u.)
   Center  Symbol    Alpha    Beta     Spin     Total
       1     H     0.41470  0.41470  0.00000  0.17061
       2     C     3.07801  3.07801  0.00000 -0.15602
       3     O     4.32072  4.32072  0.00000 -0.64143
       4     H     0.42619  0.42619  0.00000  0.14762
       5     H     0.43111  0.43111  0.00000  0.13778
       6     C     2.84312  2.84312  0.00000  0.31376
       7     C     3.23291  3.23291  0.00000 -0.46581
       8     C     3.24678  3.24678  0.00000 -0.49357
       9     C     3.24671  3.24671  0.00000 -0.49342
      10     H     0.41394  0.41394  0.00000  0.17213
      11     H     0.41404  0.41404  0.00000  0.17192
      12     H     0.42521  0.42521  0.00000  0.14959
      13     H     0.41302  0.41302  0.00000  0.17395
      14     H     0.41965  0.41965  0.00000  0.16071
      15     H     0.42016  0.42016  0.00000  0.15968
      16     H     0.41332  0.41332  0.00000  0.17336
      17     H     0.41981  0.41981  0.00000  0.16039
      18     H     0.42062  0.42062  0.00000  0.15875

   Total alpha = 25.00000, Total beta = 25.00000, Total charge = -0.00000
