                              Psi4 1.0.54 Driver

  ==> Input File <==

--------------------------------------------------------------------------
set {
	reference rhf
	basis cc-pvtz
}

set_num_threads( 4 )
memory 2 gb

molecule MOL {
0 1

H	 -2.459487	 1.903854	 -2.129042
C	 -1.614795	 2.444775	 -2.577132
C	 -0.731871	 3.166167	 -1.595332
O	 -1.462590	 2.437202	 -3.749345
C	 -0.254027	 2.263947	 -0.453693
H	 0.099402	 3.601298	 -2.134759
H	 -1.325546	 3.979350	 -1.183521
C	 0.705859	 1.164230	 -0.902497
H	 0.231290	 2.883425	 0.292668
H	 -1.115634	 1.818678	 0.037797
C	 1.181757	 0.280428	 0.247371
H	 1.564879	 1.619634	 -1.388087
H	 0.228510	 0.544335	 -1.657013
C	 2.151032	 -0.811012	 -0.202643
H	 1.649765	 0.905868	 1.001121
H	 0.320453	 -0.181470	 0.724973
C	 3.580021	 -0.656538	 0.320835
H	 2.170545	 -0.847575	 -1.289412
H	 1.766632	 -1.772905	 0.124928
C	 4.327657	 0.562694	 -0.213579
H	 4.138806	 -1.549270	 0.057813
H	 3.561991	 -0.620783	 1.406976
H	 4.355973	 0.557257	 -1.298551
H	 3.867136	 1.491650	 0.100501
H	 5.351524	 0.571613	 0.142204

	symmetry c1
}
set optking {
	frozen_dihedral = ("
		8 11 14 18
	")
}

ee,wfn = optimize('scf', return_wfn=True)
oeprop( wfn, 'DIPOLE', 'QUADRUPOLE', 'MULLIKEN_CHARGES')
f=open( 'psi4out.xyz', 'w' )
f.write( "25  " )
f.write( str(ee) + "\n" )
f.write( MOL.save_string_xyz() )
f.close()
--------------------------------------------------------------------------

    Molecular point group: c1
  Charge       = 0
  Multiplicity = 1
  Basis Set: CC-PVTZ
  Basis Set:
  @DF-RHF Final Energy:  -387.25507057947561
    Total Energy =                       -387.2550705794755004
    Molecular point group: c1
  Basis Set: CC-PVTZ
  Basis Set:
  Basis Set: CC-PVTZ
  Basis Set:
  @DF-RHF Final Energy:  -387.25536114515626
    Total Energy =                       -387.2553611451562574
  Basis Set: CC-PVTZ
  Basis Set:
  Basis Set: CC-PVTZ
  Basis Set:
  @DF-RHF Final Energy:  -387.25541217082849
    Total Energy =                       -387.2554121708280945
  Basis Set: CC-PVTZ
  Basis Set:
  Basis Set: CC-PVTZ
  Basis Set:
  @DF-RHF Final Energy:  -387.25510415053333
    Total Energy =                       -387.2551041505332705
  Basis Set: CC-PVTZ
  Basis Set:
  Basis Set: CC-PVTZ
  Basis Set:
  @DF-RHF Final Energy:  -387.25542996339766
    Total Energy =                       -387.2554299633976598
  Basis Set: CC-PVTZ
  Basis Set:
  Charge       = 0
  Multiplicity = 1
  Basis Set: CC-PVTZ
  Basis Set:

    Orbital Energies (a.u.)
    -----------------------

    Doubly Occupied:

       1A    -20.551340     2A    -11.320948     3A    -11.233742
       4A    -11.232600     5A    -11.221718     6A    -11.217973
       7A    -11.216408     8A    -11.214839     9A    -11.209214
      10A     -1.406353    11A     -1.104517    12A     -1.070001
      13A     -1.012956    14A     -0.944370    15A     -0.876503
      16A     -0.820835    17A     -0.788726    18A     -0.782251
      19A     -0.667940    20A     -0.662527    21A     -0.632834
      22A     -0.626248    23A     -0.608485    24A     -0.594571
      25A     -0.570302    26A     -0.557011    27A     -0.533704
      28A     -0.525592    29A     -0.515234    30A     -0.497458
      31A     -0.488171    32A     -0.485308    33A     -0.463413
      34A     -0.453231    35A     -0.442702    36A     -0.411865

  @DF-RHF Final Energy:  -387.25543015498351

   => Energetics <=

    Nuclear Repulsion Energy =            445.7516293459095778
    One-Electron Energy =               -1408.0903412447346454
    Two-Electron Energy =                 575.0832817438416669
    DFT Exchange-Correlation Energy =       0.0000000000000000
    Empirical Dispersion Energy =           0.0000000000000000
    PCM Polarization Energy =               0.0000000000000000
    EFP Energy =                            0.0000000000000000
    Total Energy =                       -387.2554301549834008
    Molecular point group: c1
  Basis Set: CC-PVTZ
  Basis Set:

  -Total Gradient:
     Atom            X                  Y                   Z
    ------   -----------------  -----------------  -----------------
       1       -0.000068940237     0.000094115040     0.000040699418
       2        0.000136488461    -0.000310145263     0.000063247610
       3       -0.000057530334     0.000087117676    -0.000072076564
       4        0.000003270912     0.000134632602    -0.000014149694
       5        0.000014792748    -0.000075977444     0.000012856290
       6        0.000011048090     0.000010370605     0.000000593541
       7        0.000015552787    -0.000006984974     0.000006059077
       8       -0.000478955194    -0.000270799406    -0.000168749439
       9       -0.000013634746     0.000018452187     0.000000736694
      10       -0.000003121879     0.000000699973    -0.000000534333
      11        0.000619227460     0.000644412783     0.000094673469
      12       -0.000024631732     0.000000317506    -0.000023313398
      13        0.000005719872    -0.000006876485     0.000007680869
      14       -0.000829409874    -0.000870471207    -0.000078997959
      15        0.000052825564    -0.000022200214     0.000049756539
      16        0.000032796163     0.000014857930    -0.000007907923
      17        0.000023682378     0.000009008132     0.000076276621
      18        0.000522778082     0.000466078259    -0.000006389031
      19       -0.000014461363     0.000069298156     0.000000115237
      20        0.000051379088    -0.000014483691     0.000011777588
      21        0.000003873375     0.000016269717    -0.000016060955
      22        0.000022003591    -0.000016640597     0.000005491068
      23       -0.000022123677     0.000010376419     0.000016638194
      24       -0.000013608226     0.000006356334     0.000012068466
      25        0.000010978691     0.000012215958    -0.000010491392

  **** Optimization is complete! (in 6 steps) ****
    Final optimized geometry and variables:
    Molecular point group: c1

    Geometry (in Angstrom), charge = 0, multiplicity = 1:

    H           -3.349639597400     0.739401628839    -1.070623208108
    C           -2.504739247558     1.279442621555    -1.519450794797
    C           -1.606764331733     1.980341673980    -0.536561030712
    O           -2.364512106995     1.288618317379    -2.693160408379
    C           -1.125342199537     1.058662264026     0.587895669885
    H           -0.777243183858     2.416447235768    -1.077925218591
    H           -2.190083374665     2.792407189098    -0.108138628155
    C           -0.179673436193    -0.042409963002     0.114412343486
    H           -0.627545312667     1.663860837128     1.337884555627
    H           -1.985685790214     0.613897146114     1.082168938987
    C            0.295116134374    -0.949502927204     1.248230578472
    H            0.676959626277     0.410699448671    -0.376345709809
    H           -0.670357741999    -0.649907728690    -0.641591202945
    C            1.269340230079    -2.059420001109     0.800012664097
    H            0.758666347055    -0.342411707803     2.020295928357
    H           -0.576034934838    -1.400442659747     1.712859445078
    C            2.698524821025    -1.908591026594     1.326959667295
    H            1.302455299479    -2.097915177438    -0.285204825244
    H            0.889895051639    -3.022254594021     1.122721956432
    C            3.440633613858    -0.684363656372     0.797774215182
    H            3.260580213534    -2.798863769601     1.061744786469
    H            2.676935778378    -1.876270142133     2.413067795979
    H            3.506928446251    -0.707498887419    -0.284989907581
    H            2.948059519120     0.239734719541     1.078423769498
    H            4.450577370407    -0.645629538321     1.189457234026

  Mulliken Charges: (a.u.)
   Center  Symbol    Alpha    Beta     Spin     Total
       1     H     0.46420  0.46420  0.00000  0.07160
       2     C     2.90483  2.90483  0.00000  0.19034
       3     C     3.08896  3.08896  0.00000 -0.17792
       4     O     4.16614  4.16614  0.00000 -0.33227
       5     C     3.11776  3.11776  0.00000 -0.23552
       6     H     0.44282  0.44282  0.00000  0.11436
       7     H     0.44054  0.44054  0.00000  0.11891
       8     C     3.09080  3.09080  0.00000 -0.18160
       9     H     0.44279  0.44279  0.00000  0.11443
      10     H     0.44927  0.44927  0.00000  0.10147
      11     C     3.11022  3.11022  0.00000 -0.22044
      12     H     0.44726  0.44726  0.00000  0.10548
      13     H     0.44596  0.44596  0.00000  0.10808
      14     C     3.10165  3.10165  0.00000 -0.20330
      15     H     0.45000  0.45000  0.00000  0.10000
      16     H     0.44341  0.44341  0.00000  0.11318
      17     C     3.08621  3.08621  0.00000 -0.17242
      18     H     0.45256  0.45256  0.00000  0.09489
      19     H     0.44325  0.44325  0.00000  0.11350
      20     C     3.15628  3.15628  0.00000 -0.31256
      21     H     0.44863  0.44863  0.00000  0.10274
      22     H     0.45480  0.45480  0.00000  0.09040
      23     H     0.45244  0.45244  0.00000  0.09513
      24     H     0.45543  0.45543  0.00000  0.08914
      25     H     0.44380  0.44380  0.00000  0.11240

   Total alpha = 36.00000, Total beta = 36.00000, Total charge =  0.00000

*** Psi4 exiting successfully. Buy a developer a beer!
