  ==> Input File <==

--------------------------------------------------------------------------
set {
	reference rhf
	basis 6-31G*
}

set_num_threads( 4 )
memory 2 gb

molecule MOL {
0 1

H	 0.591160	 -4.632793	 -3.113807
O	 1.523634	 -4.514343	 -3.221206
C	 1.810940	 -3.149842	 -3.393389
C	 1.665927	 -2.338475	 -2.110665
H	 2.835598	 -3.106236	 -3.739580
H	 1.186322	 -2.725003	 -4.178337
C	 0.238577	 -2.295256	 -1.559601
H	 2.333910	 -2.755487	 -1.361488
H	 2.007235	 -1.324143	 -2.310680
C	 0.115918	 -1.429151	 -0.302766
H	 -0.088828	 -3.306882	 -1.336478
H	 -0.433940	 -1.909727	 -2.326040
C	 -1.309753	 -1.282496	 0.241564
H	 0.758466	 -1.835605	 0.476191
H	 0.502505	 -0.437192	 -0.526972
C	 -2.037799	 -0.007733	 -0.193645
H	 -1.890610	 -2.142323	 -0.085726
H	 -1.285946	 -1.330893	 1.329189
C	 -3.489788	 0.042957	 0.286558
H	 -2.017067	 0.064384	 -1.280144
H	 -1.513726	 0.868678	 0.179924
C	 -4.216917	 1.317354	 -0.141063
H	 -4.025645	 -0.823308	 -0.095450
H	 -3.513059	 -0.038752	 1.371301
H	 -4.239342	 1.411634	 -1.223113
H	 -5.243387	 1.322503	 0.212445
H	 -3.726170	 2.201406	 0.256408

	symmetry c1
}
set optking {
	frozen_dihedral = ("
		14 10 13 16
	")
}

ee = optimize('scf')
oeprop('DIPOLE', 'QUADRUPOLE', 'MULLIKEN_CHARGES')
f=open( 'psi4out.xyz', 'w' )
f.write( "27  " )
f.write( str(ee) + "\n" )
f.write( MOL.save_string_xyz() )
f.close()
--------------------------------------------------------------------------

    Molecular point group: c1
  Charge       = 0
  Multiplicity = 1
  Basis Set: 6-31G*
  Basis Set:
  @DF-RHF Final Energy:  -388.27904572629922
    Total Energy =                       -388.2790457262993868
    Molecular point group: c1
  Basis Set: 6-31G*
  Basis Set:
  Basis Set: 6-31G*
  Basis Set:
  @DF-RHF Final Energy:  -388.27942691439267
    Total Energy =                       -388.2794269143929569
  Basis Set: 6-31G*
  Basis Set:
  Basis Set: 6-31G*
  Basis Set:
  @DF-RHF Final Energy:  -388.27946557310690
    Total Energy =                       -388.2794655731066769
  Basis Set: 6-31G*
  Basis Set:
  Basis Set: 6-31G*
  Basis Set:
  @DF-RHF Final Energy:  -388.27949293119110
    Total Energy =                       -388.2794929311914984
  Basis Set: 6-31G*
  Basis Set:
  Basis Set: 6-31G*
  Basis Set:
  @DF-RHF Final Energy:  -388.27949896509710
    Total Energy =                       -388.2794989650971047
  Basis Set: 6-31G*
  Basis Set:
  Charge       = 0
  Multiplicity = 1
  Basis Set: 6-31G*
  Basis Set:

    Orbital Energies (a.u.)
    -----------------------

    Doubly Occupied:

       1A    -20.552249     2A    -11.267155     3A    -11.220777
       4A    -11.216805     5A    -11.216173     6A    -11.215438
       7A    -11.215278     8A    -11.214807     9A    -11.209697
      10A     -1.359058    11A     -1.094566    12A     -1.062257
      13A     -1.011194    14A     -0.949792    15A     -0.884755
      16A     -0.820802    17A     -0.796217    18A     -0.786963
      19A     -0.694074    20A     -0.648644    21A     -0.638890
      22A     -0.614913    23A     -0.603354    24A     -0.581330
      25A     -0.579898    26A     -0.554020    27A     -0.541156
      28A     -0.520217    29A     -0.507599    30A     -0.502732
      31A     -0.479716    32A     -0.475267    33A     -0.470112
      34A     -0.463710    35A     -0.451851    36A     -0.441069
      37A     -0.422289

  @DF-RHF Final Energy:  -388.27949897846696

   => Energetics <=

    Nuclear Repulsion Energy =            455.8578050071759549
    One-Electron Energy =               -1429.7049599966821916
    Two-Electron Energy =                 585.5676560110391620
    DFT Exchange-Correlation Energy =       0.0000000000000000
    Empirical Dispersion Energy =           0.0000000000000000
    PCM Polarization Energy =               0.0000000000000000
    EFP Energy =                            0.0000000000000000
    Total Energy =                       -388.2794989784670179
    Molecular point group: c1
  Basis Set: 6-31G*
  Basis Set:

  -Total Gradient:
     Atom            X                  Y                   Z
    ------   -----------------  -----------------  -----------------
       1       -0.000015978440    -0.000003802211     0.000011248779
       2       -0.000028179028     0.000004173862     0.000005061921
       3        0.000050118942    -0.000003352745     0.000027096063
       4       -0.000001345969     0.000024113529    -0.000019634927
       5        0.000004889245     0.000004095254     0.000000127374
       6       -0.000000777365    -0.000000007204     0.000007819893
       7        0.000000839033     0.000001359369     0.000034946328
       8        0.000006491558     0.000005526861    -0.000014499086
       9        0.000002241902     0.000001267535    -0.000010263516
      10       -0.000449459150    -0.003272945373    -0.000509014568
      11        0.000020602934     0.000003476171    -0.000019324279
      12       -0.000013578103     0.000016129808     0.000002246464
      13       -0.000996325872    -0.000824448263    -0.002461909654
      14        0.000626644168     0.002978680279     0.001037245870
      15        0.000033929510    -0.000031728557    -0.000053367026
      16        0.000815086370     0.001126484047     0.001957621575
      17       -0.000053647695     0.000010061893     0.000000400782
      18        0.000004490938     0.000016040633    -0.000004225106
      19       -0.000016645322    -0.000031302135    -0.000012995078
      20        0.000023096918    -0.000050999322     0.000014913502
      21       -0.000022088087     0.000018719911    -0.000008428518
      22        0.000018582775     0.000012202493     0.000023139590
      23       -0.000004004349    -0.000002135830    -0.000005161354
      24       -0.000007652409    -0.000006101872    -0.000006873111
      25       -0.000003226447    -0.000007705269     0.000002910049
      26        0.000005258297     0.000001315480     0.000008048540
      27        0.000000635640     0.000010881661    -0.000007130500

  **** Optimization is complete! (in 6 steps) ****
    Final optimized geometry and variables:
    Molecular point group: c1

    Geometry (in Angstrom), charge = 0, multiplicity = 1:

    H            1.202499932770    -3.063030500142    -1.903933033635
    O            2.133991019948    -2.946599020487    -2.021880446779
    C            2.421967041008    -1.583043455066    -2.199291507120
    C            2.283061037741    -0.767815990134    -0.918292521839
    H            3.445229927452    -1.541854705700    -2.549748786145
    H            1.794675099851    -1.159753438240    -2.982981657094
    C            0.858710237141    -0.721036328824    -0.361706954432
    H            2.953535007550    -1.183309473318    -0.170467231163
    H            2.624366286263     0.245696084301    -1.122377411767
    C            0.735638140373     0.130081332817     0.903697592336
    H            0.522625646106    -1.730697429532    -0.134898575263
    H            0.184209907631    -0.332491691934    -1.124599214221
    C           -0.704180850981     0.243986049933     1.440164253176
    H            1.390086151169    -0.266327890542     1.675652252965
    H            1.116395076744     1.128150406299     0.694232818293
    C           -1.427186472247     1.515847424131     0.989078058299
    H           -1.279191295874    -0.629622848479     1.139790684308
    H           -0.688080105697     0.229866977495     2.527274613045
    C           -2.874197812397     1.595618063785     1.477860407880
    H           -1.413005775571     1.580036836695    -0.098270789790
    H           -0.877129147453     2.382458095825     1.351122859278
    C           -3.581395733858     2.879984601260     1.046438819458
    H           -3.428036222792     0.736330903656     1.105547581272
    H           -2.891524764080     1.521688809242     2.563264905533
    H           -3.611879061363     2.966242913655    -0.036135773800
    H           -4.604370903571     2.907109946493     1.408897883461
    H           -3.070516137145     3.757582447750     1.432517593532

  Mulliken Charges: (a.u.)
   Center  Symbol    Alpha    Beta     Spin     Total
       1     H     0.27991  0.27991  0.00000  0.44017
       2     O     4.37091  4.37091  0.00000 -0.74183
       3     C     2.99729  2.99729  0.00000  0.00541
       4     C     3.16173  3.16173  0.00000 -0.32346
       5     H     0.41439  0.41439  0.00000  0.17122
       6     H     0.43211  0.43211  0.00000  0.13578
       7     C     3.16239  3.16239  0.00000 -0.32479
       8     H     0.41490  0.41490  0.00000  0.17019
       9     H     0.42397  0.42397  0.00000  0.15205
      10     C     3.15449  3.15449  0.00000 -0.30897
      11     H     0.42476  0.42476  0.00000  0.15048
      12     H     0.42442  0.42442  0.00000  0.15117
      13     C     3.15523  3.15523  0.00000 -0.31045
      14     H     0.41857  0.41857  0.00000  0.16286
      15     H     0.42177  0.42177  0.00000  0.15645
      16     C     3.15192  3.15192  0.00000 -0.30383
      17     H     0.42284  0.42284  0.00000  0.15432
      18     H     0.42040  0.42040  0.00000  0.15921
      19     C     3.15181  3.15181  0.00000 -0.30363
      20     H     0.42489  0.42489  0.00000  0.15021
      21     H     0.42306  0.42306  0.00000  0.15388
      22     C     3.23920  3.23920  0.00000 -0.47841
      23     H     0.42325  0.42325  0.00000  0.15350
      24     H     0.42283  0.42283  0.00000  0.15434
      25     H     0.42210  0.42210  0.00000  0.15580
      26     H     0.41918  0.41918  0.00000  0.16163
      27     H     0.42167  0.42167  0.00000  0.15665

   Total alpha = 37.00000, Total beta = 37.00000, Total charge = -0.00000
