  ==> Input File <==

--------------------------------------------------------------------------
set {
	reference rhf
	basis cc-pvtz
}

set_num_threads( 4 )
memory 2 gb

molecule MOL {
0 1

H	 -2.362939	 -1.309000	 -0.383250
C	 -1.359344	 -1.272457	 0.020748
C	 -0.684082	 0.000127	 -0.464918
H	 -0.825835	 -2.151141	 -0.318537
H	 -1.416276	 -1.292399	 1.099455
C	 -1.359089	 1.272668	 0.021259
N	 0.742439	 -0.000109	 0.007333
H	 -0.596914	 0.000345	 -1.538146
H	 -2.362696	 1.309620	 -0.382686
H	 -0.825392	 2.151374	 -0.317674
H	 -1.415983	 1.292181	 1.099973
O	 1.372168	 -0.988998	 -0.163499
O	 1.148466	 0.988674	 0.520889

	symmetry c1
}
set optking {
	frozen_dihedral = ("
		12 7 3 8
	")
}

ee = optimize('scf')
oeprop('DIPOLE', 'QUADRUPOLE', 'MULLIKEN_CHARGES')
f=open( 'psi4out.xyz', 'w' )
f.write( "13  " )
f.write( str(ee) + "\n" )
f.write( MOL.save_string_xyz() )
f.close()
--------------------------------------------------------------------------

    Molecular point group: c1
  Charge       = 0
  Multiplicity = 1
  Basis Set: CC-PVTZ
  Basis Set:
  @DF-RHF Final Energy:  -321.86165490971410
    Total Energy =                       -321.8616549097138204
    Molecular point group: c1
  Basis Set: CC-PVTZ
  Basis Set:
  Basis Set: CC-PVTZ
  Basis Set:
  @DF-RHF Final Energy:  -321.86149826418966
    Total Energy =                       -321.8614982641901179
  Basis Set: CC-PVTZ
  Basis Set:
  Basis Set: CC-PVTZ
  Basis Set:
  @DF-RHF Final Energy:  -321.85870583259612
    Total Energy =                       -321.8587058325960015
  Basis Set: CC-PVTZ
  Basis Set:
  Basis Set: CC-PVTZ
  Basis Set:
  @DF-RHF Final Energy:  -321.86236275339297
    Total Energy =                       -321.8623627533926310
  Basis Set: CC-PVTZ
  Basis Set:
  Basis Set: CC-PVTZ
  Basis Set:
  @DF-RHF Final Energy:  -321.86244772285824
    Total Energy =                       -321.8624477228580645
  Basis Set: CC-PVTZ
  Basis Set:
  Basis Set: CC-PVTZ
  Basis Set:
  @DF-RHF Final Energy:  -321.86253986689889
    Total Energy =                       -321.8625398668989988
  Basis Set: CC-PVTZ
  Basis Set:
  Basis Set: CC-PVTZ
  Basis Set:
  @DF-RHF Final Energy:  -321.86254353578283
    Total Energy =                       -321.8625435357828337
  Basis Set: CC-PVTZ
  Basis Set:
  Charge       = 0
  Multiplicity = 1
  Basis Set: CC-PVTZ
  Basis Set:

    Orbital Energies (a.u.)
    -----------------------

    Doubly Occupied:

       1A    -20.590995     2A    -20.586057     3A    -15.833849
       4A    -11.306671     5A    -11.240598     6A    -11.237269
       7A     -1.634466     8A     -1.418228     9A     -1.139994
      10A     -0.968298    11A     -0.958187    12A     -0.815045
      13A     -0.764062    14A     -0.730147    15A     -0.723458
      16A     -0.641071    17A     -0.594873    18A     -0.586982
      19A     -0.570325    20A     -0.523232    21A     -0.521422
      22A     -0.483771    23A     -0.472436    24A     -0.451868

  @DF-RHF Final Energy:  -321.86254408381103

   => Energetics <=

    Nuclear Repulsion Energy =            257.2690902081977811
    One-Electron Energy =                -948.6766608353017318
    Two-Electron Energy =                 369.5450265432929200
    DFT Exchange-Correlation Energy =       0.0000000000000000
    Empirical Dispersion Energy =           0.0000000000000000
    PCM Polarization Energy =               0.0000000000000000
    EFP Energy =                            0.0000000000000000
    Total Energy =                       -321.8625440838110308
    Molecular point group: c1
  Basis Set: CC-PVTZ
  Basis Set:

  -Total Gradient:
     Atom            X                  Y                   Z
    ------   -----------------  -----------------  -----------------
       1       -0.000011906482    -0.000008444578     0.000001559458
       2       -0.000022249656    -0.000009276144    -0.000006010815
       3       -0.000140507334    -0.001589196931     0.000396161619
       4       -0.000002123318     0.000004641801    -0.000000772104
       5        0.000001935718     0.000002274289    -0.000003858763
       6        0.000002651779    -0.000003712087    -0.000012785115
       7        0.000537705375     0.000741534407    -0.001496587291
       8        0.000012671459     0.001245534866     0.000010202887
       9        0.000000992023     0.000002902817     0.000001765220
      10       -0.000004835940    -0.000001625578     0.000001878898
      11        0.000000283116    -0.000001916964    -0.000001062838
      12       -0.000378927529    -0.000418948930     0.001100212250
      13        0.000004310791     0.000036233031     0.000009296593

  **** Optimization is complete! (in 8 steps) ****
    Final optimized geometry and variables:
    Molecular point group: c1

    Geometry (in Angstrom), charge = 0, multiplicity = 1:

    H           -2.387731265985    -1.262427360912    -0.361719099719
    C           -1.372707429095    -1.262507845156     0.013590148150
    C           -0.685972566342     0.015072939812    -0.444311277715
    H           -0.864212677159    -2.138412248913    -0.354952957521
    H           -1.412048052342    -1.309683967084     1.095253744577
    C           -1.391022642363     1.278135623235     0.011531807760
    N            0.753131569374    -0.001112376818     0.018393138430
    H           -0.585110839102     0.016933283900    -1.521560440669
    H           -2.396612665645     1.266289040163    -0.390171402589
    H           -0.889123656018     2.165682836215    -0.340504114906
    H           -1.452938101651     1.325325361981     1.090311960705
    O            1.359965694903    -1.003094871349    -0.166699626714
    O            1.198110259909     0.977021748487     0.514446614064

  Mulliken Charges: (a.u.)
   Center  Symbol    Alpha    Beta     Spin     Total
       1     H     0.45019  0.45019  0.00000  0.09962
       2     C     3.14424  3.14424  0.00000 -0.28847
       3     C     3.00663  3.00663  0.00000 -0.01325
       4     H     0.43053  0.43053  0.00000  0.13894
       5     H     0.44659  0.44659  0.00000  0.10682
       6     C     3.14237  3.14237  0.00000 -0.28473
       7     N     3.27534  3.27534  0.00000  0.44931
       8     H     0.43028  0.43028  0.00000  0.13943
       9     H     0.45046  0.45046  0.00000  0.09907
      10     H     0.43498  0.43498  0.00000  0.13004
      11     H     0.44404  0.44404  0.00000  0.11191
      12     O     4.17491  4.17491  0.00000 -0.34981
      13     O     4.16944  4.16944  0.00000 -0.33889

   Total alpha = 24.00000, Total beta = 24.00000, Total charge = -0.00000
