                              Psi4 1.0.54 Driver

  ==> Input File <==

--------------------------------------------------------------------------
set {
	reference rhf
	basis cc-pvtz
}

set_num_threads( 4 )
memory 2 gb

molecule MOL {
0 1

H	 -1.655618	 -1.660461	 -1.234580
N	 -0.950277	 -0.956851	 -1.289357
C	 -0.561396	 -0.500007	 0.035200
H	 -1.325024	 -0.205351	 -1.829864
C	 0.575129	 0.507849	 -0.048832
H	 -0.230032	 -1.364606	 0.600783
H	 -1.389092	 -0.059735	 0.593316
C	 1.951750	 -0.141983	 0.035101
H	 0.478254	 1.061643	 -0.975981
H	 0.467676	 1.231891	 0.755499
H	 2.101550	 -0.848142	 -0.774949
H	 2.738260	 0.600794	 -0.026526
H	 2.078939	 -0.679792	 0.968824

	symmetry c1
}
set optking {
	frozen_dihedral = ("
		6 3 5 9
	")
}

ee,wfn = optimize('scf', return_wfn=True)
oeprop( wfn, 'DIPOLE', 'QUADRUPOLE', 'MULLIKEN_CHARGES')
f=open( 'psi4out.xyz', 'w' )
f.write( "13  " )
f.write( str(ee) + "\n" )
f.write( MOL.save_string_xyz() )
f.close()
--------------------------------------------------------------------------

    Molecular point group: c1
  Charge       = 0
  Multiplicity = 1
  Basis Set: CC-PVTZ
  Basis Set:
  @DF-RHF Final Energy:  -173.34905690276318
    Total Energy =                       -173.3490569027630670
    Molecular point group: c1
  Basis Set: CC-PVTZ
  Basis Set:
  Basis Set: CC-PVTZ
  Basis Set:
  @DF-RHF Final Energy:  -173.34956909831638
    Total Energy =                       -173.3495690983161808
  Basis Set: CC-PVTZ
  Basis Set:
  Basis Set: CC-PVTZ
  Basis Set:
  @DF-RHF Final Energy:  -173.34967981092910
    Total Energy =                       -173.3496798109291035
  Basis Set: CC-PVTZ
  Basis Set:
  Basis Set: CC-PVTZ
  Basis Set:
  @DF-RHF Final Energy:  -173.34968368886203
    Total Energy =                       -173.3496836888621146
  Basis Set: CC-PVTZ
  Basis Set:
  Charge       = 0
  Multiplicity = 1
  Basis Set: CC-PVTZ
  Basis Set:

    Orbital Energies (a.u.)
    -----------------------

    Doubly Occupied:

       1A    -15.527199     2A    -11.238769     3A    -11.210359
       4A    -11.200239     5A     -1.178159     6A     -1.030904
       7A     -0.899196     8A     -0.796750     9A     -0.661359
      10A     -0.635209    11A     -0.598997    12A     -0.560452
      13A     -0.530065    14A     -0.488149    15A     -0.476596
      16A     -0.468489    17A     -0.383425

  @DF-RHF Final Energy:  -173.34968436304962

   => Energetics <=

    Nuclear Repulsion Energy =            133.2247181107915139
    One-Electron Energy =                -497.3801763233111615
    Two-Electron Energy =                 190.8057738494700004
    DFT Exchange-Correlation Energy =       0.0000000000000000
    Empirical Dispersion Energy =           0.0000000000000000
    PCM Polarization Energy =               0.0000000000000000
    EFP Energy =                            0.0000000000000000
    Total Energy =                       -173.3496843630496471
    Molecular point group: c1
  Basis Set: CC-PVTZ
  Basis Set:

  -Total Gradient:
     Atom            X                  Y                   Z
    ------   -----------------  -----------------  -----------------
       1       -0.000001156724     0.000007623631    -0.000028446285
       2       -0.000050802450    -0.000024936337    -0.000003462267
       3       -0.001231515744     0.001703609991     0.004198979355
       4        0.000001276414    -0.000012899861     0.000008232913
       5       -0.002778564905     0.003290053054     0.001623539293
       6        0.001477250543    -0.001902897024    -0.003761451273
       7        0.000020869543    -0.000006520323    -0.000019796080
       8        0.000028357620    -0.000015864176    -0.000006129422
       9        0.002529966991    -0.003033216076    -0.002025318731
      10       -0.000003823491    -0.000008528389    -0.000004327155
      11       -0.000008348327     0.000000578853     0.000014420750
      12        0.000005007387     0.000001235283     0.000006408927
      13        0.000011483144     0.000001761373    -0.000002650024

  **** Optimization is complete! (in 5 steps) ****
    Final optimized geometry and variables:
    Molecular point group: c1

    Geometry (in Angstrom), charge = 0, multiplicity = 1:

    H           -1.802059215254    -1.427190845748    -0.920801808128
    N           -1.142036898603    -0.679781236598    -0.958325925466
    C           -0.813998225013    -0.198456372122     0.378309317492
    H           -1.549272646124     0.046734577275    -1.509102860663
    C            0.338410570658     0.806998394968     0.315757685938
    H           -0.501301913602    -1.068250599122     0.945165441003
    H           -1.668868368352     0.241176349149     0.888826012431
    C            1.710053356222     0.136941259551     0.342607210669
    H            0.258541626668     1.364298560692    -0.612695302957
    H            0.259219422366     1.516099288937     1.132618355413
    H            1.792155749381    -0.592048275139    -0.454548184572
    H            2.505177784902     0.863418418864     0.217628570605
    H            1.875696620549    -0.375460597845     1.284723588449

  Mulliken Charges: (a.u.)
   Center  Symbol    Alpha    Beta     Spin     Total
       1     H     0.42863  0.42863  0.00000  0.14274
       2     N     3.69433  3.69433  0.00000 -0.38866
       3     C     3.02951  3.02951  0.00000 -0.05902
       4     H     0.43056  0.43056  0.00000  0.13888
       5     C     3.07678  3.07678  0.00000 -0.15356
       6     H     0.45946  0.45946  0.00000  0.08107
       7     H     0.46000  0.46000  0.00000  0.08000
       8     C     3.14969  3.14969  0.00000 -0.29938
       9     H     0.46037  0.46037  0.00000  0.07927
      10     H     0.45261  0.45261  0.00000  0.09478
      11     H     0.44811  0.44811  0.00000  0.10378
      12     H     0.45189  0.45189  0.00000  0.09621
      13     H     0.45805  0.45805  0.00000  0.08389

   Total alpha = 17.00000, Total beta = 17.00000, Total charge =  0.00000

*** Psi4 exiting successfully. Buy a developer a beer!
