  ==> Input File <==

--------------------------------------------------------------------------
set {
	reference rhf
	basis cc-pvtz
}

set_num_threads( 4 )
memory 2 gb

molecule MOL {
0 1

H	 2.640531	 1.234427	 -1.287119
N	 1.830882	 0.651658	 -1.308043
C	 1.263552	 0.494993	 0.021953
H	 2.112589	 -0.230669	 -1.681510
C	 -0.016533	 -0.325589	 -0.026925
H	 1.039267	 1.484846	 0.405206
H	 1.957103	 0.035959	 0.727828
C	 -1.280353	 0.525521	 0.047747
H	 -0.016686	 -0.912532	 -0.939714
H	 -0.014099	 -1.037598	 0.796369
C	 -2.560681	 -0.301323	 -0.007747
H	 -1.279957	 1.241025	 -0.770189
H	 -1.270445	 1.110526	 0.963468
H	 -2.617064	 -0.872870	 -0.928010
H	 -3.439525	 0.331102	 0.043462
H	 -2.609427	 -1.002736	 0.818585

	symmetry c1
}
set optking {
	frozen_dihedral = ("
		6 3 5 9
	")
}

ee = optimize('scf')
oeprop('DIPOLE', 'QUADRUPOLE', 'MULLIKEN_CHARGES')
f=open( 'psi4out.xyz', 'w' )
f.write( "16  " )
f.write( str(ee) + "\n" )
f.write( MOL.save_string_xyz() )
f.close()
--------------------------------------------------------------------------

    Molecular point group: c1
  Charge       = 0
  Multiplicity = 1
  Basis Set: CC-PVTZ
  Basis Set:
  @DF-RHF Final Energy:  -212.39555595836916
    Total Energy =                       -212.3955559583694139
    Molecular point group: c1
  Basis Set: CC-PVTZ
  Basis Set:
  Basis Set: CC-PVTZ
  Basis Set:
  @DF-RHF Final Energy:  -212.39606116516492
    Total Energy =                       -212.3960611651648378
  Basis Set: CC-PVTZ
  Basis Set:
  Basis Set: CC-PVTZ
  Basis Set:
  @DF-RHF Final Energy:  -212.39617042975897
    Total Energy =                       -212.3961704297591950
  Basis Set: CC-PVTZ
  Basis Set:
  Basis Set: CC-PVTZ
  Basis Set:
  @DF-RHF Final Energy:  -212.39617380850700
    Total Energy =                       -212.3961738085068873
  Basis Set: CC-PVTZ
  Basis Set:
  Charge       = 0
  Multiplicity = 1
  Basis Set: CC-PVTZ
  Basis Set:

    Orbital Energies (a.u.)
    -----------------------

    Doubly Occupied:

       1A    -15.527036     2A    -11.238473     3A    -11.208256
       4A    -11.207625     5A    -11.202669     6A     -1.177673
       7A     -1.056417     8A     -0.956994     9A     -0.845047
      10A     -0.789401    11A     -0.661576    12A     -0.641757
      13A     -0.599043    14A     -0.575721    15A     -0.567879
      16A     -0.515326    17A     -0.503846    18A     -0.468402
      19A     -0.462739    20A     -0.461950    21A     -0.382262

  @DF-RHF Final Energy:  -212.39617413544752

   => Energetics <=

    Nuclear Repulsion Energy =            187.8531679144120687
    One-Electron Energy =                -658.3984914339821444
    Two-Electron Energy =                 258.1491493841224383
    DFT Exchange-Correlation Energy =       0.0000000000000000
    Empirical Dispersion Energy =           0.0000000000000000
    PCM Polarization Energy =               0.0000000000000000
    EFP Energy =                            0.0000000000000000
    Total Energy =                       -212.3961741354476089
    Molecular point group: c1
  Basis Set: CC-PVTZ
  Basis Set:

  -Total Gradient:
     Atom            X                  Y                   Z
    ------   -----------------  -----------------  -----------------
       1        0.000010350167     0.000002752807    -0.000032185246
       2        0.000044218621     0.000005894100     0.000025647101
       3        0.000509152475    -0.000892953436     0.004265641206
       4       -0.000000937970     0.000010738030     0.000012818778
       5        0.002207215293    -0.003458564213     0.001440610180
       6       -0.000815984863     0.001267032902    -0.003824138034
       7       -0.000021594924    -0.000016910780    -0.000027419853
       8        0.000018600268     0.000028011496     0.000049382286
       9       -0.001921812566     0.003031578433    -0.001915455912
      10        0.000009615096     0.000030378517     0.000012105993
      11       -0.000016389373    -0.000001018750    -0.000016475844
      12        0.000014869994     0.000002439252     0.000014949681
      13       -0.000018295043    -0.000004257646     0.000003636762
      14       -0.000005322504    -0.000009745223     0.000003602912
      15       -0.000015144286    -0.000005895500    -0.000007477887
      16        0.000001459611     0.000010520010    -0.000005242123

  **** Optimization is complete! (in 5 steps) ****
    Final optimized geometry and variables:
    Molecular point group: c1

    Geometry (in Angstrom), charge = 0, multiplicity = 1:

    H            2.681572551976     1.079148449313    -1.079161915481
    N            1.904632523244     0.453015043932    -1.058505092711
    C            1.410039715934     0.274382030078     0.301814292417
    H            2.215772120133    -0.415219421090    -1.441309775225
    C            0.116464146674    -0.550044231893     0.301129455438
    H            1.203622109798     1.268725598056     0.680625109876
    H            2.147320810575    -0.181384693970     0.959828777901
    C           -1.143497855593     0.314119414221     0.326784877849
    H            0.088650659320    -1.145895108959    -0.606068853106
    H            0.103372189535    -1.234459391058     1.143351963031
    C           -2.429735334727    -0.497559017714     0.221947654612
    H           -1.094175249684     1.026255279860    -0.491003601721
    H           -1.159513067712     0.896788468420     1.244095003338
    H           -2.462935143085    -1.059313515955    -0.705692103685
    H           -3.303030187812     0.144119636560     0.250497518372
    H           -2.514232736504    -1.206668454210     1.039266226847

  Mulliken Charges: (a.u.)
   Center  Symbol    Alpha    Beta     Spin     Total
       1     H     0.42879  0.42879  0.00000  0.14242
       2     N     3.69328  3.69328  0.00000 -0.38655
       3     C     3.03525  3.03525  0.00000 -0.07049
       4     H     0.43057  0.43057  0.00000  0.13885
       5     C     3.08138  3.08138  0.00000 -0.16277
       6     H     0.45847  0.45847  0.00000  0.08306
       7     H     0.45935  0.45935  0.00000  0.08131
       8     C     3.08395  3.08395  0.00000 -0.16791
       9     H     0.45937  0.45937  0.00000  0.08127
      10     H     0.45164  0.45164  0.00000  0.09672
      11     C     3.15106  3.15106  0.00000 -0.30211
      12     H     0.44934  0.44934  0.00000  0.10133
      13     H     0.45694  0.45694  0.00000  0.08611
      14     H     0.45472  0.45472  0.00000  0.09057
      15     H     0.44910  0.44910  0.00000  0.10180
      16     H     0.45680  0.45680  0.00000  0.08640

   Total alpha = 21.00000, Total beta = 21.00000, Total charge = -0.00000
