                              Psi4 1.0.54 Driver

  ==> Input File <==

--------------------------------------------------------------------------
set {
	reference rhf
	basis cc-pvtz
}

set_num_threads( 4 )
memory 2 gb

molecule MOL {
0 1

H	 -1.835082	 1.385983	 0.000069
C	 -1.300516	 0.441153	 -0.000028
O	 -0.006604	 0.654344	 -0.000106
O	 -1.828920	 -0.612308	 0.000113
C	 0.469420	 1.839791	 -0.630930
C	 1.973909	 1.858889	 -0.501127
H	 0.016587	 2.696234	 -0.151967
H	 0.158144	 1.833829	 -1.665839
H	 2.271040	 1.860748	 0.539873
H	 2.368868	 2.750951	 -0.972387
H	 2.413312	 0.993989	 -0.981588

	symmetry c1
}
set optking {
	frozen_dihedral = ("
		5 3 2 4
	")
}

ee,wfn = optimize('scf', return_wfn=True)
oeprop( wfn, 'DIPOLE', 'QUADRUPOLE', 'MULLIKEN_CHARGES')
f=open( 'psi4out.xyz', 'w' )
f.write( "11  " )
f.write( str(ee) + "\n" )
f.write( MOL.save_string_xyz() )
f.close()
--------------------------------------------------------------------------

    Molecular point group: c1
  Charge       = 0
  Multiplicity = 1
  Basis Set: CC-PVTZ
  Basis Set:
  @DF-RHF Final Energy:  -266.92017924893128
    Total Energy =                       -266.9201792489313334
    Molecular point group: c1
  Basis Set: CC-PVTZ
  Basis Set:
  Basis Set: CC-PVTZ
  Basis Set:
  @DF-RHF Final Energy:  -266.92108308348395
    Total Energy =                       -266.9210830834840635
  Basis Set: CC-PVTZ
  Basis Set:
  Basis Set: CC-PVTZ
  Basis Set:
  @DF-RHF Final Energy:  -266.92108204275621
    Total Energy =                       -266.9210820427560975
  Basis Set: CC-PVTZ
  Basis Set:
  Basis Set: CC-PVTZ
  Basis Set:
  @DF-RHF Final Energy:  -266.92144229693480
    Total Energy =                       -266.9214422969348561
  Basis Set: CC-PVTZ
  Basis Set:
  Basis Set: CC-PVTZ
  Basis Set:
  @DF-RHF Final Energy:  -266.92146022217736
    Total Energy =                       -266.9214602221773021
  Basis Set: CC-PVTZ
  Basis Set:
  Basis Set: CC-PVTZ
  Basis Set:
  @DF-RHF Final Energy:  -266.92146349499410
    Total Energy =                       -266.9214634949939864
  Basis Set: CC-PVTZ
  Basis Set:
  Charge       = 0
  Multiplicity = 1
  Basis Set: CC-PVTZ
  Basis Set:

    Orbital Energies (a.u.)
    -----------------------

    Doubly Occupied:

       1A    -20.602119     2A    -20.547595     3A    -11.372151
       4A    -11.304319     5A    -11.231498     6A     -1.475581
       7A     -1.384123     8A     -1.055606     9A     -0.889977
      10A     -0.846376    11A     -0.742150    12A     -0.695249
      13A     -0.667211    14A     -0.617658    15A     -0.572154
      16A     -0.558322    17A     -0.537823    18A     -0.517548
      19A     -0.463296    20A     -0.453797

  @DF-RHF Final Energy:  -266.92146377826919

   => Energetics <=

    Nuclear Repulsion Energy =            176.6957162616785979
    One-Electron Energy =                -714.1652569234465773
    Two-Electron Energy =                 270.5480768834985952
    DFT Exchange-Correlation Energy =       0.0000000000000000
    Empirical Dispersion Energy =           0.0000000000000000
    PCM Polarization Energy =               0.0000000000000000
    EFP Energy =                            0.0000000000000000
    Total Energy =                       -266.9214637782693558
    Molecular point group: c1
  Basis Set: CC-PVTZ
  Basis Set:

  -Total Gradient:
     Atom            X                  Y                   Z
    ------   -----------------  -----------------  -----------------
       1        0.000027620762    -0.000056484680    -0.000010643529
       2        0.000671469516    -0.001716462898     0.005104929767
       3        0.000234563938     0.002335550442     0.002857618226
       4       -0.000587656928     0.000776704617    -0.004548151437
       5       -0.000316507283    -0.001317857061    -0.003436608998
       6       -0.000030469170    -0.000033025916     0.000022621042
       7        0.000008122384    -0.000012994950     0.000013125727
       8        0.000018157267     0.000023443787    -0.000002237206
       9        0.000000797835    -0.000000228917    -0.000003249067
      10       -0.000020527458    -0.000002998402     0.000000067406
      11       -0.000005570866     0.000004353974     0.000002528069

  **** Optimization is complete! (in 7 steps) ****
    Final optimized geometry and variables:
    Molecular point group: c1

    Geometry (in Angstrom), charge = 0, multiplicity = 1:

    H           -1.670517786380     0.578184325611     0.481241776905
    C           -1.165216858943    -0.367565430921     0.279238915385
    O            0.140047418306    -0.244994735560     0.113280407487
    O           -1.733936348630    -1.390171983194     0.210857616612
    C            0.632170639794     0.972343019244    -0.416867306492
    C            2.123629565668     1.026835017051    -0.184161020021
    H            0.136850102851     1.808634991838     0.065851366008
    H            0.405375990865     1.009082026238    -1.475594147381
    H            2.345865464739     0.997906097460     0.874713692183
    H            2.527425044798     1.942807039312    -0.598564273636
    H            2.612371749926     0.187336187070    -0.660462687169

  Mulliken Charges: (a.u.)
   Center  Symbol    Alpha    Beta     Spin     Total
       1     H     0.47604  0.47604  0.00000  0.04792
       2     C     2.84362  2.84362  0.00000  0.31276
       3     O     4.12977  4.12977  0.00000 -0.25955
       4     O     4.17216  4.17216  0.00000 -0.34433
       5     C     2.97682  2.97682  0.00000  0.04636
       6     C     3.13254  3.13254  0.00000 -0.26508
       7     H     0.46319  0.46319  0.00000  0.07362
       8     H     0.45651  0.45651  0.00000  0.08698
       9     H     0.44890  0.44890  0.00000  0.10219
      10     H     0.45543  0.45543  0.00000  0.08914
      11     H     0.44501  0.44501  0.00000  0.10998

   Total alpha = 20.00000, Total beta = 20.00000, Total charge = -0.00000

*** Psi4 exiting successfully. Buy a developer a beer!
