  ==> Input File <==

--------------------------------------------------------------------------
set {
	reference rhf
	basis 6-31G*
}

set_num_threads( 1 )
memory 2 gb

molecule MOL {
0 1

O	 3.225979	 0.970355	 -0.599647
C	 2.701189	 0.057885	 -0.047330
C	 1.245376	 -0.013843	 0.345420
O	 3.347903	 -1.046386	 0.304773
C	 0.429845	 -0.950761	 -0.542956
H	 1.211390	 -0.310284	 1.388568
H	 0.851400	 0.998746	 0.311605
C	 -1.069045	 -0.954536	 -0.223880
H	 0.826025	 -1.958405	 -0.460412
H	 0.572044	 -0.657190	 -1.577373
C	 -1.435294	 -1.526949	 1.148459
H	 -1.574950	 -1.537792	 -0.989775
H	 -1.460354	 0.058221	 -0.308805
C	 -2.946265	 -1.610452	 1.374279
H	 -1.001350	 -2.520638	 1.248924
H	 -0.995513	 -0.920407	 1.936920
C	 -3.323989	 -2.176154	 2.744475
H	 -3.392739	 -2.227360	 0.596256
H	 -3.382283	 -0.618846	 1.263355
C	 -4.834628	 -2.259793	 2.960513
H	 -2.888247	 -3.166620	 2.857385
H	 -2.882227	 -1.558327	 3.523524
H	 -5.070533	 -2.664253	 3.939986
H	 -5.302092	 -2.899537	 2.217276
H	 -5.296000	 -1.278905	 2.887916
C	 4.728119	 -1.109107	 -0.004993
H	 4.882018	 -1.033965	 -1.071845
H	 5.068212	 -2.067527	 0.355250
H	 5.265056	 -0.311663	 0.488280

	symmetry c1
}
set optking {
	frozen_dihedral = ("
		21 17 14 11,
		17 14 11 15,
		15 11 8 5,
		6 3 5 9,
		11 8 5 9,
		2 4 26 27,
		1 2 4 26
	")
}

ee = energy('scf')
oeprop('DIPOLE', 'QUADRUPOLE', 'MULLIKEN_CHARGES')
f=open( 'psi4out.xyz', 'w' )
f.write( "29  " )
f.write( str(ee) + "\n" )
f.write( MOL.save_string_xyz() )
f.close()
--------------------------------------------------------------------------

    Molecular point group: c1

    Geometry (in Angstrom), charge = 0, multiplicity = 1:

       Center              X                  Y                   Z               Mass
    ------------   -----------------  -----------------  -----------------  -----------------
           O          2.995737641934     1.935433138261    -1.276833712385    15.994914619560
           C          2.470947641934     1.022963138261    -0.724516712385    12.000000000000
           C          1.015134641934     0.951235138261    -0.331766712385    12.000000000000
           O          3.117661641934    -0.081307861739    -0.372413712385    15.994914619560
           C          0.199603641934     0.014317138261    -1.220142712385    12.000000000000
           H          0.981148641934     0.654794138261     0.711381287615     1.007825032070
           H          0.621158641934     1.963824138261    -0.365581712385     1.007825032070
           C         -1.299286358066     0.010542138261    -0.901066712385    12.000000000000
           H          0.595783641934    -0.993326861739    -1.137598712385     1.007825032070
           H          0.341802641934     0.307888138261    -2.254559712385     1.007825032070
           C         -1.665535358066    -0.561870861739     0.471272287615    12.000000000000
           H         -1.805191358066    -0.572713861739    -1.666961712385     1.007825032070
           H         -1.690595358066     1.023299138261    -0.985991712385     1.007825032070
           C         -3.176506358066    -0.645373861739     0.697092287615    12.000000000000
           H         -1.231591358066    -1.555559861739     0.571737287615     1.007825032070
           H         -1.225754358066     0.044671138261     1.259733287615     1.007825032070
           C         -3.554230358066    -1.211075861739     2.067288287615    12.000000000000
           H         -3.622980358066    -1.262281861739    -0.080930712385     1.007825032070
           H         -3.612524358066     0.346232138261     0.586168287615     1.007825032070
           C         -5.064869358066    -1.294714861739     2.283326287615    12.000000000000
           H         -3.118488358066    -2.201541861739     2.180198287615     1.007825032070
           H         -3.112468358066    -0.593248861739     2.846337287615     1.007825032070
           H         -5.300774358066    -1.699174861739     3.262799287615     1.007825032070
           H         -5.532333358066    -1.934458861739     1.540089287615     1.007825032070
           H         -5.526241358066    -0.313826861739     2.210729287615     1.007825032070
           C          4.497877641934    -0.144028861739    -0.682179712385    12.000000000000
           H          4.651776641934    -0.068886861739    -1.749031712385     1.007825032070
           H          4.837970641934    -1.102448861739    -0.321936712385     1.007825032070
           H          5.034814641934     0.653415138261    -0.188906712385     1.007825032070

  Charge       = 0
  Multiplicity = 1
  Basis Set: 6-31G*
  Basis Set:

    Orbital Energies (a.u.)
    -----------------------

    Doubly Occupied:

       1A    -20.603568     2A    -20.543562     3A    -11.370501
       4A    -11.280311     5A    -11.232781     6A    -11.228994
       7A    -11.222092     8A    -11.218300     9A    -11.217203
      10A    -11.216218    11A    -11.210070    12A     -1.468342
      13A     -1.361044    14A     -1.101793    15A     -1.069329
      16A     -1.019974    17A     -0.975396    18A     -0.930830
      19A     -0.865431    20A     -0.800882    21A     -0.791659
      22A     -0.772632    23A     -0.697133    24A     -0.678603
      25A     -0.672506    26A     -0.652650    27A     -0.627066
      28A     -0.607380    29A     -0.590543    30A     -0.577532
      31A     -0.570751    32A     -0.551949    33A     -0.537391
      34A     -0.532256    35A     -0.517807    36A     -0.516625
      37A     -0.500729    38A     -0.480284    39A     -0.473471
      40A     -0.464605    41A     -0.461478    42A     -0.453639
      43A     -0.447690    44A     -0.427317

  @DF-RHF Final Energy:  -501.04242565319669

   => Energetics <=

    Nuclear Repulsion Energy =            612.8930583906615084
    One-Electron Energy =               -1896.7896370051437316
    Two-Electron Energy =                 782.8541529612859904
    DFT Exchange-Correlation Energy =       0.0000000000000000
    Empirical Dispersion Energy =           0.0000000000000000
    PCM Polarization Energy =               0.0000000000000000
    EFP Energy =                            0.0000000000000000
    Total Energy =                       -501.0424256531962328

  Mulliken Charges: (a.u.)
   Center  Symbol    Alpha    Beta     Spin     Total
       1     O     4.28474  4.28474  0.00000 -0.56948
       2     C     2.61740  2.61740  0.00000  0.76521
       3     C     3.19643  3.19643  0.00000 -0.39286
       4     O     4.30203  4.30203  0.00000 -0.60406
       5     C     3.16512  3.16512  0.00000 -0.33023
       6     H     0.40307  0.40307  0.00000  0.19387
       7     H     0.40117  0.40117  0.00000  0.19766
       8     C     3.15537  3.15537  0.00000 -0.31073
       9     H     0.41016  0.41016  0.00000  0.17969
      10     H     0.41068  0.41068  0.00000  0.17863
      11     C     3.15490  3.15490  0.00000 -0.30981
      12     H     0.41819  0.41819  0.00000  0.16362
      13     H     0.42054  0.42054  0.00000  0.15892
      14     C     3.15071  3.15071  0.00000 -0.30142
      15     H     0.42219  0.42219  0.00000  0.15562
      16     H     0.42228  0.42228  0.00000  0.15544
      17     C     3.15158  3.15158  0.00000 -0.30317
      18     H     0.42348  0.42348  0.00000  0.15303
      19     H     0.42335  0.42335  0.00000  0.15330
      20     C     3.23946  3.23946  0.00000 -0.47892
      21     H     0.42278  0.42278  0.00000  0.15444
      22     H     0.42299  0.42299  0.00000  0.15401
      23     H     0.41898  0.41898  0.00000  0.16204
      24     H     0.42160  0.42160  0.00000  0.15680
      25     H     0.42152  0.42152  0.00000  0.15695
      26     C     3.09239  3.09239  0.00000 -0.18477
      27     H     0.40911  0.40911  0.00000  0.18178
      28     H     0.40892  0.40892  0.00000  0.18215
      29     H     0.40886  0.40886  0.00000  0.18229

   Total alpha = 44.00000, Total beta = 44.00000, Total charge =  0.00000
