  ==> Input File <==

--------------------------------------------------------------------------
set {
	reference rhf
	basis 6-31G*
}

set_num_threads( 4 )
memory 2 gb

molecule MOL {
0 1

H	 -1.070890	 -1.366565	 0.180696
O	 -1.422729	 -0.573567	 -0.196946
C	 -0.731407	 0.539437	 0.309156
C	 0.680193	 0.672443	 -0.251532
H	 -1.319765	 1.404033	 0.030086
H	 -0.700012	 0.506517	 1.397677
C	 1.650088	 1.384310	 0.692000
H	 1.056089	 -0.320307	 -0.481305
H	 0.623425	 1.216931	 -1.191666
H	 1.786477	 0.827750	 1.614407
H	 2.628504	 1.492678	 0.236010
H	 1.294245	 2.379519	 0.947337

	symmetry c1
}
set optking {
	frozen_dihedral = ("
		8 4 3 2
	")
}

ee = optimize('scf')
oeprop('DIPOLE', 'QUADRUPOLE', 'MULLIKEN_CHARGES')
f=open( 'psi4out.xyz', 'w' )
f.write( "12  " )
f.write( str(ee) + "\n" )
f.write( MOL.save_string_xyz() )
f.close()
--------------------------------------------------------------------------

    Molecular point group: c1
  Charge       = 0
  Multiplicity = 1
  Basis Set: 6-31G*
  Basis Set:
  @DF-RHF Final Energy:  -193.10673122653054
    Total Energy =                       -193.1067312265305418
    Molecular point group: c1
  Basis Set: 6-31G*
  Basis Set:
  Basis Set: 6-31G*
  Basis Set:
  @DF-RHF Final Energy:  -193.10715691668571
    Total Energy =                       -193.1071569166857671
  Basis Set: 6-31G*
  Basis Set:
  Basis Set: 6-31G*
  Basis Set:
  @DF-RHF Final Energy:  -193.10720136142888
    Total Energy =                       -193.1072013614288494
  Basis Set: 6-31G*
  Basis Set:
  Basis Set: 6-31G*
  Basis Set:
  @DF-RHF Final Energy:  -193.10720420705542
    Total Energy =                       -193.1072042070553607
  Basis Set: 6-31G*
  Basis Set:
  Charge       = 0
  Multiplicity = 1
  Basis Set: 6-31G*
  Basis Set:

    Orbital Energies (a.u.)
    -----------------------

    Doubly Occupied:

       1A    -20.552493     2A    -11.268140     3A    -11.219992
       4A    -11.217422     5A     -1.359870     6A     -1.052517
       7A     -0.919057     8A     -0.819659     9A     -0.692540
      10A     -0.635942    11A     -0.597267    12A     -0.578211
      13A     -0.557140    14A     -0.507269    15A     -0.493090
      16A     -0.465653    17A     -0.428547

  @DF-RHF Final Energy:  -193.10720437110692

   => Energetics <=

    Nuclear Repulsion Energy =            130.8404536308960644
    One-Electron Energy =                -521.1656984833234674
    Two-Electron Energy =                 197.2180404813204859
    DFT Exchange-Correlation Energy =       0.0000000000000000
    Empirical Dispersion Energy =           0.0000000000000000
    PCM Polarization Energy =               0.0000000000000000
    EFP Energy =                            0.0000000000000000
    Total Energy =                       -193.1072043711069455
    Molecular point group: c1
  Basis Set: 6-31G*
  Basis Set:

  -Total Gradient:
     Atom            X                  Y                   Z
    ------   -----------------  -----------------  -----------------
       1       -0.000000523347    -0.000028819061    -0.000002448071
       2        0.001378181222    -0.002228048468     0.003040026852
       3       -0.002241257216     0.003203345701    -0.005159384972
       4        0.002784850439    -0.001268997967     0.006812276635
       5       -0.000003966324     0.000000048907    -0.000020930791
       6       -0.000018744737    -0.000045057217     0.000004918116
       7        0.000005397716    -0.000074579058    -0.000029667175
       8       -0.001844867624     0.000378926629    -0.004620859025
       9       -0.000029548595     0.000039053559    -0.000015901893
      10       -0.000007956813     0.000013434178    -0.000017032647
      11       -0.000005248114    -0.000012599213     0.000031221365
      12       -0.000016316608     0.000023292012    -0.000022218393

  **** Optimization is complete! (in 5 steps) ****
    Final optimized geometry and variables:
    Molecular point group: c1

    Geometry (in Angstrom), charge = 0, multiplicity = 1:

    H           -1.025121573520    -1.825530783786    -0.058965369650
    O           -1.453125517285    -1.026250076692    -0.331557504941
    C           -0.742459231515     0.072692993915     0.175120158234
    C            0.676619001068     0.183388362072    -0.392542000918
    H           -1.324331522976     0.949994637902    -0.074368798733
    H           -0.701295451057     0.015646508170     1.262777274176
    C            1.642313340905     0.915571745693     0.535636268990
    H            1.039461472644    -0.814845301578    -0.627866544636
    H            0.633235760184     0.693888377869    -1.351314399397
    H            1.760403075382     0.388656304317     1.478189701579
    H            2.623741876617     1.012007871466     0.083609691968
    H            1.285267578582     1.916843075642     0.761071994745

  Mulliken Charges: (a.u.)
   Center  Symbol    Alpha    Beta     Spin     Total
       1     H     0.28327  0.28327  0.00000  0.43345
       2     O     4.37039  4.37039  0.00000 -0.74077
       3     C     2.99137  2.99137  0.00000  0.01726
       4     C     3.16777  3.16777  0.00000 -0.33553
       5     H     0.41444  0.41444  0.00000  0.17111
       6     H     0.43166  0.43166  0.00000  0.13667
       7     C     3.24654  3.24654  0.00000 -0.49307
       8     H     0.42352  0.42352  0.00000  0.15297
       9     H     0.41502  0.41502  0.00000  0.16996
      10     H     0.42082  0.42082  0.00000  0.15836
      11     H     0.41587  0.41587  0.00000  0.16825
      12     H     0.41932  0.41932  0.00000  0.16136

   Total alpha = 17.00000, Total beta = 17.00000, Total charge = -0.00000
