  ==> Input File <==

--------------------------------------------------------------------------
set {
	reference rhf
	basis 6-31G*
}

set_num_threads( 4 )
memory 2 gb

molecule MOL {
0 1

O	 0.815846	 -1.410927	 2.089761
C	 0.141842	 -1.314254	 1.116237
C	 -1.265131	 -1.828839	 0.981344
O	 0.550821	 -0.724572	 0.000672
H	 -1.933576	 -1.009155	 0.744734
H	 -1.568411	 -2.299537	 1.904576
H	 -1.317492	 -2.541118	 0.166177
C	 1.863949	 -0.193559	 -0.000319
H	 2.028859	 0.409284	 -0.881648
H	 2.526261	 -1.045082	 -0.000003
H	 2.029520	 0.410555	 0.880008

	symmetry c1
}
set optking {
	frozen_dihedral = ("
		2 4 8 9
	")
}

ee = optimize('scf')
oeprop('DIPOLE', 'QUADRUPOLE', 'MULLIKEN_CHARGES')
f=open( 'psi4out.xyz', 'w' )
f.write( "11  " )
f.write( str(ee) + "\n" )
f.write( MOL.save_string_xyz() )
f.close()
--------------------------------------------------------------------------

    Molecular point group: c1
  Charge       = 0
  Multiplicity = 1
  Basis Set: 6-31G*
  Basis Set:
  @DF-RHF Final Energy:  -266.83470889208434
    Total Energy =                       -266.8347088920841657
    Molecular point group: c1
  Basis Set: 6-31G*
  Basis Set:
  Basis Set: 6-31G*
  Basis Set:
  @DF-RHF Final Energy:  -266.83590506695305
    Total Energy =                       -266.8359050669529324
  Basis Set: 6-31G*
  Basis Set:
  Basis Set: 6-31G*
  Basis Set:
  @DF-RHF Final Energy:  -266.83523885768346
    Total Energy =                       -266.8352388576830663
  Basis Set: 6-31G*
  Basis Set:
  Basis Set: 6-31G*
  Basis Set:
  @DF-RHF Final Energy:  -266.83626502621667
    Total Energy =                       -266.8362650262164948
  Basis Set: 6-31G*
  Basis Set:
  Basis Set: 6-31G*
  Basis Set:
  @DF-RHF Final Energy:  -266.83627347664560
    Total Energy =                       -266.8362734766454309
  Basis Set: 6-31G*
  Basis Set:
  Charge       = 0
  Multiplicity = 1
  Basis Set: 6-31G*
  Basis Set:

    Orbital Energies (a.u.)
    -----------------------

    Doubly Occupied:

       1A    -20.605842     2A    -20.546489     3A    -11.376572
       4A    -11.282072     5A    -11.234697     6A     -1.471021
       7A     -1.364580     8A     -1.035971     9A     -0.953025
      10A     -0.778199    11A     -0.695831    12A     -0.681053
      13A     -0.677186    14A     -0.595600    15A     -0.591750
      16A     -0.560725    17A     -0.525511    18A     -0.523021
      19A     -0.457865    20A     -0.442345

  @DF-RHF Final Energy:  -266.83627381142912

   => Energetics <=

    Nuclear Repulsion Energy =            183.2900320483451821
    One-Electron Energy =                -727.4539043838830139
    Two-Electron Energy =                 277.3275985241085664
    DFT Exchange-Correlation Energy =       0.0000000000000000
    Empirical Dispersion Energy =           0.0000000000000000
    PCM Polarization Energy =               0.0000000000000000
    EFP Energy =                            0.0000000000000000
    Total Energy =                       -266.8362738114292370
    Molecular point group: c1
  Basis Set: 6-31G*
  Basis Set:

  -Total Gradient:
     Atom            X                  Y                   Z
    ------   -----------------  -----------------  -----------------
       1       -0.000010791869    -0.000006959295     0.000025391935
       2       -0.000313641576     0.000717581167     0.000267847443
       3        0.000005068407     0.000004912052     0.000006245144
       4        0.000319664498    -0.000894375828    -0.000271660706
       5        0.000001742513     0.000001469529    -0.000000897029
       6        0.000003885148    -0.000000969789    -0.000000164620
       7        0.000004641063    -0.000002612050    -0.000000323470
       8        0.000274822338    -0.000592634037    -0.000503567444
       9       -0.000282538160     0.000777415656     0.000466468773
      10       -0.000004265028     0.000015648027     0.000009944645
      11        0.000001412665    -0.000019475434     0.000000715324

  **** Optimization is complete! (in 6 steps) ****
    Final optimized geometry and variables:
    Molecular point group: c1

    Geometry (in Angstrom), charge = 0, multiplicity = 1:

    O            0.373009840885    -0.343576914856     1.259036314588
    C           -0.299007876854    -0.230260816649     0.285938106361
    C           -1.712117963919    -0.726560319933     0.146351511530
    O            0.118310543705     0.359099610501    -0.826874656795
    H           -2.370194302863     0.102720072246    -0.085804696701
    H           -2.022137579673    -1.199605476596     1.066057024678
    H           -1.772093457196    -1.432967895677    -0.673495761666
    C            1.431768788694     0.889746205308    -0.823628722909
    H            1.518023159110     1.472110810423    -1.727681391533
    H            2.160885521882     0.091621182413    -0.818616880650
    H            1.586210778671     1.518414578400     0.040430265399

  Mulliken Charges: (a.u.)
   Center  Symbol    Alpha    Beta     Spin     Total
       1     O     4.28199  4.28199  0.00000 -0.56399
       2     C     2.62252  2.62252  0.00000  0.75497
       3     C     3.28176  3.28176  0.00000 -0.56351
       4     O     4.29951  4.29951  0.00000 -0.59901
       5     H     0.39999  0.39999  0.00000  0.20001
       6     H     0.39658  0.39658  0.00000  0.20684
       7     H     0.39983  0.39983  0.00000  0.20034
       8     C     3.09282  3.09282  0.00000 -0.18563
       9     H     0.40849  0.40849  0.00000  0.18301
      10     H     0.41047  0.41047  0.00000  0.17905
      11     H     0.40604  0.40604  0.00000  0.18793

   Total alpha = 20.00000, Total beta = 20.00000, Total charge =  0.00000
