  ==> Input File <==

--------------------------------------------------------------------------
set {
	reference rhf
	basis 6-31G*
}

set_num_threads( 4 )
memory 2 gb

molecule MOL {
0 1

H	 2.176868	 -0.646004	 -0.217325
O	 1.337496	 -0.537251	 0.205931
C	 0.702312	 0.627605	 -0.264544
C	 -0.714990	 0.596302	 0.266387
H	 0.682322	 0.642550	 -1.350929
H	 1.215941	 1.520383	 0.085680
O	 -1.405996	 -0.526611	 -0.195820
H	 -1.257453	 1.468809	 -0.075599
H	 -0.688972	 0.618407	 1.353696
H	 -0.874803	 -0.936738	 -0.866374

	symmetry c1
}
set optking {
	frozen_dihedral = ("
		10 7 4 3
	")
}

ee = optimize('scf')
oeprop('DIPOLE', 'QUADRUPOLE', 'MULLIKEN_CHARGES')
f=open( 'psi4out.xyz', 'w' )
f.write( "10  " )
f.write( str(ee) + "\n" )
f.write( MOL.save_string_xyz() )
f.close()
--------------------------------------------------------------------------

    Molecular point group: c1
  Charge       = 0
  Multiplicity = 1
  Basis Set: 6-31G*
  Basis Set:
  @DF-RHF Final Energy:  -228.91756969543457
    Total Energy =                       -228.9175696954346222
    Molecular point group: c1
  Basis Set: 6-31G*
  Basis Set:
  Basis Set: 6-31G*
  Basis Set:
  @DF-RHF Final Energy:  -228.91880137635536
    Total Energy =                       -228.9188013763554181
  Basis Set: 6-31G*
  Basis Set:
  Basis Set: 6-31G*
  Basis Set:
  @DF-RHF Final Energy:  -228.91911778799914
    Total Energy =                       -228.9191177879991415
  Basis Set: 6-31G*
  Basis Set:
  Basis Set: 6-31G*
  Basis Set:
  @DF-RHF Final Energy:  -228.91912524364261
    Total Energy =                       -228.9191252436425827
  Basis Set: 6-31G*
  Basis Set:
  Charge       = 0
  Multiplicity = 1
  Basis Set: 6-31G*
  Basis Set:

    Orbital Energies (a.u.)
    -----------------------

    Doubly Occupied:

       1A    -20.569140     2A    -20.547171     3A    -11.283153
       4A    -11.269112     5A     -1.382828     6A     -1.350150
       7A     -1.005083     8A     -0.849088     9A     -0.723597
      10A     -0.670839    11A     -0.663766    12A     -0.598489
      13A     -0.574001    14A     -0.549681    15A     -0.472053
      16A     -0.455288    17A     -0.434370

  @DF-RHF Final Energy:  -228.91912568669574

   => Energetics <=

    Nuclear Repulsion Energy =            134.2134807465666313
    One-Electron Energy =                -579.4695922760049598
    Two-Electron Energy =                 216.3369858427426493
    DFT Exchange-Correlation Energy =       0.0000000000000000
    Empirical Dispersion Energy =           0.0000000000000000
    PCM Polarization Energy =               0.0000000000000000
    EFP Energy =                            0.0000000000000000
    Total Energy =                       -228.9191256866956792
    Molecular point group: c1
  Basis Set: 6-31G*
  Basis Set:

  -Total Gradient:
     Atom            X                  Y                   Z
    ------   -----------------  -----------------  -----------------
       1        0.000003794584     0.000007988406     0.000003683216
       2       -0.000008664916     0.000030432360    -0.000001206234
       3        0.000418009499    -0.000735387268     0.001166781284
       4       -0.000881889135     0.001319511526    -0.002158563847
       5        0.000025270748    -0.000011447626     0.000009712109
       6        0.000034988531    -0.000004861639     0.000014822504
       7        0.001424017677    -0.001859620942     0.002669000687
       8        0.000010000300     0.000004524662     0.000005430383
       9       -0.000026651072    -0.000019190434     0.000003764046
      10       -0.000998876210     0.001268050957    -0.001713424147

  **** Optimization is complete! (in 5 steps) ****
    Final optimized geometry and variables:
    Molecular point group: c1

    Geometry (in Angstrom), charge = 0, multiplicity = 1:

    H            2.235865123651    -0.579607266696    -0.157064062295
    O            1.344028532716    -0.566307077419     0.160157649438
    C            0.714927676332     0.621484569146    -0.237881041213
    C           -0.711358947978     0.604060274399     0.272838752500
    H            0.714328034006     0.706865248175    -1.325028210918
    H            1.224021419698     1.496103817574     0.161301167578
    O           -1.429924642735    -0.525876604027    -0.134706779665
    H           -1.212554172357     1.506251897530    -0.069688954794
    H           -0.700549503864     0.618068025946     1.356688130411
    H           -0.940369538998    -1.006286616082    -0.786367321993

  Mulliken Charges: (a.u.)
   Center  Symbol    Alpha    Beta     Spin     Total
       1     H     0.27771  0.27771  0.00000  0.44459
       2     O     4.36622  4.36622  0.00000 -0.73244
       3     C     3.03187  3.03187  0.00000 -0.06373
       4     C     2.97769  2.97769  0.00000  0.04462
       5     H     0.42939  0.42939  0.00000  0.14122
       6     H     0.42391  0.42391  0.00000  0.15219
       7     O     4.37396  4.37396  0.00000 -0.74791
       8     H     0.42762  0.42762  0.00000  0.14476
       9     H     0.41633  0.41633  0.00000  0.16734
      10     H     0.27532  0.27532  0.00000  0.44937

   Total alpha = 17.00000, Total beta = 17.00000, Total charge =  0.00000
