  ==> Input File <==

--------------------------------------------------------------------------
set {
	reference rhf
	basis 6-31G*
}

set_num_threads( 1 )
memory 2 gb

molecule MOL {
0 1

H	 3.729471	 -0.928294	 -0.070608
O	 2.826016	 -1.159218	 0.122261
C	 2.077727	 -0.067559	 -0.035091
C	 0.624473	 -0.343591	 0.253101
O	 2.542965	 0.974826	 -0.363729
C	 -0.265902	 0.883932	 0.072916
H	 0.324016	 -1.163849	 -0.390541
H	 0.565024	 -0.726111	 1.268924
C	 -1.728698	 0.646073	 0.462102
H	 -0.209144	 1.219470	 -0.958188
H	 0.135059	 1.692851	 0.673903
C	 -2.314982	 -0.686765	 -0.011997
H	 -2.324377	 1.454510	 0.044541
H	 -1.834009	 0.721789	 1.543459
C	 -3.802180	 -0.823031	 0.313813
H	 -2.170964	 -0.779250	 -1.086589
H	 -1.777849	 -1.515777	 0.441446
H	 -4.194321	 -1.775083	 -0.029898
H	 -4.380988	 -0.035697	 -0.160440
H	 -3.976038	 -0.760882	 1.384396

	symmetry c1
}
set optking {
	frozen_dihedral = ("
		16 12 9 6,
		7 4 6 10,
		5 3 4 7,
		1 2 3 5
	")
}

ee = energy('scf')
oeprop('DIPOLE', 'QUADRUPOLE', 'MULLIKEN_CHARGES')
f=open( 'psi4out.xyz', 'w' )
f.write( "20  " )
f.write( str(ee) + "\n" )
f.write( MOL.save_string_xyz() )
f.close()
--------------------------------------------------------------------------

    Molecular point group: c1

    Geometry (in Angstrom), charge = 0, multiplicity = 1:

       Center              X                  Y                   Z               Mass
    ------------   -----------------  -----------------  -----------------  -----------------
           H          3.688798330380    -0.839933076032    -0.169477072766     1.007825032070
           O          2.785343330380    -1.070857076032     0.023391927234    15.994914619560
           C          2.037054330380     0.020801923968    -0.133960072766    12.000000000000
           C          0.583800330380    -0.255230076032     0.154231927234    12.000000000000
           O          2.502292330380     1.063186923968    -0.462598072766    15.994914619560
           C         -0.306574669620     0.972292923968    -0.025953072766    12.000000000000
           H          0.283343330380    -1.075488076032    -0.489410072766     1.007825032070
           H          0.524351330380    -0.637750076032     1.170054927234     1.007825032070
           C         -1.769370669620     0.734433923968     0.363232927234    12.000000000000
           H         -0.249816669620     1.307830923968    -1.057057072766     1.007825032070
           H          0.094386330380     1.781211923968     0.575033927234     1.007825032070
           C         -2.355654669620    -0.598404076032    -0.110866072766    12.000000000000
           H         -2.365049669620     1.542870923968    -0.054328072766     1.007825032070
           H         -1.874681669620     0.810149923968     1.444589927234     1.007825032070
           C         -3.842852669620    -0.734670076032     0.214943927234    12.000000000000
           H         -2.211636669620    -0.690889076032    -1.185458072766     1.007825032070
           H         -1.818521669620    -1.427416076032     0.342576927234     1.007825032070
           H         -4.234993669620    -1.686722076032    -0.128767072766     1.007825032070
           H         -4.421660669620     0.052663923968    -0.259309072766     1.007825032070
           H         -4.016710669620    -0.672521076032     1.285526927234     1.007825032070

  Charge       = 0
  Multiplicity = 1
  Basis Set: 6-31G*
  Basis Set:

    Orbital Energies (a.u.)
    -----------------------

    Doubly Occupied:

       1A    -20.612321     2A    -20.551292     3A    -11.380789
       4A    -11.239867     5A    -11.222638     6A    -11.221063
       7A    -11.220008     8A    -11.212620     9A     -1.474341
      10A     -1.365374    11A     -1.097314    12A     -1.039628
      13A     -0.961673    14A     -0.869109    15A     -0.820839
      16A     -0.770829    17A     -0.699383    18A     -0.689837
      19A     -0.666468    20A     -0.637004    21A     -0.598860
      22A     -0.594346    23A     -0.579005    24A     -0.553580
      25A     -0.539338    26A     -0.517451    27A     -0.496100
      28A     -0.478864    29A     -0.470159    30A     -0.464016
      31A     -0.457484    32A     -0.443603

  @DF-RHF Final Energy:  -383.94641588841444

   => Energetics <=

    Nuclear Repulsion Energy =            377.7048450951627956
    One-Electron Energy =               -1271.4121015828679901
    Two-Electron Energy =                 509.7608405992907592
    DFT Exchange-Correlation Energy =       0.0000000000000000
    Empirical Dispersion Energy =           0.0000000000000000
    PCM Polarization Energy =               0.0000000000000000
    EFP Energy =                            0.0000000000000000
    Total Energy =                       -383.9464158884144354

  Mulliken Charges: (a.u.)
   Center  Symbol    Alpha    Beta     Spin     Total
       1     H     0.26785  0.26785  0.00000  0.46429
       2     O     4.35158  4.35158  0.00000 -0.70316
       3     C     2.62158  2.62158  0.00000  0.75684
       4     C     3.21623  3.21623  0.00000 -0.43246
       5     O     4.27929  4.27929  0.00000 -0.55859
       6     C     3.15376  3.15376  0.00000 -0.30751
       7     H     0.39569  0.39569  0.00000  0.20862
       8     H     0.39908  0.39908  0.00000  0.20184
       9     C     3.15432  3.15432  0.00000 -0.30865
      10     H     0.41199  0.41199  0.00000  0.17601
      11     H     0.40778  0.40778  0.00000  0.18445
      12     C     3.15855  3.15855  0.00000 -0.31710
      13     H     0.41800  0.41800  0.00000  0.16399
      14     H     0.42217  0.42217  0.00000  0.15565
      15     C     3.23866  3.23866  0.00000 -0.47732
      16     H     0.42221  0.42221  0.00000  0.15558
      17     H     0.42102  0.42102  0.00000  0.15796
      18     H     0.41844  0.41844  0.00000  0.16313
      19     H     0.42071  0.42071  0.00000  0.15858
      20     H     0.42107  0.42107  0.00000  0.15786

   Total alpha = 32.00000, Total beta = 32.00000, Total charge = -0.00000
