  ==> Input File <==

--------------------------------------------------------------------------
set {
	reference rhf
	basis 6-31G*
}

set_num_threads( 1 )
memory 2 gb

molecule MOL {
0 1

O	 -0.291628	 1.323815	 -0.000732
C	 -0.449655	 0.146360	 0.000961
C	 -1.783294	 -0.549321	 -0.000296
O	 0.550821	 -0.724572	 0.000672
H	 -1.863538	 -1.185371	 -0.874187
H	 -2.574672	 0.185258	 -0.002793
H	 -1.866414	 -1.182381	 0.875436
C	 1.668862	 -0.417394	 -0.812904
H	 1.374480	 -0.342108	 -1.849739
H	 2.363389	 -1.231955	 -0.679219
H	 2.119400	 0.514262	 -0.502462

	symmetry c1
}
set optking {
	frozen_dihedral = ("
		2 4 8 9
	")
}

ee = energy('scf')
oeprop('DIPOLE', 'QUADRUPOLE', 'MULLIKEN_CHARGES')
f=open( 'psi4out.xyz', 'w' )
f.write( "11  " )
f.write( str(ee) + "\n" )
f.write( MOL.save_string_xyz() )
f.close()
--------------------------------------------------------------------------

    Molecular point group: c1

    Geometry (in Angstrom), charge = 0, multiplicity = 1:

       Center              X                  Y                   Z               Mass
    ------------   -----------------  -----------------  -----------------  -----------------
           O         -0.250106344333     1.371454638948     0.172216159466    15.994914619560
           C         -0.408133344333     0.193999638948     0.173909159466    12.000000000000
           C         -1.741772344333    -0.501681361052     0.172652159466    12.000000000000
           O          0.592342655667    -0.676932361052     0.173620159466    15.994914619560
           H         -1.822016344333    -1.137731361052    -0.701238840534     1.007825032070
           H         -2.533150344333     0.232897638948     0.170155159466     1.007825032070
           H         -1.824892344333    -1.134741361052     1.048384159466     1.007825032070
           C          1.710383655667    -0.369754361052    -0.639955840534    12.000000000000
           H          1.416001655667    -0.294468361052    -1.676790840534     1.007825032070
           H          2.404910655667    -1.184315361052    -0.506270840534     1.007825032070
           H          2.160921655667     0.561901638948    -0.329513840534     1.007825032070

  Charge       = 0
  Multiplicity = 1
  Basis Set: 6-31G*
  Basis Set:

    Orbital Energies (a.u.)
    -----------------------

    Doubly Occupied:

       1A    -20.598137     2A    -20.549708     3A    -11.377052
       4A    -11.286399     5A    -11.234838     6A     -1.468942
       7A     -1.365403     8A     -1.033704     9A     -0.956846
      10A     -0.779103    11A     -0.695679    12A     -0.680929
      13A     -0.675046    14A     -0.599910    15A     -0.592653
      16A     -0.566161    17A     -0.536107    18A     -0.509124
      19A     -0.456543    20A     -0.440857

  @DF-RHF Final Energy:  -266.82768705246019

   => Energetics <=

    Nuclear Repulsion Energy =            183.1583480810083699
    One-Electron Energy =                -727.1658222191543928
    Two-Electron Energy =                 277.1797870856850068
    DFT Exchange-Correlation Energy =       0.0000000000000000
    Empirical Dispersion Energy =           0.0000000000000000
    PCM Polarization Energy =               0.0000000000000000
    EFP Energy =                            0.0000000000000000
    Total Energy =                       -266.8276870524609876

  Mulliken Charges: (a.u.)
   Center  Symbol    Alpha    Beta     Spin     Total
       1     O     4.27316  4.27316  0.00000 -0.54631
       2     C     2.62326  2.62326  0.00000  0.75348
       3     C     3.28290  3.28290  0.00000 -0.56580
       4     O     4.30179  4.30179  0.00000 -0.60357
       5     H     0.40292  0.40292  0.00000  0.19415
       6     H     0.39773  0.39773  0.00000  0.20455
       7     H     0.39877  0.39877  0.00000  0.20245
       8     C     3.09470  3.09470  0.00000 -0.18939
       9     H     0.41644  0.41644  0.00000  0.16711
      10     H     0.40627  0.40627  0.00000  0.18746
      11     H     0.40206  0.40206  0.00000  0.19588

   Total alpha = 20.00000, Total beta = 20.00000, Total charge = -0.00000
