  ==> Input File <==

--------------------------------------------------------------------------
set {
	reference rhf
	basis 6-31G*
}

set_num_threads( 4 )
memory 2 gb

molecule MOL {
0 1

H	 -2.205262	 -1.124847	 -0.345075
O	 -2.347518	 -0.290803	 0.079804
C	 -1.184022	 0.487508	 -0.006784
C	 0.062599	 -0.378592	 0.031606
H	 -1.176523	 1.099369	 -0.904519
H	 -1.187323	 1.153111	 0.844927
O	 1.171513	 0.459272	 -0.058250
H	 0.050699	 -1.089204	 -0.797170
H	 0.078739	 -0.954914	 0.954740
C	 2.397842	 -0.198080	 -0.002151
H	 2.508049	 -0.905315	 -0.822092
H	 3.173794	 0.550865	 -0.078850
H	 2.517602	 -0.735921	 0.936026

	symmetry c1
}
set optking {
	frozen_dihedral = ("
		1 2 3 5
	")
}

ee = optimize('scf')
oeprop('DIPOLE', 'QUADRUPOLE', 'MULLIKEN_CHARGES')
f=open( 'psi4out.xyz', 'w' )
f.write( "13  " )
f.write( str(ee) + "\n" )
f.write( MOL.save_string_xyz() )
f.close()
--------------------------------------------------------------------------

    Molecular point group: c1
  Charge       = 0
  Multiplicity = 1
  Basis Set: 6-31G*
  Basis Set:
  @DF-RHF Final Energy:  -267.94807081153408
    Total Energy =                       -267.9480708115339667
    Molecular point group: c1
  Basis Set: 6-31G*
  Basis Set:
  Basis Set: 6-31G*
  Basis Set:
  @DF-RHF Final Energy:  -267.94816856676192
    Total Energy =                       -267.9481685667619217
  Basis Set: 6-31G*
  Basis Set:
  Basis Set: 6-31G*
  Basis Set:
  @DF-RHF Final Energy:  -267.94818766640140
    Total Energy =                       -267.9481876664012248
  Basis Set: 6-31G*
  Basis Set:
  Charge       = 0
  Multiplicity = 1
  Basis Set: 6-31G*
  Basis Set:

    Orbital Energies (a.u.)
    -----------------------

    Doubly Occupied:

       1A    -20.567230     2A    -20.558522     3A    -11.278737
       4A    -11.273741     5A    -11.268467     6A     -1.393671
       7A     -1.363900     8A     -1.021634     9A     -0.915738
      10A     -0.850194    11A     -0.700390    12A     -0.680805
      13A     -0.669594    14A     -0.629926    15A     -0.601804
      16A     -0.578834    17A     -0.546190    18A     -0.497022
      19A     -0.474018    20A     -0.439780    21A     -0.426783

  @DF-RHF Final Energy:  -267.94818804966758

   => Energetics <=

    Nuclear Repulsion Energy =            190.3607455708290104
    One-Electron Energy =                -743.1439070062097016
    Two-Electron Energy =                 284.8349733857132264
    DFT Exchange-Correlation Energy =       0.0000000000000000
    Empirical Dispersion Energy =           0.0000000000000000
    PCM Polarization Energy =               0.0000000000000000
    EFP Energy =                            0.0000000000000000
    Total Energy =                       -267.9481880496674080
    Molecular point group: c1
  Basis Set: 6-31G*
  Basis Set:

  -Total Gradient:
     Atom            X                  Y                   Z
    ------   -----------------  -----------------  -----------------
       1        0.001061118646    -0.001313774109     0.002837012221
       2       -0.001718407931     0.002175336587    -0.003106233220
       3        0.001914404000    -0.003042653397    -0.001200750055
       4       -0.000059513871     0.000022483628     0.000041001836
       5       -0.001264938950     0.002136244245     0.001470051573
       6        0.000019832803     0.000003298848     0.000001356052
       7        0.000021823172    -0.000024791205    -0.000019197964
       8        0.000012896705     0.000016070062     0.000003548251
       9       -0.000022546405    -0.000000209553    -0.000011791851
      10        0.000006772105     0.000049955271    -0.000021419429
      11        0.000006873925    -0.000005481884     0.000003718328
      12        0.000028557024    -0.000014226012     0.000001772711
      13       -0.000006871226    -0.000002252481     0.000000931546

  **** Optimization is complete! (in 4 steps) ****
    Final optimized geometry and variables:
    Molecular point group: c1

    Geometry (in Angstrom), charge = 0, multiplicity = 1:

    H           -2.245173632285    -1.113965327887    -0.356993433401
    O           -2.360765750357    -0.278437758051     0.073076030035
    C           -1.185846688336     0.484562228431    -0.015385076556
    C            0.063761155541    -0.375695525155     0.028246447330
    H           -1.187494973421     1.099043514281    -0.910823931152
    H           -1.182514413787     1.156337195244     0.832582396527
    O            1.169107582992     0.463814868199    -0.059645771868
    H            0.058812155645    -1.087556334104    -0.800969851000
    H            0.080891405174    -0.950682238714     0.953287975360
    C            2.397777000838    -0.191148411477    -0.008110777894
    H            2.507611538482    -0.894078145259    -0.831559926302
    H            3.170860992849     0.560623101073    -0.083144805750
    H            2.520047045205    -0.732076824181     0.927909136925

  Mulliken Charges: (a.u.)
   Center  Symbol    Alpha    Beta     Spin     Total
       1     H     0.28190  0.28190  0.00000  0.43620
       2     O     4.37488  4.37488  0.00000 -0.74976
       3     C     2.98896  2.98896  0.00000  0.02208
       4     C     3.00946  3.00946  0.00000 -0.01892
       5     H     0.42076  0.42076  0.00000  0.15848
       6     H     0.41106  0.41106  0.00000  0.17788
       7     O     4.30537  4.30537  0.00000 -0.61075
       8     H     0.43696  0.43696  0.00000  0.12609
       9     H     0.42433  0.42433  0.00000  0.15133
      10     C     3.08119  3.08119  0.00000 -0.16238
      11     H     0.42847  0.42847  0.00000  0.14307
      12     H     0.40927  0.40927  0.00000  0.18146
      13     H     0.42739  0.42739  0.00000  0.14522

   Total alpha = 21.00000, Total beta = 21.00000, Total charge = -0.00000
