  ==> Input File <==

--------------------------------------------------------------------------
set {
	reference rhf
	basis cc-pvtz
}

set_num_threads( 4 )
memory 2 gb

molecule MOL {
0 1

O	 1.088230	 0.644740	 0.933629
C	 0.576499	 0.134701	 -0.003900
C	 -0.765656	 -0.550508	 -0.002152
O	 1.136025	 0.092218	 -1.201856
C	 -1.945526	 0.411052	 0.000603
H	 -0.794329	 -1.203792	 -0.868145
H	 -0.791555	 -1.205429	 0.862701
C	 -3.282915	 -0.321280	 0.002596
H	 -1.880300	 1.059126	 -0.864925
H	 -1.877207	 1.057892	 0.866807
H	 -3.388495	 -0.952755	 -0.873419
H	 -4.107811	 0.380864	 0.004116
H	 -3.385717	 -0.953283	 0.878571
C	 2.405919	 0.695863	 -1.346751
H	 2.356262	 1.748789	 -1.112371
H	 2.684880	 0.556756	 -2.378507
H	 3.128595	 0.223795	 -0.697958

	symmetry c1
}
set optking {
	frozen_dihedral = ("
		1 2 3 6
	")
}

ee = optimize('scf')
oeprop('DIPOLE', 'QUADRUPOLE', 'MULLIKEN_CHARGES')
f=open( 'psi4out.xyz', 'w' )
f.write( "17  " )
f.write( str(ee) + "\n" )
f.write( MOL.save_string_xyz() )
f.close()
--------------------------------------------------------------------------

    Molecular point group: c1
  Charge       = 0
  Multiplicity = 1
  Basis Set: CC-PVTZ
  Basis Set:
  @DF-RHF Final Energy:  -345.03322555816379
    Total Energy =                       -345.0332255581636218
    Molecular point group: c1
  Basis Set: CC-PVTZ
  Basis Set:
  Basis Set: CC-PVTZ
  Basis Set:
  @DF-RHF Final Energy:  -345.03365893778926
    Total Energy =                       -345.0336589377886867
  Basis Set: CC-PVTZ
  Basis Set:
  Basis Set: CC-PVTZ
  Basis Set:
  @DF-RHF Final Energy:  -345.03281136763349
    Total Energy =                       -345.0328113676333146
  Basis Set: CC-PVTZ
  Basis Set:
  Basis Set: CC-PVTZ
  Basis Set:
  @DF-RHF Final Energy:  -345.03406544079360
    Total Energy =                       -345.0340654407932561
  Basis Set: CC-PVTZ
  Basis Set:
  Basis Set: CC-PVTZ
  Basis Set:
  @DF-RHF Final Energy:  -345.03407107978734
    Total Energy =                       -345.0340710797875090
  Basis Set: CC-PVTZ
  Basis Set:
  Charge       = 0
  Multiplicity = 1
  Basis Set: CC-PVTZ
  Basis Set:

    Orbital Energies (a.u.)
    -----------------------

    Doubly Occupied:

       1A    -20.598503     2A    -20.531647     3A    -11.363783
       4A    -11.278697     5A    -11.232479     6A    -11.229739
       7A    -11.216342     8A     -1.472422     9A     -1.364650
      10A     -1.084672    11A     -1.001106    12A     -0.942411
      13A     -0.829957    14A     -0.775486    15A     -0.700275
      16A     -0.683242    17A     -0.676301    18A     -0.637732
      19A     -0.596484    20A     -0.583840    21A     -0.557381
      22A     -0.540665    23A     -0.527686    24A     -0.506808
      25A     -0.486966    26A     -0.484944    27A     -0.457996
      28A     -0.436429

  @DF-RHF Final Energy:  -345.03407140617190

   => Energetics <=

    Nuclear Repulsion Energy =            314.1089880744677316
    One-Electron Energy =               -1092.6888316828735697
    Two-Electron Energy =                 433.5457722022338203
    DFT Exchange-Correlation Energy =       0.0000000000000000
    Empirical Dispersion Energy =           0.0000000000000000
    PCM Polarization Energy =               0.0000000000000000
    EFP Energy =                            0.0000000000000000
    Total Energy =                       -345.0340714061719609
    Molecular point group: c1
  Basis Set: CC-PVTZ
  Basis Set:

  -Total Gradient:
     Atom            X                  Y                   Z
    ------   -----------------  -----------------  -----------------
       1       -0.000162958427     0.000304502836    -0.000068853234
       2        0.000201154461    -0.000372334792     0.000071587550
       3        0.000093836621    -0.000174997479     0.000221556384
       4       -0.000007124188    -0.000023921498     0.000012546822
       5        0.000027604066     0.000000683270    -0.000039831311
       6       -0.000134922736     0.000257241154    -0.000193966676
       7        0.000007674943    -0.000003344768    -0.000014555910
       8       -0.000015274881    -0.000005285864     0.000020319495
       9       -0.000002073204     0.000000058242     0.000005581716
      10       -0.000002327171    -0.000002982403    -0.000012242024
      11        0.000008483169     0.000010425885    -0.000000204828
      12       -0.000002669151     0.000002908093     0.000005898295
      13        0.000001042914    -0.000006278659    -0.000003672755
      14       -0.000027816882     0.000025066809    -0.000001336443
      15        0.000012351352    -0.000002228940    -0.000004983549
      16        0.000000436023    -0.000004707663    -0.000000520545
      17        0.000002583094    -0.000004804223     0.000002677009

  **** Optimization is complete! (in 6 steps) ****
    Final optimized geometry and variables:
    Molecular point group: c1

    Geometry (in Angstrom), charge = 0, multiplicity = 1:

    O            1.154209713087     0.430124115393     1.185142764658
    C            0.662571107047    -0.079253653589     0.235353040704
    C           -0.674183475978    -0.774024264761     0.243102843647
    O            1.220643999089    -0.068004718343    -0.962930867561
    C           -1.819742864290     0.244097838818     0.211655001322
    H           -0.742695743901    -1.439722124260    -0.606305657993
    H           -0.729228200870    -1.358583165562     1.152213151222
    C           -3.187485386288    -0.427108122970     0.251183084145
    H           -1.737032565203     0.847989137357    -0.686430752647
    H           -1.714331818745     0.916793836451     1.054479509989
    H           -3.325960956582    -1.087279678473    -0.598198607257
    H           -3.980601463101     0.310674644950     0.230290025828
    H           -3.306912356618    -1.017169192822     1.153322443743
    C            2.460293552981     0.599004989368    -1.093280376199
    H            2.360867105129     1.642134140919    -0.832303142830
    H            2.744647956243     0.498938666809    -2.128165782303
    H            3.204777842872     0.145782424941    -0.455889146862

  Mulliken Charges: (a.u.)
   Center  Symbol    Alpha    Beta     Spin     Total
       1     O     4.20508  4.20508  0.00000 -0.41016
       2     C     2.80735  2.80735  0.00000  0.38530
       3     C     3.07864  3.07864  0.00000 -0.15727
       4     O     4.14762  4.14762  0.00000 -0.29523
       5     C     3.09103  3.09103  0.00000 -0.18205
       6     H     0.44307  0.44307  0.00000  0.11387
       7     H     0.44169  0.44169  0.00000  0.11662
       8     C     3.15137  3.15137  0.00000 -0.30275
       9     H     0.44976  0.44976  0.00000  0.10048
      10     H     0.44183  0.44183  0.00000  0.11633
      11     H     0.45444  0.45444  0.00000  0.09112
      12     H     0.44609  0.44609  0.00000  0.10783
      13     H     0.45306  0.45306  0.00000  0.09388
      14     C     3.03578  3.03578  0.00000 -0.07156
      15     H     0.45431  0.45431  0.00000  0.09137
      16     H     0.44540  0.44540  0.00000  0.10920
      17     H     0.45349  0.45349  0.00000  0.09302

   Total alpha = 28.00000, Total beta = 28.00000, Total charge = -0.00000
