  ==> Input File <==

--------------------------------------------------------------------------
set {
	reference rhf
	basis 6-31G*
}

set_num_threads( 4 )
memory 2 gb

molecule MOL {
0 1

O	 0.391030	 1.298905	 0.000133
C	 0.503002	 0.111612	 0.000005
C	 -0.702327	 -0.811998	 -0.000075
C	 1.863306	 -0.554493	 0.000030
C	 -0.568630	 -1.990238	 -0.957169
H	 -0.857934	 -1.157996	 1.020142
H	 -1.580186	 -0.215350	 -0.241198
H	 0.290131	 -2.600032	 -0.704386
H	 -1.455671	 -2.613655	 -0.915145
H	 -0.438526	 -1.649029	 -1.976909
H	 1.974395	 -1.189404	 -0.874166
H	 2.638695	 0.198920	 -0.000196
H	 1.974487	 -1.188655	 0.874727

	symmetry c1
}
set optking {
	frozen_dihedral = ("
		6 3 2 1
	")
}

ee = optimize('scf')
oeprop('DIPOLE', 'QUADRUPOLE', 'MULLIKEN_CHARGES')
f=open( 'psi4out.xyz', 'w' )
f.write( "13  " )
f.write( str(ee) + "\n" )
f.write( MOL.save_string_xyz() )
f.close()
--------------------------------------------------------------------------

    Molecular point group: c1
  Charge       = 0
  Multiplicity = 1
  Basis Set: 6-31G*
  Basis Set:
  @DF-RHF Final Energy:  -230.99346187582827
    Total Energy =                       -230.9934618758284159
    Molecular point group: c1
  Basis Set: 6-31G*
  Basis Set:
  Basis Set: 6-31G*
  Basis Set:
  @DF-RHF Final Energy:  -230.99333926496985
    Total Energy =                       -230.9933392649697339
  Basis Set: 6-31G*
  Basis Set:
  Basis Set: 6-31G*
  Basis Set:
  @DF-RHF Final Energy:  -230.99360763961229
    Total Energy =                       -230.9936076396120370
  Basis Set: 6-31G*
  Basis Set:
  Basis Set: 6-31G*
  Basis Set:
  @DF-RHF Final Energy:  -230.99469556991502
    Total Energy =                       -230.9946955699151658
  Basis Set: 6-31G*
  Basis Set:
  @DF-RHF Final Energy:  -230.99479326015731
    Total Energy =                       -230.9947932601575928
  @DF-RHF Final Energy:  -230.99480078569215
    Total Energy =                       -230.9948007856920924
  Basis Set: 6-31G*
  Basis Set:
  @DF-RHF Final Energy:  -230.99480200996555
    Total Energy =                       -230.9948020099655537
  Basis Set: 6-31G*
  Basis Set:
  Basis Set: 6-31G*
  Basis Set:
  @DF-RHF Final Energy:  -230.99480412196064
    Total Energy =                       -230.9948041219605557
  Basis Set: 6-31G*
  Basis Set:
  Basis Set: 6-31G*
  Basis Set:
  @DF-RHF Final Energy:  -230.99480528426554
    Total Energy =                       -230.9948052842653965
  Basis Set: 6-31G*
  Basis Set:
  Charge       = 0
  Multiplicity = 1
  Basis Set: 6-31G*
  Basis Set:

    Orbital Energies (a.u.)
    -----------------------

    Doubly Occupied:

       1A    -20.548729     2A    -11.325937     3A    -11.233924
       4A    -11.230092     5A    -11.228601     6A     -1.394402
       7A     -1.068112     8A     -0.993760     9A     -0.890014
      10A     -0.732646    11A     -0.652813    12A     -0.646283
      13A     -0.618751    14A     -0.589090    15A     -0.559006
      16A     -0.543796    17A     -0.529018    18A     -0.507250
      19A     -0.480395    20A     -0.399988

  @DF-RHF Final Energy:  -230.99480553062619

   => Energetics <=

    Nuclear Repulsion Energy =            176.8015881054513443
    One-Electron Energy =                -663.2475747244554896
    Two-Electron Energy =                 255.4511810883779219
    DFT Exchange-Correlation Energy =       0.0000000000000000
    Empirical Dispersion Energy =           0.0000000000000000
    PCM Polarization Energy =               0.0000000000000000
    EFP Energy =                            0.0000000000000000
    Total Energy =                       -230.9948055306262233
    Molecular point group: c1
  Basis Set: 6-31G*
  Basis Set:

  -Total Gradient:
     Atom            X                  Y                   Z
    ------   -----------------  -----------------  -----------------
       1        0.000008998708     0.000001706750     0.000892415070
       2       -0.000120181843     0.000143755874    -0.001217268468
       3        0.000634561270    -0.000834736354     0.000169911832
       4       -0.000001547581     0.000000954085     0.000001960563
       5        0.000000707687     0.000000190608     0.000001100570
       6       -0.000520912638     0.000689893879     0.000155243519
       7        0.000000594088     0.000000453994    -0.000000315662
       8        0.000000204947    -0.000000304148    -0.000000487786
       9       -0.000000026515     0.000000343001     0.000000410344
      10       -0.000000342319    -0.000000514969    -0.000000442440
      11       -0.000000572492    -0.000000612926    -0.000001268466
      12       -0.000000181075    -0.000000212710    -0.000000768786
      13       -0.000001302236    -0.000000917088    -0.000000490291

  **** Optimization is complete! (in 10 steps) ****
    Final optimized geometry and variables:
    Molecular point group: c1

    Geometry (in Angstrom), charge = 0, multiplicity = 1:

    O            0.079831832971     1.693592523982     0.174533416991
    C            0.211959071036     0.507770262460     0.179531213639
    C           -0.999195614996    -0.409975968647     0.196185421270
    C            1.588195652650    -0.124140475135     0.212564976949
    C           -0.914372925340    -1.626270078387    -0.729769446148
    H           -1.132818434920    -0.740347760423     1.225329112611
    H           -1.858317469093     0.201467752260    -0.050395766943
    H           -0.109768779612    -2.297355472911    -0.449763132048
    H           -1.839596683289    -2.189997987861    -0.688193013004
    H           -0.758616140386    -1.326525633825    -1.761550301861
    H            1.810194749467    -0.589513894586    -0.743193133399
    H            2.326552717193     0.639990429265     0.411342237017
    H            1.645779804070    -0.898841113065     0.971123417915

  Mulliken Charges: (a.u.)
   Center  Symbol    Alpha    Beta     Spin     Total
       1     O     4.26126  4.26126  0.00000 -0.52251
       2     C     2.73285  2.73285  0.00000  0.53430
       3     C     3.20532  3.20532  0.00000 -0.41064
       4     C     3.29198  3.29198  0.00000 -0.58397
       5     C     3.25084  3.25084  0.00000 -0.50167
       6     H     0.40764  0.40764  0.00000  0.18473
       7     H     0.39790  0.39790  0.00000  0.20420
       8     H     0.41661  0.41661  0.00000  0.16677
       9     H     0.41046  0.41046  0.00000  0.17909
      10     H     0.41386  0.41386  0.00000  0.17228
      11     H     0.40480  0.40480  0.00000  0.19040
      12     H     0.39562  0.39562  0.00000  0.20877
      13     H     0.41087  0.41087  0.00000  0.17825

   Total alpha = 20.00000, Total beta = 20.00000, Total charge = -0.00000
