  ==> Input File <==

--------------------------------------------------------------------------
set {
	reference rhf
	basis 6-31G*
}

set_num_threads( 4 )
memory 2 gb

molecule MOL {
0 1

H	 1.802897	 2.454628	 0.213412
N	 0.963242	 1.917360	 0.114240
C	 1.267428	 0.496480	 0.024474
H	 0.514360	 2.234013	 -0.724301
C	 -0.016086	 -0.325158	 -0.029487
H	 1.830922	 0.223219	 0.911512
H	 1.894664	 0.245317	 -0.834521
C	 -1.282277	 0.529072	 0.046735
H	 -0.012495	 -0.908639	 -0.945788
H	 -0.015903	 -1.041248	 0.791956
C	 -2.563920	 -0.301775	 -0.006060
H	 -1.284084	 1.244622	 -0.773004
H	 -1.271387	 1.115393	 0.963286
H	 -2.621848	 -0.873522	 -0.927727
H	 -3.445135	 0.329952	 0.047812
H	 -2.609542	 -1.004582	 0.821105

	symmetry c1
}
set optking {
	frozen_dihedral = ("
		6 3 5 9
	")
}

ee = optimize('scf')
oeprop('DIPOLE', 'QUADRUPOLE', 'MULLIKEN_CHARGES')
f=open( 'psi4out.xyz', 'w' )
f.write( "16  " )
f.write( str(ee) + "\n" )
f.write( MOL.save_string_xyz() )
f.close()
--------------------------------------------------------------------------

    Molecular point group: c1
  Charge       = 0
  Multiplicity = 1
  Basis Set: 6-31G*
  Basis Set:
  @DF-RHF Final Energy:  -212.30459854432922
    Total Energy =                       -212.3045985443293944
    Molecular point group: c1
  Basis Set: 6-31G*
  Basis Set:
  Basis Set: 6-31G*
  Basis Set:
  @DF-RHF Final Energy:  -212.30480865438784
    Total Energy =                       -212.3048086543880117
  Basis Set: 6-31G*
  Basis Set:
  Basis Set: 6-31G*
  Basis Set:
  @DF-RHF Final Energy:  -212.30752499863843
    Total Energy =                       -212.3075249986386552
  Basis Set: 6-31G*
  Basis Set:
  Basis Set: 6-31G*
  Basis Set:
  @DF-RHF Final Energy:  -212.30777248723189
    Total Energy =                       -212.3077724872321141
  Basis Set: 6-31G*
  Basis Set:
  Basis Set: 6-31G*
  Basis Set:
  @DF-RHF Final Energy:  -212.30778749219024
    Total Energy =                       -212.3077874921901866
  Basis Set: 6-31G*
  Basis Set:
  Basis Set: 6-31G*
  Basis Set:
  @DF-RHF Final Energy:  -212.30779365703185
    Total Energy =                       -212.3077936570318798
  Basis Set: 6-31G*
  Basis Set:
  Basis Set: 6-31G*
  Basis Set:
  @DF-RHF Final Energy:  -212.30779809313265
    Total Energy =                       -212.3077980931323623
  Basis Set: 6-31G*
  Basis Set:
  Charge       = 0
  Multiplicity = 1
  Basis Set: 6-31G*
  Basis Set:

    Orbital Energies (a.u.)
    -----------------------

    Doubly Occupied:

       1A    -15.533084     2A    -11.241254     3A    -11.210052
       4A    -11.206771     5A    -11.203124     6A     -1.175883
       7A     -1.050787     8A     -0.955610     9A     -0.850689
      10A     -0.775803    11A     -0.667116    12A     -0.632331
      13A     -0.603127    14A     -0.577716    15A     -0.554160
      16A     -0.523137    17A     -0.499431    18A     -0.466142
      19A     -0.464474    20A     -0.450681    21A     -0.377649

  @DF-RHF Final Energy:  -212.30779812331630

   => Energetics <=

    Nuclear Repulsion Energy =            189.0482897710174086
    One-Electron Energy =                -660.6741344210139459
    Two-Electron Energy =                 259.3180465266801775
    DFT Exchange-Correlation Energy =       0.0000000000000000
    Empirical Dispersion Energy =           0.0000000000000000
    PCM Polarization Energy =               0.0000000000000000
    EFP Energy =                            0.0000000000000000
    Total Energy =                       -212.3077981233163882
    Molecular point group: c1
  Basis Set: 6-31G*
  Basis Set:

  -Total Gradient:
     Atom            X                  Y                   Z
    ------   -----------------  -----------------  -----------------
       1        0.000008828739     0.000006407545     0.000000645447
       2        0.000015401114    -0.000005447288    -0.000005427937
       3       -0.000730660953     0.001119416538     0.001196105544
       4       -0.000002631742     0.000003851504    -0.000005571441
       5       -0.000690005830     0.001207784014    -0.001117293592
       6        0.000741026071    -0.001126793686    -0.000815934555
       7        0.000000469231     0.000012120229     0.000001105912
       8       -0.000004733085    -0.000011539112     0.000009776974
       9        0.000667435966    -0.001195779675     0.000763125711
      10       -0.000009995201     0.000001276504    -0.000006647763
      11        0.000000715228    -0.000006973991    -0.000006371994
      12        0.000003400340    -0.000004741359    -0.000009545888
      13        0.000001277442    -0.000000781773    -0.000000489529
      14       -0.000008625776     0.000000453512    -0.000004205170
      15        0.000000418814     0.000000794254     0.000007197772
      16        0.000007679644    -0.000000047216    -0.000006469492

  **** Optimization is complete! (in 8 steps) ****
    Final optimized geometry and variables:
    Molecular point group: c1

    Geometry (in Angstrom), charge = 0, multiplicity = 1:

    H            2.265103342315     1.921898325199     0.256836593731
    N            1.389607442600     1.469958114696     0.075870152942
    C            1.581181047532     0.026331698416     0.007540188021
    H            1.057786441775     1.829126883525    -0.798408433911
    C            0.257031395983    -0.778660192360    -0.063555191695
    H            2.124766985655    -0.264009819713     0.899388936234
    H            2.213974983110    -0.265825961078    -0.831851962916
    C           -1.037878590639     0.033338848800     0.026710081050
    H            0.243767197233    -1.365990146865    -0.978703436924
    H            0.253376719038    -1.508126566046     0.742616892695
    C           -2.274913848398    -0.864317047487    -0.007455804448
    H           -1.093335066495     0.742712807943    -0.794891125220
    H           -1.034825127970     0.624163213128     0.935127293641
    H           -2.318187727633    -1.444803393166    -0.925219033241
    H           -3.186171677438    -0.277173446640     0.054654382945
    H           -2.276377225467    -1.563923278744     0.823987092611

  Mulliken Charges: (a.u.)
   Center  Symbol    Alpha    Beta     Spin     Total
       1     H     0.33143  0.33143  0.00000  0.33714
       2     N     3.92315  3.92315  0.00000 -0.84629
       3     C     3.06171  3.06171  0.00000 -0.12343
       4     H     0.33404  0.33404  0.00000  0.33192
       5     C     3.16509  3.16509  0.00000 -0.33019
       6     H     0.41897  0.41897  0.00000  0.16205
       7     H     0.43178  0.43178  0.00000  0.13643
       8     C     3.14433  3.14433  0.00000 -0.28865
       9     H     0.42355  0.42355  0.00000  0.15290
      10     H     0.42060  0.42060  0.00000  0.15881
      11     C     3.24060  3.24060  0.00000 -0.48120
      12     H     0.42880  0.42880  0.00000  0.14241
      13     H     0.40915  0.40915  0.00000  0.18171
      14     H     0.42420  0.42420  0.00000  0.15160
      15     H     0.41982  0.41982  0.00000  0.16036
      16     H     0.42278  0.42278  0.00000  0.15444

   Total alpha = 21.00000, Total beta = 21.00000, Total charge = -0.00000
