  ==> Input File <==

--------------------------------------------------------------------------
set {
	reference rhf
	basis cc-pvtz
}

set_num_threads( 4 )
memory 2 gb

molecule MOL {
0 1

H	 0.306364	 -5.777100	 -1.737757
C	 0.558473	 -4.846712	 -1.242856
C	 -0.617455	 -3.876518	 -1.266699
H	 0.850166	 -5.083447	 -0.225060
H	 1.424796	 -4.429958	 -1.745666
C	 -0.306222	 -2.554010	 -0.581809
H	 -1.479260	 -4.323186	 -0.783433
H	 -0.905629	 -3.685693	 -2.297775
N	 -1.448008	 -1.665355	 -0.600568
H	 -0.042261	 -2.740759	 0.454829
H	 0.575199	 -2.103350	 -1.047735
C	 -1.215959	 -0.382435	 0.027143
H	 -1.754062	 -1.529726	 -1.541448
C	 -2.451944	 0.502410	 -0.038737
H	 -0.956433	 -0.558607	 1.066752
H	 -0.367455	 0.146795	 -0.416740
C	 -3.752217	 -0.292550	 0.005776
H	 -2.407325	 1.093801	 -0.946480
H	 -2.431979	 1.206234	 0.790023
H	 -3.817783	 -0.982946	 -0.828547
H	 -4.612613	 0.364348	 -0.042306
H	 -3.830160	 -0.871666	 0.919868

	symmetry c1
}
set optking {
	frozen_dihedral = ("
		15 12 14 18
	")
}

ee = optimize('scf')
oeprop('DIPOLE', 'QUADRUPOLE', 'MULLIKEN_CHARGES')
f=open( 'psi4out.xyz', 'w' )
f.write( "22  " )
f.write( str(ee) + "\n" )
f.write( MOL.save_string_xyz() )
f.close()
--------------------------------------------------------------------------

    Molecular point group: c1
  Charge       = 0
  Multiplicity = 1
  Basis Set: CC-PVTZ
  Basis Set:
  @DF-RHF Final Energy:  -290.48382860534753
    Total Energy =                       -290.4838286053478100
    Molecular point group: c1
  Basis Set: CC-PVTZ
  Basis Set:
  Basis Set: CC-PVTZ
  Basis Set:
  @DF-RHF Final Energy:  -290.48513052205629
    Total Energy =                       -290.4851305220563518
  Basis Set: CC-PVTZ
  Basis Set:
  Basis Set: CC-PVTZ
  Basis Set:
  @DF-RHF Final Energy:  -290.48592170078751
    Total Energy =                       -290.4859217007877987
  Basis Set: CC-PVTZ
  Basis Set:
  Basis Set: CC-PVTZ
  Basis Set:
  @DF-RHF Final Energy:  -290.48597598544103
    Total Energy =                       -290.4859759854412005
  Basis Set: CC-PVTZ
  Basis Set:
  Basis Set: CC-PVTZ
  Basis Set:
  @DF-RHF Final Energy:  -290.48597946928982
    Total Energy =                       -290.4859794692899868
  Basis Set: CC-PVTZ
  Basis Set:
  Charge       = 0
  Multiplicity = 1
  Basis Set: CC-PVTZ
  Basis Set:

    Orbital Energies (a.u.)
    -----------------------

    Doubly Occupied:

       1A    -15.529130     2A    -11.236875     3A    -11.236824
       4A    -11.212316     5A    -11.212276     6A    -11.207909
       7A    -11.200299     8A     -1.208300     9A     -1.058382
      10A     -1.022809    11A     -0.927476    12A     -0.879724
      13A     -0.806423    14A     -0.788872    15A     -0.663447
      16A     -0.632062    17A     -0.616959    18A     -0.608692
      19A     -0.574322    20A     -0.566363    21A     -0.533671
      22A     -0.529866    23A     -0.504225    24A     -0.488876
      25A     -0.483417    26A     -0.470394    27A     -0.461708
      28A     -0.451043    29A     -0.360776

  @DF-RHF Final Energy:  -290.48597961815562

   => Energetics <=

    Nuclear Repulsion Energy =            318.2630208726458250
    One-Electron Energy =               -1022.5511249154163806
    Two-Electron Energy =                 413.8021244246151014
    DFT Exchange-Correlation Energy =       0.0000000000000000
    Empirical Dispersion Energy =           0.0000000000000000
    PCM Polarization Energy =               0.0000000000000000
    EFP Energy =                            0.0000000000000000
    Total Energy =                       -290.4859796181554543
    Molecular point group: c1
  Basis Set: CC-PVTZ
  Basis Set:

  -Total Gradient:
     Atom            X                  Y                   Z
    ------   -----------------  -----------------  -----------------
       1        0.000005201174    -0.000006631149     0.000000978243
       2       -0.000003133547    -0.000013681536    -0.000001558241
       3        0.000008632812     0.000000446041     0.000006841848
       4        0.000001372729     0.000001092721    -0.000001364216
       5       -0.000003645607     0.000000453642    -0.000000094392
       6        0.000003560077     0.000006421592    -0.000013556357
       7        0.000000924034    -0.000002541749    -0.000004335161
       8        0.000001427751     0.000003576301     0.000004589768
       9       -0.000022882464    -0.000002047432     0.000016464951
      10       -0.000002285931    -0.000001710397    -0.000006677777
      11        0.000004063430    -0.000001890318     0.000003183754
      12       -0.003919384949    -0.005005997299     0.000889242056
      13        0.000005296245     0.000005302847     0.000005074559
      14       -0.003041680258    -0.004335029677    -0.003734763688
      15        0.003783908150     0.004915714613    -0.000143551416
      16       -0.000006271488     0.000004532579     0.000002662309
      17        0.000004078342    -0.000002660281    -0.000005738580
      18        0.003173584707     0.004433624874     0.002977970407
      19        0.000003360573    -0.000000316384     0.000001542206
      20        0.000000003001    -0.000001195242    -0.000001531015
      21        0.000004470889     0.000002904368     0.000003518667
      22       -0.000000599670    -0.000000368110     0.000001102076

  **** Optimization is complete! (in 6 steps) ****
    Final optimized geometry and variables:
    Molecular point group: c1

    Geometry (in Angstrom), charge = 0, multiplicity = 1:

    H            1.731163738706    -3.895035605207    -1.212128926261
    C            1.946820196633    -2.967747863653    -0.694681902578
    C            0.759294382497    -2.013779579547    -0.760653448106
    H            2.194899271029    -3.213561184284     0.332477751753
    H            2.829080584733    -2.532388065570    -1.151922129842
    C            1.019304784048    -0.697008506375    -0.044124906902
    H           -0.117383266032    -2.479391218361    -0.324345269934
    H            0.517034384508    -1.812423846861    -1.801497607726
    N           -0.132904124823     0.176247706705    -0.103632663499
    H            1.236956030762    -0.894356206545     1.001193592813
    H            1.914770467905    -0.227382869080    -0.462013997188
    C            0.060284904670     1.450940175824     0.549849220130
    H           -0.393972442789     0.322058322702    -1.056916323572
    C           -1.154224612248     2.380576199139     0.464165622345
    H            0.315328527784     1.284597550109     1.591782003888
    H            0.920931848141     1.987776079852     0.139250640526
    C           -2.511928191710     1.706020599284     0.619118397999
    H           -1.106382936822     2.962945785320    -0.452127664820
    H           -1.040036938154     3.119167650601     1.253054370318
    H           -2.716212324707     1.015923620182    -0.188296429170
    H           -3.301809615757     2.448724477243     0.635263952050
    H           -2.561229666329     1.143348782767     1.544513256178

  Mulliken Charges: (a.u.)
   Center  Symbol    Alpha    Beta     Spin     Total
       1     H     0.44762  0.44762  0.00000  0.10475
       2     C     3.15384  3.15384  0.00000 -0.30768
       3     C     3.08070  3.08070  0.00000 -0.16141
       4     H     0.45470  0.45470  0.00000  0.09060
       5     H     0.45609  0.45609  0.00000  0.08782
       6     C     3.02030  3.02030  0.00000 -0.04059
       7     H     0.44887  0.44887  0.00000  0.10226
       8     H     0.45979  0.45979  0.00000  0.08042
       9     N     3.63913  3.63913  0.00000 -0.27827
      10     H     0.45937  0.45937  0.00000  0.08126
      11     H     0.47495  0.47495  0.00000  0.05010
      12     C     3.03679  3.03679  0.00000 -0.07358
      13     H     0.44331  0.44331  0.00000  0.11337
      14     C     3.09673  3.09673  0.00000 -0.19345
      15     H     0.45673  0.45673  0.00000  0.08655
      16     H     0.46714  0.46714  0.00000  0.06573
      17     C     3.13837  3.13837  0.00000 -0.27673
      18     H     0.45228  0.45228  0.00000  0.09544
      19     H     0.45267  0.45267  0.00000  0.09465
      20     H     0.45432  0.45432  0.00000  0.09136
      21     H     0.45189  0.45189  0.00000  0.09622
      22     H     0.45441  0.45441  0.00000  0.09117

   Total alpha = 29.00000, Total beta = 29.00000, Total charge = -0.00000
