  ==> Input File <==

--------------------------------------------------------------------------
set {
	reference rhf
	basis 6-31G*
}

set_num_threads( 1 )
memory 2 gb

molecule MOL {
0 1

H	 2.104158	 -1.390007	 -0.130374
O	 1.654024	 -0.625927	 -0.460906
C	 1.135793	 0.118896	 0.612333
C	 0.031547	 1.023609	 0.088541
H	 1.915668	 0.729681	 1.063582
H	 0.754543	 -0.542641	 1.387006
C	 -1.134819	 0.293262	 -0.585751
H	 0.474374	 1.714721	 -0.623187
H	 -0.338529	 1.620940	 0.920081
C	 -1.917817	 -0.639439	 0.339494
H	 -0.758119	 -0.268455	 -1.433105
H	 -1.813832	 1.041889	 -0.986690
H	 -2.777680	 -1.057197	 -0.174994
H	 -1.310268	 -1.471279	 0.680599
H	 -2.283753	 -0.111424	 1.216626

	symmetry c1
}
set optking {
	frozen_dihedral = ("
		8 4 7 11,
		2 3 4 8
	")
}

ee = energy('scf')
oeprop('DIPOLE', 'QUADRUPOLE', 'MULLIKEN_CHARGES')
f=open( 'psi4out.xyz', 'w' )
f.write( "15  " )
f.write( str(ee) + "\n" )
f.write( MOL.save_string_xyz() )
f.close()
--------------------------------------------------------------------------

    Molecular point group: c1

    Geometry (in Angstrom), charge = 0, multiplicity = 1:

       Center              X                  Y                   Z               Mass
    ------------   -----------------  -----------------  -----------------  -----------------
           H          2.107297856697    -1.387477046263    -0.130614524024     1.007825032070
           O          1.657163856697    -0.623397046263    -0.461146524024    15.994914619560
           C          1.138932856697     0.121425953737     0.612092475976    12.000000000000
           C          0.034686856697     1.026138953737     0.088300475976    12.000000000000
           H          1.918807856697     0.732210953737     1.063341475976     1.007825032070
           H          0.757682856697    -0.540111046263     1.386765475976     1.007825032070
           C         -1.131679143303     0.295791953737    -0.585991524024    12.000000000000
           H          0.477513856697     1.717250953737    -0.623427524024     1.007825032070
           H         -0.335389143303     1.623469953737     0.919840475976     1.007825032070
           C         -1.914677143303    -0.636909046263     0.339253475976    12.000000000000
           H         -0.754979143303    -0.265925046263    -1.433345524024     1.007825032070
           H         -1.810692143303     1.044418953737    -0.986930524024     1.007825032070
           H         -2.774540143303    -1.054667046263    -0.175234524024     1.007825032070
           H         -1.307128143303    -1.468749046263     0.680358475976     1.007825032070
           H         -2.280613143303    -0.108894046263     1.216385475976     1.007825032070

  Charge       = 0
  Multiplicity = 1
  Basis Set: 6-31G*
  Basis Set:

    Orbital Energies (a.u.)
    -----------------------

    Doubly Occupied:

       1A    -20.553491     2A    -11.267580     3A    -11.212117
       4A    -11.208917     5A    -11.206000     6A     -1.360222
       7A     -1.063920     8A     -0.970614     9A     -0.869107
      10A     -0.774148    11A     -0.704875    12A     -0.648425
      13A     -0.607559    14A     -0.575102    15A     -0.562337
      16A     -0.533223    17A     -0.509194    18A     -0.474276
      19A     -0.466843    20A     -0.453491    21A     -0.429928

  @DF-RHF Final Energy:  -232.14342541941102

   => Energetics <=

    Nuclear Repulsion Energy =            192.0050283787699641
    One-Electron Energy =                -695.3942285553328020
    Two-Electron Energy =                 271.2457747571511391
    DFT Exchange-Correlation Energy =       0.0000000000000000
    Empirical Dispersion Energy =           0.0000000000000000
    PCM Polarization Energy =               0.0000000000000000
    EFP Energy =                            0.0000000000000000
    Total Energy =                       -232.1434254194116988

  Mulliken Charges: (a.u.)
   Center  Symbol    Alpha    Beta     Spin     Total
       1     H     0.28030  0.28030  0.00000  0.43939
       2     O     4.36975  4.36975  0.00000 -0.73950
       3     C     2.99939  2.99939  0.00000  0.00122
       4     C     3.16102  3.16102  0.00000 -0.32203
       5     H     0.42743  0.42743  0.00000  0.14515
       6     H     0.43125  0.43125  0.00000  0.13751
       7     C     3.15346  3.15346  0.00000 -0.30691
       8     H     0.41394  0.41394  0.00000  0.17212
       9     H     0.42494  0.42494  0.00000  0.15013
      10     C     3.24281  3.24281  0.00000 -0.48562
      11     H     0.40788  0.40788  0.00000  0.18424
      12     H     0.42273  0.42273  0.00000  0.15453
      13     H     0.41877  0.41877  0.00000  0.16245
      14     H     0.42191  0.42191  0.00000  0.15619
      15     H     0.42444  0.42444  0.00000  0.15113

   Total alpha = 21.00000, Total beta = 21.00000, Total charge =  0.00000
