  ==> Input File <==

--------------------------------------------------------------------------
set {
	reference rhf
	basis 6-31G*
}

set_num_threads( 1 )
memory 2 gb

molecule MOL {
0 1

O	 -0.682937	 1.318834	 -0.186099
C	 -0.860635	 0.152188	 -0.042321
C	 -2.173363	 -0.477127	 0.338347
O	 0.083258	 -0.765189	 -0.202595
H	 -2.477673	 -1.180929	 -0.427595
H	 -2.923125	 0.290956	 0.455536
H	 -2.058825	 -1.029004	 1.264191
C	 -0.194434	 -2.102549	 0.206246
C	 -0.939976	 -2.869934	 -0.869828
H	 -0.750969	 -2.082628	 1.130914
H	 0.777678	 -2.537415	 0.388975
H	 -1.069510	 -3.902777	 -0.561306
H	 -1.919244	 -2.441007	 -1.041363
H	 -0.383375	 -2.859657	 -1.800690

	symmetry c1
}
set optking {
	frozen_dihedral = ("
		10 8 4 2
	")
}

ee = energy('scf')
oeprop('DIPOLE', 'QUADRUPOLE', 'MULLIKEN_CHARGES')
f=open( 'psi4out.xyz', 'w' )
f.write( "14  " )
f.write( str(ee) + "\n" )
f.write( MOL.save_string_xyz() )
f.close()
--------------------------------------------------------------------------

    Molecular point group: c1

    Geometry (in Angstrom), charge = 0, multiplicity = 1:

       Center              X                  Y                   Z               Mass
    ------------   -----------------  -----------------  -----------------  -----------------
           O          0.117748496311     2.120392868527    -0.058632164091    15.994914619560
           C         -0.059949503689     0.953746868527     0.085145835909    12.000000000000
           C         -1.372677503689     0.324431868527     0.465813835909    12.000000000000
           O          0.883943496311     0.036369868527    -0.075128164091    15.994914619560
           H         -1.676987503689    -0.379370131473    -0.300128164091     1.007825032070
           H         -2.122439503689     1.092514868527     0.583002835909     1.007825032070
           H         -1.258139503689    -0.227445131473     1.391657835909     1.007825032070
           C          0.606251496311    -1.300990131473     0.333712835909    12.000000000000
           C         -0.139290503689    -2.068375131473    -0.742361164091    12.000000000000
           H          0.049716496311    -1.281069131473     1.258380835909     1.007825032070
           H          1.578363496311    -1.735856131473     0.516441835909     1.007825032070
           H         -0.268824503689    -3.101218131473    -0.433839164091     1.007825032070
           H         -1.118558503689    -1.639448131473    -0.913896164091     1.007825032070
           H          0.417310496311    -2.058098131473    -1.673223164091     1.007825032070

  Charge       = 0
  Multiplicity = 1
  Basis Set: 6-31G*
  Basis Set:

    Orbital Energies (a.u.)
    -----------------------

    Doubly Occupied:

       1A    -20.605888     2A    -20.542298     3A    -11.377220
       4A    -11.303192     5A    -11.236090     6A    -11.235817
       7A     -1.466881     8A     -1.368239     9A     -1.057333
      10A     -1.025580    11A     -0.901923    12A     -0.778285
      13A     -0.708687    14A     -0.696350    15A     -0.663657
      16A     -0.632651    17A     -0.600547    18A     -0.584818
      19A     -0.558162    20A     -0.541100    21A     -0.531671
      22A     -0.497683    23A     -0.446997    24A     -0.433046

  @DF-RHF Final Energy:  -305.83484278705282

   => Energetics <=

    Nuclear Repulsion Energy =            252.7676995835137461
    One-Electron Energy =                -917.6168306285283052
    Two-Electron Energy =                 359.0142882579612547
    DFT Exchange-Correlation Energy =       0.0000000000000000
    Empirical Dispersion Energy =           0.0000000000000000
    PCM Polarization Energy =               0.0000000000000000
    EFP Energy =                            0.0000000000000000
    Total Energy =                       -305.8348427870533328

  Mulliken Charges: (a.u.)
   Center  Symbol    Alpha    Beta     Spin     Total
       1     O     4.27161  4.27161  0.00000 -0.54323
       2     C     2.60480  2.60480  0.00000  0.79040
       3     C     3.32064  3.32064  0.00000 -0.64128
       4     O     4.30010  4.30010  0.00000 -0.60019
       5     H     0.40269  0.40269  0.00000  0.19461
       6     H     0.38853  0.38853  0.00000  0.22294
       7     H     0.40240  0.40240  0.00000  0.19521
       8     C     3.01422  3.01422  0.00000 -0.02843
       9     C     3.25425  3.25425  0.00000 -0.50850
      10     H     0.41501  0.41501  0.00000  0.16997
      11     H     0.39575  0.39575  0.00000  0.20851
      12     H     0.41368  0.41368  0.00000  0.17265
      13     H     0.41344  0.41344  0.00000  0.17313
      14     H     0.40289  0.40289  0.00000  0.19421

   Total alpha = 24.00000, Total beta = 24.00000, Total charge = -0.00000
