  ==> Input File <==

--------------------------------------------------------------------------
set {
	reference rhf
	basis cc-pvtz
}

set_num_threads( 4 )
memory 2 gb

molecule MOL {
0 1

O	 0.109247	 0.310636	 1.901503
C	 -0.233598	 -0.391230	 1.012840
C	 -1.592730	 -1.017376	 0.884933
O	 0.550743	 -0.719877	 0.000412
H	 -2.053765	 -0.698111	 -0.040767
H	 -2.204135	 -0.728203	 1.724037
H	 -1.493940	 -2.094572	 0.848544
C	 1.863204	 -0.194033	 0.000410
H	 2.031502	 0.409177	 -0.879273
H	 2.524488	 -1.045142	 0.000793
H	 2.031291	 0.409823	 0.879686

	symmetry c1
}
set optking {
	frozen_dihedral = ("
		2 4 8 9
	")
}

ee = optimize('scf')
oeprop('DIPOLE', 'QUADRUPOLE', 'MULLIKEN_CHARGES')
f=open( 'psi4out.xyz', 'w' )
f.write( "11  " )
f.write( str(ee) + "\n" )
f.write( MOL.save_string_xyz() )
f.close()
--------------------------------------------------------------------------

    Molecular point group: c1
  Charge       = 0
  Multiplicity = 1
  Basis Set: CC-PVTZ
  Basis Set:
  @DF-RHF Final Energy:  -266.93622857932814
    Total Energy =                       -266.9362285793279170
    Molecular point group: c1
  Basis Set: CC-PVTZ
  Basis Set:
  Basis Set: CC-PVTZ
  Basis Set:
  @DF-RHF Final Energy:  -266.93666965326986
    Total Energy =                       -266.9366696532699166
  Basis Set: CC-PVTZ
  Basis Set:
  Basis Set: CC-PVTZ
  Basis Set:
  @DF-RHF Final Energy:  -266.93707748174813
    Total Energy =                       -266.9370774817479059
  Basis Set: CC-PVTZ
  Basis Set:
  Basis Set: CC-PVTZ
  Basis Set:
  @DF-RHF Final Energy:  -266.93656972225671
    Total Energy =                       -266.9365697222566496
  Basis Set: CC-PVTZ
  Basis Set:
  Basis Set: CC-PVTZ
  Basis Set:
  @DF-RHF Final Energy:  -266.93717733703272
    Total Energy =                       -266.9371773370324377
  Basis Set: CC-PVTZ
  Basis Set:
  Charge       = 0
  Multiplicity = 1
  Basis Set: CC-PVTZ
  Basis Set:

    Orbital Energies (a.u.)
    -----------------------

    Doubly Occupied:

       1A    -20.597625     2A    -20.534562     3A    -11.370247
       4A    -11.278400     5A    -11.232567     6A     -1.471535
       7A     -1.368298     8A     -1.037014     9A     -0.954084
      10A     -0.779001    11A     -0.699486    12A     -0.682068
      13A     -0.680978    14A     -0.598115    15A     -0.592674
      16A     -0.561516    17A     -0.531077    18A     -0.520421
      19A     -0.458165    20A     -0.446270

  @DF-RHF Final Energy:  -266.93717961222615

   => Energetics <=

    Nuclear Repulsion Energy =            183.2268642624596566
    One-Electron Energy =                -727.5398888651972129
    Two-Electron Energy =                 277.3758449905114389
    DFT Exchange-Correlation Energy =       0.0000000000000000
    Empirical Dispersion Energy =           0.0000000000000000
    PCM Polarization Energy =               0.0000000000000000
    EFP Energy =                            0.0000000000000000
    Total Energy =                       -266.9371796122260889
    Molecular point group: c1
  Basis Set: CC-PVTZ
  Basis Set:

  -Total Gradient:
     Atom            X                  Y                   Z
    ------   -----------------  -----------------  -----------------
       1       -0.000050791498    -0.000012589043     0.000003842494
       2        0.000094778830    -0.000010224697     0.000058956618
       3        0.000037588912     0.000008386743    -0.000021267481
       4       -0.000028810108     0.000012658760    -0.000121498706
       5        0.000011511324     0.000005222373     0.000006038103
       6       -0.000001275963     0.000007351040     0.000010115103
       7        0.000012525649     0.000005983080     0.000004112005
       8       -0.000074475199     0.000000007222     0.000055331479
       9        0.000012380833    -0.000044390968    -0.000021639113
      10       -0.000015424989     0.000010498631     0.000008505477
      11        0.000001992205     0.000017096857     0.000017504024

  **** Optimization is complete! (in 6 steps) ****
    Final optimized geometry and variables:
    Molecular point group: c1

    Geometry (in Angstrom), charge = 0, multiplicity = 1:

    O           -0.084726359399     0.711838458651     1.170448746115
    C           -0.396639661315     0.013771221698     0.268135775338
    C           -1.747735032927    -0.623462308676     0.108831428706
    O            0.401850822577    -0.309212561409    -0.736868061046
    H           -2.192146898857    -0.302293550730    -0.824247269856
    H           -2.378530722258    -0.344902568869     0.937112906395
    H           -1.638213940009    -1.699394769850     0.067576326276
    C            1.725080218335     0.192289963992    -0.770328791232
    H            1.840081710766     0.775169170009    -1.672431739507
    H            2.400233211341    -0.650257403795    -0.798584509491
    H            1.928048769480     0.801637619363     0.093023201780

  Mulliken Charges: (a.u.)
   Center  Symbol    Alpha    Beta     Spin     Total
       1     O     4.19707  4.19707  0.00000 -0.39414
       2     C     2.79774  2.79774  0.00000  0.40453
       3     C     3.13942  3.13942  0.00000 -0.27885
       4     O     4.15015  4.15015  0.00000 -0.30029
       5     H     0.44569  0.44569  0.00000  0.10861
       6     H     0.43802  0.43802  0.00000  0.12396
       7     H     0.44572  0.44572  0.00000  0.10855
       8     C     3.03751  3.03751  0.00000 -0.07502
       9     H     0.45306  0.45306  0.00000  0.09387
      10     H     0.45279  0.45279  0.00000  0.09441
      11     H     0.44282  0.44282  0.00000  0.11436

   Total alpha = 20.00000, Total beta = 20.00000, Total charge =  0.00000
