  ==> Input File <==

--------------------------------------------------------------------------
set {
	reference rhf
	basis cc-pvtz
}

set_num_threads( 4 )
memory 2 gb

molecule MOL {
0 1

H	 -2.698799	 -0.000846	 0.036018
C	 -1.694291	 -0.000483	 0.434279
O	 -0.828718	 -0.000608	 -0.655022
H	 -1.576855	 0.881100	 1.056504
H	 -1.576401	 -0.881658	 1.057001
C	 -1.356248	 0.212765	 -1.941125
C	 -2.311614	 -0.893942	 -2.373266
C	 -1.967583	 1.600240	 -2.100593
H	 -0.482368	 0.161917	 -2.578593
H	 -1.860922	 -1.865428	 -2.211553
H	 -2.535835	 -0.794338	 -3.428989
H	 -3.251686	 -0.857219	 -1.835214
H	 -1.278289	 2.358466	 -1.749863
H	 -2.179411	 1.790494	 -3.146397
H	 -2.898453	 1.703169	 -1.555223

	symmetry c1
}
set optking {
	frozen_dihedral = ("
		6 3 2 1
	")
}

ee = optimize('scf')
oeprop('DIPOLE', 'QUADRUPOLE', 'MULLIKEN_CHARGES')
f=open( 'psi4out.xyz', 'w' )
f.write( "15  " )
f.write( str(ee) + "\n" )
f.write( MOL.save_string_xyz() )
f.close()
--------------------------------------------------------------------------

    Molecular point group: c1
  Charge       = 0
  Multiplicity = 1
  Basis Set: CC-PVTZ
  Basis Set:
  @DF-RHF Final Energy:  -232.22177275063564
    Total Energy =                       -232.2217727506356937
    Molecular point group: c1
  Basis Set: CC-PVTZ
  Basis Set:
  Basis Set: CC-PVTZ
  Basis Set:
  @DF-RHF Final Energy:  -232.22334018905198
    Total Energy =                       -232.2233401890518962
  Basis Set: CC-PVTZ
  Basis Set:
  Basis Set: CC-PVTZ
  Basis Set:
  @DF-RHF Final Energy:  -232.22397705708937
    Total Energy =                       -232.2239770570892574
  Basis Set: CC-PVTZ
  Basis Set:
  Basis Set: CC-PVTZ
  Basis Set:
  @DF-RHF Final Energy:  -232.22394041634684
    Total Energy =                       -232.2239404163468635
  Basis Set: CC-PVTZ
  Basis Set:
  Basis Set: CC-PVTZ
  Basis Set:
  @DF-RHF Final Energy:  -232.22400441144384
    Total Energy =                       -232.2240044114437296
  Basis Set: CC-PVTZ
  Basis Set:
  Basis Set: CC-PVTZ
  Basis Set:
  @DF-RHF Final Energy:  -232.22401105997642
    Total Energy =                       -232.2240110599762488
  Basis Set: CC-PVTZ
  Basis Set:
  Charge       = 0
  Multiplicity = 1
  Basis Set: CC-PVTZ
  Basis Set:

    Orbital Energies (a.u.)
    -----------------------

    Doubly Occupied:

       1A    -20.539506     2A    -11.273243     3A    -11.258928
       4A    -11.208827     5A    -11.208384     6A     -1.371194
       7A     -1.051011     8A     -0.940375     9A     -0.931737
      10A     -0.781816    11A     -0.677165    12A     -0.640342
      13A     -0.633678    14A     -0.570374    15A     -0.563647
      16A     -0.552475    17A     -0.537993    18A     -0.501283
      19A     -0.498579    20A     -0.443523    21A     -0.406007

  @DF-RHF Final Energy:  -232.22401116138226

   => Energetics <=

    Nuclear Repulsion Energy =            198.8772819061294683
    One-Electron Energy =                -709.0224103724802944
    Two-Electron Energy =                 277.9211173049685044
    DFT Exchange-Correlation Energy =       0.0000000000000000
    Empirical Dispersion Energy =           0.0000000000000000
    PCM Polarization Energy =               0.0000000000000000
    EFP Energy =                            0.0000000000000000
    Total Energy =                       -232.2240111613822933
    Molecular point group: c1
  Basis Set: CC-PVTZ
  Basis Set:

  -Total Gradient:
     Atom            X                  Y                   Z
    ------   -----------------  -----------------  -----------------
       1        0.000029139692     0.001060722342     0.000020519913
       2       -0.000137717108    -0.001805299043    -0.000072063855
       3        0.000259722735     0.001574898954     0.000140291969
       4       -0.000000847121    -0.000006616421     0.000006429153
       5       -0.000000971822     0.000006261390     0.000007065955
       6       -0.000131101757    -0.000841144853    -0.000052044118
       7        0.000001850284    -0.000000040513    -0.000004229141
       8       -0.000009832265     0.000008438049    -0.000020076746
       9       -0.000010674258    -0.000003377703    -0.000002940274
      10        0.000004391651    -0.000001618447    -0.000008059394
      11       -0.000001606840     0.000005181991    -0.000000355404
      12        0.000001439927     0.000002411062     0.000000062681
      13        0.000006053645    -0.000005519898    -0.000010801413
      14       -0.000009741875     0.000005715735    -0.000005266952
      15       -0.000000104889    -0.000000012646     0.000001467624

  **** Optimization is complete! (in 7 steps) ****
    Final optimized geometry and variables:
    Molecular point group: c1

    Geometry (in Angstrom), charge = 0, multiplicity = 1:

    H           -1.118072367584    -0.123576807677     1.457542165224
    C           -0.075765704680    -0.160117966254     1.747399311946
    O            0.795556152439    -0.197622895719     0.657853388979
    H            0.128700888826     0.712439444327     2.359054518296
    H            0.077728045229    -1.045506561507     2.351678141044
    C            0.293352920083     0.026736792474    -0.635811292892
    C           -0.647857598916    -1.082118157476    -1.092627633160
    C           -0.313613066183     1.416468152272    -0.790911459761
    H            1.178401312987    -0.017583535551    -1.258204781384
    H           -0.177811067015    -2.048610006747    -0.959590256071
    H           -0.883861241659    -0.959081958188    -2.143536138365
    H           -1.583236802579    -1.079165349089    -0.545130999901
    H            0.389493492628     2.171189259229    -0.460603583091
    H           -0.552327213545     1.605154135844    -1.831293445493
    H           -1.227775711204     1.528258823229    -0.219037107075

  Mulliken Charges: (a.u.)
   Center  Symbol    Alpha    Beta     Spin     Total
       1     H     0.46938  0.46938  0.00000  0.06125
       2     C     3.03852  3.03852  0.00000 -0.07705
       3     O     4.18761  4.18761  0.00000 -0.37521
       4     H     0.45695  0.45695  0.00000  0.08609
       5     H     0.45036  0.45036  0.00000  0.09928
       6     C     2.93947  2.93947  0.00000  0.12106
       7     C     3.15475  3.15475  0.00000 -0.30950
       8     C     3.15490  3.15490  0.00000 -0.30980
       9     H     0.44606  0.44606  0.00000  0.10789
      10     H     0.44484  0.44484  0.00000  0.11033
      11     H     0.45085  0.45085  0.00000  0.09829
      12     H     0.45537  0.45537  0.00000  0.08926
      13     H     0.44499  0.44499  0.00000  0.11003
      14     H     0.45023  0.45023  0.00000  0.09954
      15     H     0.45573  0.45573  0.00000  0.08854

   Total alpha = 21.00000, Total beta = 21.00000, Total charge =  0.00000
