  ==> Input File <==

--------------------------------------------------------------------------
set {
	reference rhf
	basis 6-31G*
}

set_num_threads( 4 )
memory 2 gb

molecule MOL {
0 1

H	 -1.073232	 -0.398958	 0.648870
C	 -0.790252	 0.431209	 0.000000
N	 0.538815	 0.649616	 0.000000
O	 -1.600335	 1.051087	 -0.623479
C	 1.521968	 -0.411503	 0.000000
H	 0.852804	 1.592852	 0.000000
H	 2.150599	 -0.357004	 -0.881901
H	 0.999455	 -1.354525	 0.000000
H	 2.150599	 -0.357004	 0.881901

	symmetry c1
}
set optking {
	frozen_dihedral = ("
		1 2 3 6
	")
}

ee = optimize('scf')
oeprop('DIPOLE', 'QUADRUPOLE', 'MULLIKEN_CHARGES')
f=open( 'psi4out.xyz', 'w' )
f.write( "9  " )
f.write( str(ee) + "\n" )
f.write( MOL.save_string_xyz() )
f.close()
--------------------------------------------------------------------------

    Molecular point group: c1
  Charge       = 0
  Multiplicity = 1
  Basis Set: 6-31G*
  Basis Set:
  @DF-RHF Final Energy:  -207.94325265598604
    Total Energy =                       -207.9432526559860150
    Molecular point group: c1
  Basis Set: 6-31G*
  Basis Set:
  Basis Set: 6-31G*
  Basis Set:
  @DF-RHF Final Energy:  -207.94608839130035
    Total Energy =                       -207.9460883913004920
  Basis Set: 6-31G*
  Basis Set:
  Basis Set: 6-31G*
  Basis Set:
  @DF-RHF Final Energy:  -207.94996604910165
    Total Energy =                       -207.9499660491017039
  Basis Set: 6-31G*
  Basis Set:
  Basis Set: 6-31G*
  Basis Set:
  @DF-RHF Final Energy:  -207.95191028079364
    Total Energy =                       -207.9519102807936974
  Basis Set: 6-31G*
  Basis Set:
  @DF-RHF Final Energy:  -207.95216813137057
    Total Energy =                       -207.9521681313705699
  @DF-RHF Final Energy:  -207.95229139260658
    Total Energy =                       -207.9522913926065826
  @DF-RHF Final Energy:  -207.95238203996027
    Total Energy =                       -207.9523820399602130
  @DF-RHF Final Energy:  -207.95246691538142
    Total Energy =                       -207.9524669153813647
  @DF-RHF Final Energy:  -207.95264513690364
    Total Energy =                       -207.9526451369036408
  @DF-RHF Final Energy:  -207.95269230461409
    Total Energy =                       -207.9526923046141178
  @DF-RHF Final Energy:  -207.95269483642511
    Total Energy =                       -207.9526948364251382
  @DF-RHF Final Energy:  -207.95269510593880
    Total Energy =                       -207.9526951059388580
  @DF-RHF Final Energy:  -207.94839899465211
    Total Energy =                       -207.9483989946521092
  @DF-RHF Final Energy:  -207.94720246972435
    Total Energy =                       -207.9472024697244024
  @DF-RHF Final Energy:  -207.95265040431428
    Total Energy =                       -207.9526504043142268
  @DF-RHF Final Energy:  -207.95269574495381
    Total Energy =                       -207.9526957449538713
  @DF-RHF Final Energy:  -207.95269736873888
    Total Energy =                       -207.9526973687388818
  @DF-RHF Final Energy:  -207.95269817096164
    Total Energy =                       -207.9526981709616393
  @DF-RHF Final Energy:  -207.95269898870725
    Total Energy =                       -207.9526989887073114
  @DF-RHF Final Energy:  -207.95269910506434
    Total Energy =                       -207.9526991050643971
  @DF-RHF Final Energy:  -207.95270126584057
    Total Energy =                       -207.9527012658405738
  @DF-RHF Final Energy:  -207.95270232630736
    Total Energy =                       -207.9527023263073318
  @DF-RHF Final Energy:  -207.95270246604582
    Total Energy =                       -207.9527024660458210
  @DF-RHF Final Energy:  -207.95270253589337
    Total Energy =                       -207.9527025358934225
  @DF-RHF Final Energy:  -207.95270256408975
    Total Energy =                       -207.9527025640897477
  @DF-RHF Final Energy:  -207.95270257073059
    Total Energy =                       -207.9527025707306507
  @DF-RHF Final Energy:  -207.95270256101850
    Total Energy =                       -207.9527025610184978
  @DF-RHF Final Energy:  -207.95269902837080
    Total Energy =                       -207.9526990283708869
  @DF-RHF Final Energy:  -207.95270257609675
    Total Energy =                       -207.9527025760967263
  @DF-RHF Final Energy:  -207.95270257920106
    Total Energy =                       -207.9527025792009738
  @DF-RHF Final Energy:  -207.95270258194114
    Total Energy =                       -207.9527025819411392
  @DF-RHF Final Energy:  -207.95270255338522
    Total Energy =                       -207.9527025533852793
  @DF-RHF Final Energy:  -207.95270227268287
    Total Energy =                       -207.9527022726828136
  @DF-RHF Final Energy:  -207.95270192584695
    Total Energy =                       -207.9527019258469522
  @DF-RHF Final Energy:  -207.95270257548242
    Total Energy =                       -207.9527025754824194
  @DF-RHF Final Energy:  -207.95270256231237
    Total Energy =                       -207.9527025623123677
  Basis Set: 6-31G*
  Basis Set:
  @DF-RHF Final Energy:  -207.95270252799756
    Total Energy =                       -207.9527025279976442
  Basis Set: 6-31G*
  Basis Set:
  Basis Set: 6-31G*
  Basis Set:
  @DF-RHF Final Energy:  -207.95270246835719
    Total Energy =                       -207.9527024683571312
  Basis Set: 6-31G*
  Basis Set:
  Basis Set: 6-31G*
  Basis Set:
  @DF-RHF Final Energy:  -207.95270223582600
    Total Energy =                       -207.9527022358259387
  Basis Set: 6-31G*
  Basis Set:
  Charge       = 0
  Multiplicity = 1
  Basis Set: 6-31G*
  Basis Set:

    Orbital Energies (a.u.)
    -----------------------

    Doubly Occupied:

       1A    -20.537912     2A    -15.586012     3A    -11.348432
       4A    -11.271868     5A     -1.398989     6A     -1.239488
       7A     -0.959032     8A     -0.841854     9A     -0.693877
      10A     -0.678336    11A     -0.637089    12A     -0.588254
      13A     -0.567355    14A     -0.541732    15A     -0.432242
      16A     -0.396735

  @DF-RHF Final Energy:  -207.95268187181171

   => Energetics <=

    Nuclear Repulsion Energy =            120.3888444492511809
    One-Electron Energy =                -521.2446362108447602
    Two-Electron Energy =                 192.9031098897818310
    DFT Exchange-Correlation Energy =       0.0000000000000000
    Empirical Dispersion Energy =           0.0000000000000000
    PCM Polarization Energy =               0.0000000000000000
    EFP Energy =                            0.0000000000000000
    Total Energy =                       -207.9526818718117624
    Molecular point group: c1
  Basis Set: 6-31G*
  Basis Set:

  -Total Gradient:
     Atom            X                  Y                   Z
    ------   -----------------  -----------------  -----------------
       1        0.002022567695     0.004740739215     0.009028272473
       2       -0.001387063236    -0.006461417721    -0.009674092582
       3       -0.002722954576     0.005876622286    -0.009101547487
       4        0.000390391020    -0.000443726366     0.000168783878
       5       -0.002150983743     0.001583165572     0.001171710583
       6        0.002439254482    -0.003977322305     0.009850904726
       7        0.000559701521    -0.000342222061    -0.000204644736
       8        0.000628338750    -0.000245505680     0.000065759677
       9        0.000220748089    -0.000730332941    -0.001305146532

    Molecular point group: c1

    Geometry (in Angstrom), charge = 0, multiplicity = 1:

    H           -0.880023690822    -0.917727889139     0.740640787179
    C           -0.695438713212    -0.021556723010     0.144216256836
    N            0.603138496507     0.114219761984    -0.259634712039
    O           -1.548958705413     0.785900056667    -0.046392288573
    C            1.586599020219    -0.881144077766     0.124195184004
    H            0.931101112932     1.055875248345    -0.211125234906
    H            2.463457871484    -0.770091103774    -0.499589058424
    H            1.186218126452    -1.871773750629    -0.048010128845
    H            1.891234650466    -0.807792310817     1.165889508772

  Mulliken Charges: (a.u.)
   Center  Symbol    Alpha    Beta     Spin     Total
       1     H     0.42962  0.42962  0.00000  0.14075
       2     C     2.74843  2.74843  0.00000  0.50314
       3     N     3.85970  3.85970  0.00000 -0.71940
       4     O     4.27033  4.27033  0.00000 -0.54066
       5     C     3.15502  3.15502  0.00000 -0.31003
       6     H     0.30770  0.30770  0.00000  0.38461
       7     H     0.40433  0.40433  0.00000  0.19133
       8     H     0.40761  0.40761  0.00000  0.18479
       9     H     0.41727  0.41727  0.00000  0.16547

   Total alpha = 16.00000, Total beta = 16.00000, Total charge =  0.00000
