                              Psi4 1.0.54 Driver

  ==> Input File <==

--------------------------------------------------------------------------
set {
	reference rhf
	basis cc-pvtz
}

set_num_threads( 4 )
memory 2 gb

molecule MOL {
0 1

H	 -1.121859	 -0.713851	 0.470511
N	 -0.712187	 0.000026	 -0.093397
C	 0.734067	 -0.000020	 0.038424
H	 -1.097822	 0.869684	 0.207310
H	 1.140372	 -0.872115	 -0.458226
H	 1.140363	 0.872301	 -0.457869
H	 1.095085	 -0.000244	 1.065614

	symmetry c1
}
set optking {
	frozen_dihedral = ("
		1 2 3 7
	")
}

ee,wfn = optimize('scf', return_wfn=True)
oeprop( wfn, 'DIPOLE', 'QUADRUPOLE', 'MULLIKEN_CHARGES')
f=open( 'psi4out.xyz', 'w' )
f.write( "7  " )
f.write( str(ee) + "\n" )
f.write( MOL.save_string_xyz() )
f.close()
--------------------------------------------------------------------------

    Molecular point group: c1
  Charge       = 0
  Multiplicity = 1
  Basis Set: CC-PVTZ
  Basis Set:
  @DF-RHF Final Energy:   -95.25355718961245
    Total Energy =                        -95.2535571896124651
    Molecular point group: c1
  Basis Set: CC-PVTZ
  Basis Set:
  Basis Set: CC-PVTZ
  Basis Set:
  @DF-RHF Final Energy:   -95.25357029960188
    Total Energy =                        -95.2535702996019609
  Basis Set: CC-PVTZ
  Basis Set:
  Charge       = 0
  Multiplicity = 1
  Basis Set: CC-PVTZ
  Basis Set:

    Orbital Energies (a.u.)
    -----------------------

    Doubly Occupied:

       1A    -15.528932     2A    -11.235617     3A     -1.172475
       4A     -0.897229     5A     -0.665251     6A     -0.603506
       7A     -0.558325     8A     -0.517298     9A     -0.387614

  @DF-RHF Final Energy:   -95.25357096553846

   => Energetics <=

    Nuclear Repulsion Energy =             42.3818599498333555
    One-Electron Energy =                -212.1383677239958843
    Two-Electron Energy =                  74.5029368086240567
    DFT Exchange-Correlation Energy =       0.0000000000000000
    Empirical Dispersion Energy =           0.0000000000000000
    PCM Polarization Energy =               0.0000000000000000
    EFP Energy =                            0.0000000000000000
    Total Energy =                        -95.2535709655384579
    Molecular point group: c1
  Basis Set: CC-PVTZ
  Basis Set:

  -Total Gradient:
     Atom            X                  Y                   Z
    ------   -----------------  -----------------  -----------------
       1       -0.000059255666     0.000863368045     0.000972189112
       2        0.000171914710    -0.001395308682    -0.001238445035
       3       -0.000163035668     0.001795702151     0.000262721154
       4        0.000015342847    -0.000021305894    -0.000003576991
       5        0.000024130370    -0.000002951630     0.000006740451
       6       -0.000028012022    -0.000004332613    -0.000009483610
       7        0.000038915428    -0.001235171377     0.000009854919

  **** Optimization is complete! (in 3 steps) ****
    Final optimized geometry and variables:
    Molecular point group: c1

    Geometry (in Angstrom), charge = 0, multiplicity = 1:

    H           -1.121860589427    -0.719494844732     0.469013945859
    N           -0.712630098704    -0.004920885731    -0.094801309734
    C            0.734165582422    -0.004548033986     0.039602618393
    H           -1.095264765780     0.861486677054     0.219751089861
    H            1.143243513860    -0.879619383558    -0.450633527114
    H            1.141669721503     0.864805320596    -0.460208605204
    H            1.092160507635    -0.004652597859     1.067738107313

  Mulliken Charges: (a.u.)
   Center  Symbol    Alpha    Beta     Spin     Total
       1     H     0.42932  0.42932  0.00000  0.14137
       2     N     3.68573  3.68573  0.00000 -0.37146
       3     C     3.07153  3.07153  0.00000 -0.14307
       4     H     0.42882  0.42882  0.00000  0.14237
       5     H     0.45634  0.45634  0.00000  0.08732
       6     H     0.45615  0.45615  0.00000  0.08769
       7     H     0.47211  0.47211  0.00000  0.05578

   Total alpha =  9.00000, Total beta =  9.00000, Total charge =  0.00000

*** Psi4 exiting successfully. Buy a developer a beer!
