                              Psi4 1.0.54 Driver

  ==> Input File <==

--------------------------------------------------------------------------
set {
	reference rhf
	basis cc-pvtz
}

set_num_threads( 4 )
memory 2 gb

molecule MOL {
0 1

O	 -2.440701	 -0.934798	 -0.415053
C	 -1.922978	 0.063265	 -0.045005
C	 -2.632749	 1.372204	 0.158357
O	 -0.637375	 0.157174	 0.243149
H	 -2.187724	 2.129143	 -0.474664
H	 -3.677681	 1.257276	 -0.079438
H	 -2.516788	 1.693160	 1.185542
C	 0.162530	 -1.009518	 0.097799
C	 1.587210	 -0.664190	 0.477086
H	 0.096803	 -1.356267	 -0.924704
H	 -0.233803	 -1.785900	 0.736810
C	 2.256770	 0.342732	 -0.454344
H	 2.154716	 -1.590834	 0.479041
H	 1.598751	 -0.289614	 1.496104
C	 2.656724	 1.629242	 0.260181
H	 3.138187	 -0.113206	 -0.897425
H	 1.586080	 0.576398	 -1.273136
H	 3.132692	 2.323666	 -0.422178
H	 3.352880	 1.430439	 1.068412
H	 1.790899	 2.125475	 0.685758

	symmetry c1
}
set optking {
	frozen_dihedral = ("
		16 12 9 8
	")
}

ee,wfn = optimize('scf', return_wfn=True)
oeprop( wfn, 'DIPOLE', 'QUADRUPOLE', 'MULLIKEN_CHARGES')
f=open( 'psi4out.xyz', 'w' )
f.write( "20  " )
f.write( str(ee) + "\n" )
f.write( MOL.save_string_xyz() )
f.close()
--------------------------------------------------------------------------

    Molecular point group: c1
  Charge       = 0
  Multiplicity = 1
  Basis Set: CC-PVTZ
  Basis Set:
  @DF-RHF Final Energy:  -384.08214557994614
    Total Energy =                       -384.0821455799464275
    Molecular point group: c1
  Basis Set: CC-PVTZ
  Basis Set:
  Basis Set: CC-PVTZ
  Basis Set:
  @DF-RHF Final Energy:  -384.08240053243810
    Total Energy =                       -384.0824005324382142
  Basis Set: CC-PVTZ
  Basis Set:
  Basis Set: CC-PVTZ
  Basis Set:
  @DF-RHF Final Energy:  -384.08239269283411
    Total Energy =                       -384.0823926928344463
  Basis Set: CC-PVTZ
  Basis Set:
  Basis Set: CC-PVTZ
  Basis Set:
  @DF-RHF Final Energy:  -384.08247922490079
    Total Energy =                       -384.0824792249004531
  Basis Set: CC-PVTZ
  Basis Set:
  Basis Set: CC-PVTZ
  Basis Set:
  @DF-RHF Final Energy:  -384.08248684304482
    Total Energy =                       -384.0824868430451033
  Basis Set: CC-PVTZ
  Basis Set:
  Basis Set: CC-PVTZ
  Basis Set:
  @DF-RHF Final Energy:  -384.08249340941188
    Total Energy =                       -384.0824934094121090
  Basis Set: CC-PVTZ
  Basis Set:
  Charge       = 0
  Multiplicity = 1
  Basis Set: CC-PVTZ
  Basis Set:

    Orbital Energies (a.u.)
    -----------------------

    Doubly Occupied:

       1A    -20.594801     2A    -20.533046     3A    -11.367042
       4A    -11.280441     5A    -11.232019     6A    -11.223359
       7A    -11.219433     8A    -11.209722     9A     -1.471364
      10A     -1.365555    11A     -1.084808    12A     -1.028288
      13A     -0.982133    14A     -0.882157    15A     -0.809965
      16A     -0.778478    17A     -0.693499    18A     -0.687582
      19A     -0.670127    20A     -0.621922    21A     -0.605796
      22A     -0.596235    23A     -0.576027    24A     -0.554529
      25A     -0.539496    26A     -0.534399    27A     -0.513838
      28A     -0.481007    29A     -0.476160    30A     -0.469600
      31A     -0.452622    32A     -0.441855

  @DF-RHF Final Energy:  -384.08249360730440

   => Energetics <=

    Nuclear Repulsion Energy =            390.3318559041882736
    One-Electron Energy =               -1296.8740881893470487
    Two-Electron Energy =                 522.4597386778540340
    DFT Exchange-Correlation Energy =       0.0000000000000000
    Empirical Dispersion Energy =           0.0000000000000000
    PCM Polarization Energy =               0.0000000000000000
    EFP Energy =                            0.0000000000000000
    Total Energy =                       -384.0824936073047411
    Molecular point group: c1
  Basis Set: CC-PVTZ
  Basis Set:

  -Total Gradient:
     Atom            X                  Y                   Z
    ------   -----------------  -----------------  -----------------
       1        0.000005604373    -0.000023684137     0.000005251430
       2        0.000009973979     0.000074730689    -0.000017532374
       3       -0.000011204842    -0.000013325135     0.000008155189
       4       -0.000021535409    -0.000025372346     0.000005000249
       5        0.000000713958    -0.000008557078     0.000003797982
       6       -0.000004477832     0.000004422273     0.000000710774
       7        0.000000866376    -0.000001153296    -0.000006831132
       8        0.000087196621    -0.000189610221    -0.000138558885
       9       -0.000150364734     0.000220839973     0.000157482961
      10       -0.000008343212    -0.000013506088    -0.000015571393
      11        0.000009555830     0.000017300144    -0.000006003695
      12        0.000286674134     0.000065445604     0.000263107022
      13        0.000003651298     0.000002912547     0.000009235987
      14        0.000000063787    -0.000006153204     0.000001832423
      15       -0.000004224988     0.000007164783     0.000006511386
      16       -0.000203388165    -0.000117207714    -0.000276682159
      17       -0.000001640457     0.000000708452    -0.000008279910
      18       -0.000000577233    -0.000005614251    -0.000001308807
      19        0.000006299603     0.000001107266     0.000005686594
      20       -0.000004843093     0.000009551740     0.000003996358

  **** Optimization is complete! (in 7 steps) ****
    Final optimized geometry and variables:
    Molecular point group: c1

    Geometry (in Angstrom), charge = 0, multiplicity = 1:

    O           -2.301177213553    -1.051225587004    -0.490923763679
    C           -1.780059256237    -0.056550621259    -0.116868797754
    C           -2.477135428764     1.263169968532     0.056072159735
    O           -0.500553354241     0.022608256979     0.202273721365
    H           -2.005870119892     2.007981588106    -0.572252278856
    H           -3.517143865570     1.159788087450    -0.207259600820
    H           -2.382993646947     1.592037943623     1.082926737109
    C            0.287288554841    -1.156085231732     0.087005396423
    C            1.711056891192    -0.812947250640     0.470380998815
    H            0.226914618128    -1.521254807474    -0.929188278855
    H           -0.122019100725    -1.915792416351     0.737964668457
    C            2.386900265452     0.215950938284    -0.459227597467
    H            2.269791393066    -1.742643550382     0.472203770393
    H            1.714630939306    -0.452800947391     1.493365397922
    C            2.781732061878     1.508528516502     0.248411813132
    H            3.268459227720    -0.226389056812    -0.909630040048
    H            1.720134486591     0.455591790008    -1.280056647945
    H            3.248284770319     2.204310998955    -0.439686142548
    H            3.485728983513     1.314993878091     1.051048153908
    H            1.913290851338     1.993921118027     0.678988163575

  Mulliken Charges: (a.u.)
   Center  Symbol    Alpha    Beta     Spin     Total
       1     O     4.19730  4.19730  0.00000 -0.39461
       2     C     2.80834  2.80834  0.00000  0.38332
       3     C     3.13892  3.13892  0.00000 -0.27783
       4     O     4.15427  4.15427  0.00000 -0.30853
       5     H     0.44594  0.44594  0.00000  0.10811
       6     H     0.43750  0.43750  0.00000  0.12499
       7     H     0.44562  0.44562  0.00000  0.10875
       8     C     2.99434  2.99434  0.00000  0.01132
       9     C     3.09179  3.09179  0.00000 -0.18358
      10     H     0.45040  0.45040  0.00000  0.09920
      11     H     0.44423  0.44423  0.00000  0.11154
      12     C     3.08708  3.08708  0.00000 -0.17416
      13     H     0.44563  0.44563  0.00000  0.10874
      14     H     0.45228  0.45228  0.00000  0.09544
      15     C     3.14810  3.14810  0.00000 -0.29621
      16     H     0.44804  0.44804  0.00000  0.10391
      17     H     0.45346  0.45346  0.00000  0.09308
      18     H     0.44987  0.44987  0.00000  0.10026
      19     H     0.45527  0.45527  0.00000  0.08946
      20     H     0.45161  0.45161  0.00000  0.09679

   Total alpha = 32.00000, Total beta = 32.00000, Total charge =  0.00000

*** Psi4 exiting successfully. Buy a developer a beer!
