  ==> Input File <==

--------------------------------------------------------------------------
set {
	reference rhf
	basis 6-31G*
}

set_num_threads( 4 )
memory 2 gb

molecule MOL {
0 1

O	 3.225979	 0.970355	 -0.599647
C	 2.701189	 0.057885	 -0.047330
C	 1.245376	 -0.013843	 0.345420
O	 3.347903	 -1.046386	 0.304773
C	 0.455112	 1.231400	 -0.050772
H	 0.838542	 -0.913825	 -0.103701
H	 1.208210	 -0.175333	 1.419774
C	 -0.998893	 1.219485	 0.433193
H	 0.482531	 1.345121	 -1.130325
H	 0.957290	 2.103070	 0.354729
C	 -1.922010	 2.217274	 -0.272061
H	 -1.001009	 1.437510	 1.498643
H	 -1.407012	 0.215057	 0.330362
C	 -3.332406	 2.244326	 0.320434
H	 -1.486581	 3.213409	 -0.209333
H	 -1.990725	 1.980060	 -1.331297
C	 -4.265155	 3.234105	 -0.379885
H	 -3.273443	 2.494361	 1.378376
H	 -3.764315	 1.246137	 0.267778
C	 -5.670488	 3.257755	 0.220267
H	 -3.834577	 4.231935	 -0.329076
H	 -4.328801	 2.983177	 -1.436655
H	 -6.307686	 3.968349	 -0.297073
H	 -5.644163	 3.539778	 1.269059
H	 -6.141860	 2.281221	 0.153454
C	 4.728119	 -1.109107	 -0.004993
H	 4.882018	 -1.033965	 -1.071845
H	 5.068212	 -2.067527	 0.355250
H	 5.265056	 -0.311663	 0.488280

	symmetry c1
}
set optking {
	frozen_dihedral = ("
		11 8 5 9
	")
}

ee = optimize('scf')
oeprop('DIPOLE', 'QUADRUPOLE', 'MULLIKEN_CHARGES')
f=open( 'psi4out.xyz', 'w' )
f.write( "29  " )
f.write( str(ee) + "\n" )
f.write( MOL.save_string_xyz() )
f.close()
--------------------------------------------------------------------------

    Molecular point group: c1
  Charge       = 0
  Multiplicity = 1
  Basis Set: 6-31G*
  Basis Set:
  @DF-RHF Final Energy:  -501.04412876981667
    Total Energy =                       -501.0441287698158703
    Molecular point group: c1
  Basis Set: 6-31G*
  Basis Set:
  Basis Set: 6-31G*
  Basis Set:
  @DF-RHF Final Energy:  -501.04458823983316
    Total Energy =                       -501.0445882398335016
  Basis Set: 6-31G*
  Basis Set:
  Basis Set: 6-31G*
  Basis Set:
  @DF-RHF Final Energy:  -501.04441142368478
    Total Energy =                       -501.0444114236851192
  Basis Set: 6-31G*
  Basis Set:
  Basis Set: 6-31G*
  Basis Set:
  @DF-RHF Final Energy:  -501.04462184280624
    Total Energy =                       -501.0446218428062366
  Basis Set: 6-31G*
  Basis Set:
  Basis Set: 6-31G*
  Basis Set:
  @DF-RHF Final Energy:  -501.04462554584074
    Total Energy =                       -501.0446255458414271
  Basis Set: 6-31G*
  Basis Set:
  Basis Set: 6-31G*
  Basis Set:
  @DF-RHF Final Energy:  -501.04464158656890
    Total Energy =                       -501.0446415865690142
  Basis Set: 6-31G*
  Basis Set:
  Charge       = 0
  Multiplicity = 1
  Basis Set: 6-31G*
  Basis Set:

    Orbital Energies (a.u.)
    -----------------------

    Doubly Occupied:

       1A    -20.603521     2A    -20.545339     3A    -11.372130
       4A    -11.280764     5A    -11.235551     6A    -11.218727
       7A    -11.217378     8A    -11.214534     9A    -11.214248
      10A    -11.213092    11A    -11.208091    12A     -1.469215
      13A     -1.362663    14A     -1.097026    15A     -1.067096
      16A     -1.020335    17A     -0.977413    18A     -0.926924
      19A     -0.855576    20A     -0.801382    21A     -0.790122
      22A     -0.766872    23A     -0.697230    24A     -0.683397
      25A     -0.671670    26A     -0.656490    27A     -0.629779
      28A     -0.597722    29A     -0.592054    30A     -0.584029
      31A     -0.566468    32A     -0.549566    33A     -0.529954
      34A     -0.523859    35A     -0.516088    36A     -0.514602
      37A     -0.490489    38A     -0.480757    39A     -0.468199
      40A     -0.462235    41A     -0.460661    42A     -0.455421
      43A     -0.446323    44A     -0.431070

  @DF-RHF Final Energy:  -501.04464219825286

   => Energetics <=

    Nuclear Repulsion Energy =            601.9411283885622197
    One-Electron Energy =               -1875.0394242791344368
    Two-Electron Energy =                 772.0536536923191306
    DFT Exchange-Correlation Energy =       0.0000000000000000
    Empirical Dispersion Energy =           0.0000000000000000
    PCM Polarization Energy =               0.0000000000000000
    EFP Energy =                            0.0000000000000000
    Total Energy =                       -501.0446421982530865
    Molecular point group: c1
  Basis Set: 6-31G*
  Basis Set:

  -Total Gradient:
     Atom            X                  Y                   Z
    ------   -----------------  -----------------  -----------------
       1        0.000020677851    -0.000002076466     0.000021953388
       2       -0.000025040518     0.000005982066    -0.000059117874
       3       -0.000033143283    -0.000005599516     0.000000493349
       4       -0.000007629163     0.000006250775    -0.000000548677
       5       -0.000259413845    -0.004593513939    -0.001047847680
       6       -0.000001776949     0.000004301304     0.000017680046
       7       -0.000001076000     0.000006101530     0.000020370883
       8        0.000734747517     0.003035494848     0.002316381720
       9        0.000064784607     0.003228983063     0.000318328919
      10       -0.000001871764    -0.000021948344    -0.000005219206
      11       -0.000508380911    -0.001656379443    -0.001630582123
      12       -0.000008836446     0.000003975609     0.000011302214
      13       -0.000015411352    -0.000002296850    -0.000007056628
      14        0.000011338803    -0.000008535591     0.000035139627
      15        0.000014866859    -0.000012590742     0.000016585790
      16        0.000004594356     0.000009280100    -0.000014379755
      17        0.000015360787    -0.000003227143    -0.000006302046
      18       -0.000000400865     0.000013278840     0.000003261409
      19       -0.000002519660     0.000004331045     0.000016926527
      20       -0.000005412745    -0.000018105843    -0.000010971208
      21       -0.000004448636    -0.000001989161     0.000009557370
      22        0.000004664105     0.000009950480    -0.000005288117
      23       -0.000001062273    -0.000003318627    -0.000003551786
      24        0.000005044273     0.000001506534    -0.000005016073
      25       -0.000003906478    -0.000000857452     0.000004170456
      26        0.000000575994     0.000002280203     0.000006351351
      27       -0.000001201841     0.000000183490    -0.000000201834
      28        0.000002721806    -0.000000268273    -0.000001074606
      29        0.000002155774    -0.000001192497    -0.000001345433

  **** Optimization is complete! (in 7 steps) ****
    Final optimized geometry and variables:
    Molecular point group: c1

    Geometry (in Angstrom), charge = 0, multiplicity = 1:

    O            3.204786642689    -0.151029725362    -0.689759272770
    C            2.692274614242    -1.036744061873    -0.084880450813
    C            1.253416401629    -1.073221013804     0.369295736040
    O            3.338637330600    -2.137470785641     0.278209409214
    C            0.458839088250     0.164333402076    -0.032048506389
    H            0.806986933656    -1.976574245842    -0.036766176315
    H            1.256503038691    -1.204699302822     1.448183830995
    C           -0.984106007205     0.131769383123     0.482400926156
    H            0.468845506269     0.280116397979    -1.111352969362
    H            0.959772066984     1.047674946697     0.352098136393
    C           -1.894919791282     1.133176038838    -0.230038980520
    H           -0.993353978325     0.319167991938     1.554247308601
    H           -1.397344109384    -0.866960121175     0.347038405117
    C           -3.325062261863     1.141134007038     0.312080159300
    H           -1.471833298466     2.132808473780    -0.144364713847
    H           -1.912876587001     0.900877081584    -1.293011040422
    C           -4.242186375566     2.126917252822    -0.414107435381
    H           -3.307000789040     1.383736163235     1.373366458513
    H           -3.744767337918     0.139121257042     0.236600273590
    C           -5.670030079924     2.127414605215     0.130824807083
    H           -3.826255790718     3.129183760090    -0.336719348230
    H           -4.261235784489     1.886196836674    -1.474911322606
    H           -6.295498780800     2.835314295931    -0.404249446956
    H           -5.688227293699     2.399254824166     1.182519983648
    H           -6.126192904678     1.145925088053     0.036358323229
    C            4.703489680390    -2.231240025092    -0.086983680100
    H            4.812795036663    -2.194956393624    -1.161345600403
    H            5.045741642197    -3.181693852074     0.291799249020
    H            5.271501190653    -1.425409775673     0.355197693059

  Mulliken Charges: (a.u.)
   Center  Symbol    Alpha    Beta     Spin     Total
       1     O     4.28604  4.28604  0.00000 -0.57207
       2     C     2.60482  2.60482  0.00000  0.79037
       3     C     3.20846  3.20846  0.00000 -0.41691
       4     O     4.30748  4.30748  0.00000 -0.61496
       5     C     3.15371  3.15371  0.00000 -0.30742
       6     H     0.40050  0.40050  0.00000  0.19899
       7     H     0.40049  0.40049  0.00000  0.19902
       8     C     3.15452  3.15452  0.00000 -0.30903
       9     H     0.41175  0.41175  0.00000  0.17651
      10     H     0.41084  0.41084  0.00000  0.17831
      11     C     3.15269  3.15269  0.00000 -0.30538
      12     H     0.42180  0.42180  0.00000  0.15640
      13     H     0.42475  0.42475  0.00000  0.15050
      14     C     3.15093  3.15093  0.00000 -0.30185
      15     H     0.42185  0.42185  0.00000  0.15630
      16     H     0.42233  0.42233  0.00000  0.15534
      17     C     3.15149  3.15149  0.00000 -0.30298
      18     H     0.42405  0.42405  0.00000  0.15190
      19     H     0.42445  0.42445  0.00000  0.15111
      20     C     3.23928  3.23928  0.00000 -0.47857
      21     H     0.42261  0.42261  0.00000  0.15478
      22     H     0.42293  0.42293  0.00000  0.15414
      23     H     0.41925  0.41925  0.00000  0.16150
      24     H     0.42191  0.42191  0.00000  0.15618
      25     H     0.42202  0.42202  0.00000  0.15595
      26     C     3.09244  3.09244  0.00000 -0.18487
      27     H     0.40907  0.40907  0.00000  0.18185
      28     H     0.40845  0.40845  0.00000  0.18310
      29     H     0.40910  0.40910  0.00000  0.18181

   Total alpha = 44.00000, Total beta = 44.00000, Total charge =  0.00000
