  ==> Input File <==

--------------------------------------------------------------------------
set {
	reference rhf
	basis 6-31G*
}

set_num_threads( 4 )
memory 2 gb

molecule MOL {
0 1

O	 -2.324811	 1.361668	 -0.277141
C	 -2.105949	 0.203097	 -0.092081
C	 -0.889235	 -0.467034	 -0.705952
C	 -3.002726	 -0.644460	 0.782455
C	 -1.222608	 -1.046194	 -2.090357
H	 -0.585368	 -1.268899	 -0.041887
H	 -0.065276	 0.236291	 -0.786273
C	 -0.025323	 -1.758549	 -2.724135
H	 -2.057811	 -1.728453	 -1.979261
H	 -1.555059	 -0.247271	 -2.751376
C	 -0.282660	 -2.294973	 -4.136962
H	 0.285391	 -2.578789	 -2.079627
H	 0.813696	 -1.066923	 -2.763485
C	 -1.314236	 -3.422181	 -4.209432
H	 0.659135	 -2.656481	 -4.541963
H	 -0.594716	 -1.475517	 -4.781323
H	 -1.032253	 -4.251102	 -3.565925
H	 -1.395347	 -3.804082	 -5.222334
H	 -2.301943	 -3.090402	 -3.907522
H	 -3.496582	 -1.399307	 0.176174
H	 -3.747939	 -0.023774	 1.260148
H	 -2.421318	 -1.168775	 1.535358

	symmetry c1
}
set optking {
	frozen_dihedral = ("
		6 3 2 1
	")
}

ee = optimize('scf')
oeprop('DIPOLE', 'QUADRUPOLE', 'MULLIKEN_CHARGES')
f=open( 'psi4out.xyz', 'w' )
f.write( "22  " )
f.write( str(ee) + "\n" )
f.write( MOL.save_string_xyz() )
f.close()
--------------------------------------------------------------------------

    Molecular point group: c1
  Charge       = 0
  Multiplicity = 1
  Basis Set: 6-31G*
  Basis Set:
  @DF-RHF Final Energy:  -348.09707621135396
    Total Energy =                       -348.0970762113538512
    Molecular point group: c1
  Basis Set: 6-31G*
  Basis Set:
  Basis Set: 6-31G*
  Basis Set:
  @DF-RHF Final Energy:  -348.09629249758694
    Total Energy =                       -348.0962924975870010
  Basis Set: 6-31G*
  Basis Set:
  Basis Set: 6-31G*
  Basis Set:
  @DF-RHF Final Energy:  -348.09757357893136
    Total Energy =                       -348.0975735789314172
  Basis Set: 6-31G*
  Basis Set:
  Basis Set: 6-31G*
  Basis Set:
  @DF-RHF Final Energy:  -348.09812353346052
    Total Energy =                       -348.0981235334606367
  Basis Set: 6-31G*
  Basis Set:
  @DF-RHF Final Energy:  -348.09809404266935
    Total Energy =                       -348.0980940426695156
  @DF-RHF Final Energy:  -348.09818553506341
    Total Energy =                       -348.0981855350634646
  @DF-RHF Final Energy:  -348.09823766288775
    Total Energy =                       -348.0982376628879820
  Basis Set: 6-31G*
  Basis Set:
  @DF-RHF Final Energy:  -348.09820997356104
    Total Energy =                       -348.0982099735610404
  Basis Set: 6-31G*
  Basis Set:
  Basis Set: 6-31G*
  Basis Set:
  @DF-RHF Final Energy:  -348.09825617364322
    Total Energy =                       -348.0982561736430512
  Basis Set: 6-31G*
  Basis Set:
  Basis Set: 6-31G*
  Basis Set:
  @DF-RHF Final Energy:  -348.09825753406614
    Total Energy =                       -348.0982575340661924
  Basis Set: 6-31G*
  Basis Set:
  Charge       = 0
  Multiplicity = 1
  Basis Set: 6-31G*
  Basis Set:

    Orbital Energies (a.u.)
    -----------------------

    Doubly Occupied:

       1A    -20.547393     2A    -11.324226     3A    -11.230774
       4A    -11.229174     5A    -11.227948     6A    -11.223277
       7A    -11.221382     8A    -11.213728     9A     -1.392968
      10A     -1.096761    11A     -1.045146    12A     -0.999114
      13A     -0.938790    14A     -0.859271    15A     -0.787488
      16A     -0.733140    17A     -0.661228    18A     -0.647219
      19A     -0.626807    20A     -0.618502    21A     -0.598438
      22A     -0.587106    23A     -0.553829    24A     -0.548496
      25A     -0.534763    26A     -0.520609    27A     -0.499842
      28A     -0.487827    29A     -0.470467    30A     -0.466106
      31A     -0.461537    32A     -0.396098

  @DF-RHF Final Energy:  -348.09825789522534

   => Energetics <=

    Nuclear Repulsion Energy =            372.9902872861711671
    One-Electron Energy =               -1210.6781739125274271
    Two-Electron Energy =                 489.5896287311310857
    DFT Exchange-Correlation Energy =       0.0000000000000000
    Empirical Dispersion Energy =           0.0000000000000000
    PCM Polarization Energy =               0.0000000000000000
    EFP Energy =                            0.0000000000000000
    Total Energy =                       -348.0982578952251174
    Molecular point group: c1
  Basis Set: 6-31G*
  Basis Set:

  -Total Gradient:
     Atom            X                  Y                   Z
    ------   -----------------  -----------------  -----------------
       1        0.000139577361     0.000064952635     0.000208647279
       2       -0.000166873222    -0.000054620285    -0.000256141578
       3       -0.000144608228    -0.000190486464    -0.000071148714
       4        0.000004067738     0.000008054164    -0.000005157238
       5        0.000003653753     0.000008716899     0.000004177986
       6        0.000159820350     0.000162295123     0.000121928040
       7       -0.000001064406    -0.000000606717    -0.000002343249
       8        0.000002834338    -0.000004821147     0.000000562682
       9        0.000001425933     0.000001515216     0.000000800673
      10       -0.000001842323     0.000002302848     0.000002777828
      11       -0.000002965404    -0.000003548237     0.000000780076
      12        0.000003006698     0.000001942618     0.000001381573
      13       -0.000002507477     0.000000920470    -0.000002210306
      14        0.000003707360     0.000000923699    -0.000000058611
      15       -0.000001861688    -0.000003589393    -0.000004387528
      16       -0.000000218781     0.000001563208     0.000003197906
      17       -0.000001391163     0.000003702394     0.000002700511
      18        0.000002519798    -0.000001987931    -0.000000749780
      19       -0.000000370945     0.000001206341    -0.000002436277
      20        0.000002870439    -0.000000083731    -0.000002000001
      21       -0.000001645106     0.000001023237     0.000001521850
      22        0.000001864975     0.000000625053    -0.000001843127

  **** Optimization is complete! (in 11 steps) ****
    Final optimized geometry and variables:
    Molecular point group: c1

    Geometry (in Angstrom), charge = 0, multiplicity = 1:

    O           -0.885873291179     2.377936134790     1.389401834937
    C           -0.677474638836     1.223267826435     1.607279182290
    C            0.518046798651     0.514884879859     0.996521978242
    C           -1.597278542779     0.404912408012     2.487307266815
    C            0.175889740190    -0.057409130410    -0.388886306710
    H            0.858938490951    -0.282766209024     1.651373335990
    H            1.317002972683     1.241455127291     0.903269393034
    C            1.374002161464    -0.755308763097    -1.037630876863
    H           -0.654749762614    -0.752245999670    -0.299513934953
    H           -0.162944877382     0.755354091090    -1.025395488403
    C            1.119090884153    -1.260745873642    -2.462187225106
    H            1.688813538761    -1.588667026065    -0.411524841381
    H            2.209313581193    -0.059234498883    -1.061382031852
    C            0.087106471683    -2.385489657649    -2.563213979762
    H            2.061486605253    -1.614141771646    -2.872793889749
    H            0.809078404342    -0.427199412824    -3.088597358398
    H            0.364033520332    -3.227425069111    -1.934242783252
    H            0.012238549604    -2.747690416513    -3.583715925217
    H           -0.902791144302    -2.058323799117    -2.262634116380
    H           -1.866895707878    -0.531394583654     2.008530570982
    H           -2.489239458908     0.971432842570     2.715977208326
    H           -1.084313395029     0.156160004309     3.412765554558

  Mulliken Charges: (a.u.)
   Center  Symbol    Alpha    Beta     Spin     Total
       1     O     4.26159  4.26159  0.00000 -0.52319
       2     C     2.73726  2.73726  0.00000  0.52549
       3     C     3.19989  3.19989  0.00000 -0.39978
       4     C     3.28962  3.28962  0.00000 -0.57925
       5     C     3.16480  3.16480  0.00000 -0.32959
       6     H     0.41664  0.41664  0.00000  0.16672
       7     H     0.40079  0.40079  0.00000  0.19842
       8     C     3.15259  3.15259  0.00000 -0.30518
       9     H     0.41844  0.41844  0.00000  0.16312
      10     H     0.40793  0.40793  0.00000  0.18415
      11     C     3.15349  3.15349  0.00000 -0.30699
      12     H     0.42346  0.42346  0.00000  0.15309
      13     H     0.41846  0.41846  0.00000  0.16308
      14     C     3.24205  3.24205  0.00000 -0.48410
      15     H     0.41917  0.41917  0.00000  0.16166
      16     H     0.42054  0.42054  0.00000  0.15892
      17     H     0.42224  0.42224  0.00000  0.15552
      18     H     0.41731  0.41731  0.00000  0.16538
      19     H     0.42021  0.42021  0.00000  0.15957
      20     H     0.41009  0.41009  0.00000  0.17983
      21     H     0.39698  0.39698  0.00000  0.20604
      22     H     0.40645  0.40645  0.00000  0.18710

   Total alpha = 32.00000, Total beta = 32.00000, Total charge =  0.00000
