  ==> Input File <==

--------------------------------------------------------------------------
set {
	reference rhf
	basis cc-pvtz
}

set_num_threads( 4 )
memory 2 gb

molecule MOL {
0 1

H	 -3.941973	 0.934228	 -0.390224
C	 -3.240162	 0.342701	 0.161016
C	 -2.105997	 -0.000418	 -0.398703
H	 -3.485368	 0.047206	 1.162193
O	 -1.189946	 -0.765863	 0.237511
H	 -1.846458	 0.297311	 -1.398265
C	 0.026572	 -0.995256	 -0.379403
C	 1.057223	 0.049888	 -0.004615
H	 -0.054361	 -1.010670	 -1.459674
H	 0.397526	 -1.952058	 -0.044198
F	 1.650698	 -0.301940	 1.118366
F	 1.988074	 0.174236	 -0.926332
F	 0.517909	 1.230669	 0.178018

	symmetry c1
}
set optking {
	frozen_dihedral = ("
		11 8 7 9
	")
}

ee = optimize('scf')
oeprop('DIPOLE', 'QUADRUPOLE', 'MULLIKEN_CHARGES')
f=open( 'psi4out.xyz', 'w' )
f.write( "13  " )
f.write( str(ee) + "\n" )
f.write( MOL.save_string_xyz() )
f.close()
--------------------------------------------------------------------------

    Molecular point group: c1
  Charge       = 0
  Multiplicity = 1
  Basis Set: CC-PVTZ
  Basis Set:
  @DF-RHF Final Energy:  -527.73855819732296
    Total Energy =                       -527.7385581973221633
    Molecular point group: c1
  Basis Set: CC-PVTZ
  Basis Set:
  Basis Set: CC-PVTZ
  Basis Set:
  @DF-RHF Final Energy:  -527.73926008001570
    Total Energy =                       -527.7392600800155833
  Basis Set: CC-PVTZ
  Basis Set:
  Basis Set: CC-PVTZ
  Basis Set:
  @DF-RHF Final Energy:  -527.73940911210616
    Total Energy =                       -527.7394091121063866
  Basis Set: CC-PVTZ
  Basis Set:
  Basis Set: CC-PVTZ
  Basis Set:
  @DF-RHF Final Energy:  -527.73942322711162
    Total Energy =                       -527.7394232271121837
  Basis Set: CC-PVTZ
  Basis Set:
  Basis Set: CC-PVTZ
  Basis Set:
  @DF-RHF Final Energy:  -527.73942584814131
    Total Energy =                       -527.7394258481413090
  Basis Set: CC-PVTZ
  Basis Set:
  Basis Set: CC-PVTZ
  Basis Set:
  @DF-RHF Final Energy:  -527.73942747877481
    Total Energy =                       -527.7394274787749282
  Basis Set: CC-PVTZ
  Basis Set:
  Basis Set: CC-PVTZ
  Basis Set:
  @DF-RHF Final Energy:  -527.73942842375686
    Total Energy =                       -527.7394284237570901
  Basis Set: CC-PVTZ
  Basis Set:
  Charge       = 0
  Multiplicity = 1
  Basis Set: CC-PVTZ
  Basis Set:

    Orbital Energies (a.u.)
    -----------------------

    Doubly Occupied:

       1A    -26.342447     2A    -26.339682     3A    -26.338046
       4A    -20.604521     5A    -11.498753     6A    -11.319819
       7A    -11.298892     8A    -11.214150     9A     -1.750691
      10A     -1.648263    11A     -1.643818    12A     -1.445164
      13A     -1.087031    14A     -1.020268    15A     -0.932715
      16A     -0.843871    17A     -0.839728    18A     -0.827693
      19A     -0.796383    20A     -0.732215    21A     -0.720960
      22A     -0.703160    23A     -0.681023    24A     -0.667876
      25A     -0.661837    26A     -0.650645    27A     -0.638249
      28A     -0.587714    29A     -0.565486    30A     -0.530225
      31A     -0.517247    32A     -0.356988

  @DF-RHF Final Energy:  -527.73942874748866

   => Energetics <=

    Nuclear Repulsion Energy =            412.7017800262852916
    One-Electron Energy =               -1549.2712955675638113
    Two-Electron Energy =                 608.8300867937900875
    DFT Exchange-Correlation Energy =       0.0000000000000000
    Empirical Dispersion Energy =           0.0000000000000000
    PCM Polarization Energy =               0.0000000000000000
    EFP Energy =                            0.0000000000000000
    Total Energy =                       -527.7394287474885459
    Molecular point group: c1
  Basis Set: CC-PVTZ
  Basis Set:

  -Total Gradient:
     Atom            X                  Y                   Z
    ------   -----------------  -----------------  -----------------
       1       -0.000001821945    -0.000004246142    -0.000001139152
       2        0.000013343575    -0.000001021054     0.000000503481
       3       -0.000015253951     0.000009035270     0.000011344851
       4        0.000003574482    -0.000002287252    -0.000000900828
       5       -0.000064361780     0.000047460028     0.000008034745
       6        0.000010979545    -0.000008940594    -0.000012050226
       7       -0.003178273919     0.003430893293    -0.000626671412
       8       -0.003074552675     0.002246654477     0.002823889843
       9        0.003441327491    -0.003480093382    -0.000043456894
      10       -0.000036257083    -0.000023458797    -0.000003535633
      11        0.002903560999    -0.002236010582    -0.002157631622
      12        0.000025174762    -0.000041300979     0.000015202984
      13       -0.000027439491     0.000063315712    -0.000013590135

  **** Optimization is complete! (in 8 steps) ****
    Final optimized geometry and variables:
    Molecular point group: c1

    Geometry (in Angstrom), charge = 0, multiplicity = 1:

    H           -3.967332565038     0.934068858103    -0.380361827298
    C           -3.278723342215     0.313893452541     0.155826529502
    C           -2.114187633803     0.033915274358    -0.375830954330
    H           -3.560872076040    -0.059555052193     1.120602201155
    O           -1.208036239923    -0.754807824914     0.246045510967
    H           -1.818431216797     0.408855331036    -1.338727244790
    C            0.004314163112    -0.980995905012    -0.375291804961
    C            1.061741967604     0.051800564078    -0.005900365745
    H           -0.064742537734    -1.022738812067    -1.455075463773
    H            0.372475968700    -1.938617894694    -0.038244184694
    F            1.659873424828    -0.242567266417     1.126795313904
    F            1.998152525266     0.071030517513    -0.936963907922
    F            0.571504597257     1.263251863796     0.093721749246

  Mulliken Charges: (a.u.)
   Center  Symbol    Alpha    Beta     Spin     Total
       1     H     0.42524  0.42524  0.00000  0.14952
       2     C     3.19711  3.19711  0.00000 -0.39422
       3     C     2.95626  2.95626  0.00000  0.08749
       4     H     0.42501  0.42501  0.00000  0.14998
       5     O     4.14293  4.14293  0.00000 -0.28586
       6     H     0.43473  0.43473  0.00000  0.13054
       7     C     3.02774  3.02774  0.00000 -0.05547
       8     C     2.67231  2.67231  0.00000  0.65537
       9     H     0.45478  0.45478  0.00000  0.09044
      10     H     0.43639  0.43639  0.00000  0.12723
      11     F     4.60840  4.60840  0.00000 -0.21681
      12     F     4.61387  4.61387  0.00000 -0.22774
      13     F     4.60523  4.60523  0.00000 -0.21046

   Total alpha = 32.00000, Total beta = 32.00000, Total charge = -0.00000
