  ==> Input File <==

--------------------------------------------------------------------------
set {
	reference rhf
	basis 6-31G*
}

set_num_threads( 4 )
memory 2 gb

molecule MOL {
0 1

H	 2.707060	 -0.864338	 0.472197
N	 2.332695	 -0.069570	 0.000000
C	 0.936681	 -0.007078	 0.000000
H	 2.780058	 0.766372	 0.309590
C	 0.227108	 -0.002120	 -1.198267
C	 0.227108	 -0.002120	 1.198267
H	 0.761569	 -0.014657	 -2.132680
C	 -1.156334	 0.010459	 -1.192360
H	 0.761569	 -0.014657	 2.132680
C	 -1.156334	 0.010459	 1.192360
H	 -1.684791	 0.014915	 -2.129421
C	 -1.862085	 0.017996	 0.000000
H	 -1.684791	 0.014915	 2.129421
H	 -2.936703	 0.028387	 0.000000

	symmetry c1
}
set optking {
	frozen_dihedral = ("
		1 2 3 5
	")
}

ee = optimize('scf')
oeprop('DIPOLE', 'QUADRUPOLE', 'MULLIKEN_CHARGES')
f=open( 'psi4out.xyz', 'w' )
f.write( "14  " )
f.write( str(ee) + "\n" )
f.write( MOL.save_string_xyz() )
f.close()
--------------------------------------------------------------------------

    Molecular point group: c1
  Charge       = 0
  Multiplicity = 1
  Basis Set: 6-31G*
  Basis Set:
  @DF-RHF Final Energy:  -285.72244233384771
    Total Energy =                       -285.7224423338477095
    Molecular point group: c1
  Basis Set: 6-31G*
  Basis Set:
  Basis Set: 6-31G*
  Basis Set:
  @DF-RHF Final Energy:  -285.72400515157909
    Total Energy =                       -285.7240051515788082
  Basis Set: 6-31G*
  Basis Set:
  Basis Set: 6-31G*
  Basis Set:
  @DF-RHF Final Energy:  -285.72435571550238
    Total Energy =                       -285.7243557155020994
  Basis Set: 6-31G*
  Basis Set:
  Basis Set: 6-31G*
  Basis Set:
  @DF-RHF Final Energy:  -285.72437971979127
    Total Energy =                       -285.7243797197913864
  Basis Set: 6-31G*
  Basis Set:
  Charge       = 0
  Multiplicity = 1
  Basis Set: 6-31G*
  Basis Set:

    Orbital Energies (a.u.)
    -----------------------

    Doubly Occupied:

       1A    -15.546276     2A    -11.258676     3A    -11.229803
       4A    -11.227816     5A    -11.226026     6A    -11.225829
       7A    -11.220556     8A     -1.204337     9A     -1.126208
      10A     -1.011436    11A     -0.985646    12A     -0.826050
      13A     -0.806218    14A     -0.700778    15A     -0.658429
      16A     -0.645464    17A     -0.626093    18A     -0.589474
      19A     -0.582200    20A     -0.504949    21A     -0.493712
      22A     -0.492776    23A     -0.405749    24A     -0.330856
      25A     -0.324621

  @DF-RHF Final Energy:  -285.72438073820433

   => Energetics <=

    Nuclear Repulsion Energy =            272.2770536245396897
    One-Electron Energy =                -925.5029133102326568
    Two-Electron Energy =                 367.5014789474885788
    DFT Exchange-Correlation Energy =       0.0000000000000000
    Empirical Dispersion Energy =           0.0000000000000000
    PCM Polarization Energy =               0.0000000000000000
    EFP Energy =                            0.0000000000000000
    Total Energy =                       -285.7243807382043883
    Molecular point group: c1
  Basis Set: 6-31G*
  Basis Set:

  -Total Gradient:
     Atom            X                  Y                   Z
    ------   -----------------  -----------------  -----------------
       1        0.000043568657     0.000014853183     0.000050656523
       2        0.000037777696    -0.000055986038    -0.000052076481
       3       -0.000077431283     0.000030434407    -0.000098069145
       4       -0.000003031851     0.000000871648     0.000009699371
       5        0.000034450423     0.000074131172    -0.000010921139
       6       -0.000001952464    -0.000020894887     0.000055524026
       7        0.000013621061     0.000001809079     0.000008146823
       8        0.000006151921    -0.000101105855     0.000034740558
       9       -0.000012288477     0.000000447303    -0.000019045788
      10       -0.000001689965    -0.000026291410    -0.000013603159
      11        0.000002025542     0.000005470714     0.000004974622
      12       -0.000013275869     0.000084984801     0.000006325638
      13       -0.000028580611    -0.000000668221     0.000002307297
      14        0.000000655224    -0.000008055896     0.000021340854

  **** Optimization is complete! (in 5 steps) ****
    Final optimized geometry and variables:
    Molecular point group: c1

    Geometry (in Angstrom), charge = 0, multiplicity = 1:

    H            2.724288084384    -0.850667554527     0.403511311804
    N            2.359938350138    -0.037696793146    -0.054921986715
    C            0.927336978486    -0.014646059127    -0.002211874547
    H            2.749909563358     0.762282104670     0.405197971321
    C            0.224001704617    -0.010193483839    -1.197083003090
    C            0.221943711728     0.003286233938     1.195724594879
    H            0.776740012026    -0.023927495966    -2.118086543402
    C           -1.162257366752     0.011231318206    -1.197362716440
    H            0.760463881895    -0.000144485414     2.128257709225
    C           -1.162802475864     0.025547024746     1.197295039967
    H           -1.695548439762     0.014263665038    -2.131410917584
    C           -1.859612397993     0.029763039802    -0.000984217163
    H           -1.696068763670     0.039504012812     2.131339246232
    H           -2.934857129972     0.046796914693    -0.000667994283

  Mulliken Charges: (a.u.)
   Center  Symbol    Alpha    Beta     Spin     Total
       1     H     0.32539  0.32539  0.00000  0.34922
       2     N     3.93808  3.93808  0.00000 -0.87615
       3     C     2.90675  2.90675  0.00000  0.18650
       4     H     0.32545  0.32545  0.00000  0.34909
       5     C     3.09681  3.09681  0.00000 -0.19361
       6     C     3.10966  3.10966  0.00000 -0.21932
       7     H     0.39271  0.39271  0.00000  0.21457
       8     C     3.10018  3.10018  0.00000 -0.20035
       9     H     0.40314  0.40314  0.00000  0.19372
      10     C     3.09976  3.09976  0.00000 -0.19953
      11     H     0.39960  0.39960  0.00000  0.20080
      12     C     3.10217  3.10217  0.00000 -0.20434
      13     H     0.40000  0.40000  0.00000  0.20001
      14     H     0.40031  0.40031  0.00000  0.19939

   Total alpha = 25.00000, Total beta = 25.00000, Total charge = -0.00000
