  ==> Input File <==

--------------------------------------------------------------------------
set {
	reference rhf
	basis 6-31G*
}

set_num_threads( 4 )
memory 2 gb

molecule MOL {
0 1

H	 3.957767	 -0.580202	 4.268561
C	 3.519051	 -1.264058	 3.548566
C	 2.146426	 -0.775316	 3.087903
H	 4.204515	 -1.346258	 2.710280
H	 3.451961	 -2.241368	 4.018845
C	 1.495937	 -1.721251	 2.076032
H	 2.246569	 0.211624	 2.647992
H	 1.493509	 -0.669733	 3.952914
C	 0.112440	 -1.267314	 1.610045
H	 2.141267	 -1.828421	 1.211331
H	 1.399173	 -2.707946	 2.523368
C	 0.126343	 -0.047291	 0.700873
H	 -0.366673	 -2.067328	 1.047729
H	 -0.539466	 -1.073717	 2.458995
C	 -1.181045	 0.701995	 0.511084
O	 1.120415	 0.303288	 0.139340
C	 -2.285934	 -0.139295	 -0.145128
H	 -0.962235	 1.572013	 -0.096291
H	 -1.523784	 1.051330	 1.483288
C	 -3.651768	 0.085446	 0.506485
H	 -2.346596	 0.110469	 -1.202272
H	 -2.034737	 -1.195320	 -0.088721
C	 -4.759797	 -0.746382	 -0.137905
H	 -3.908762	 1.140117	 0.445781
H	 -3.588286	 -0.154158	 1.565709
H	 -4.868882	 -0.505166	 -1.191300
H	 -4.548009	 -1.809175	 -0.062213
H	 -5.715422	 -0.564821	 0.343442

	symmetry c1
}
set optking {
	frozen_dihedral = ("
		12 15 17 21
	")
}

ee = optimize('scf')
oeprop('DIPOLE', 'QUADRUPOLE', 'MULLIKEN_CHARGES')
f=open( 'psi4out.xyz', 'w' )
f.write( "28  " )
f.write( str(ee) + "\n" )
f.write( MOL.save_string_xyz() )
f.close()
--------------------------------------------------------------------------

    Molecular point group: c1
  Charge       = 0
  Multiplicity = 1
  Basis Set: 6-31G*
  Basis Set:
  @DF-RHF Final Energy:  -426.16410528648544
    Total Energy =                       -426.1641052864852099
    Molecular point group: c1
  Basis Set: 6-31G*
  Basis Set:
  Basis Set: 6-31G*
  Basis Set:
  @DF-RHF Final Energy:  -426.16285344190851
    Total Energy =                       -426.1628534419082825
  Basis Set: 6-31G*
  Basis Set:
  Basis Set: 6-31G*
  Basis Set:
  @DF-RHF Final Energy:  -426.16291989373769
    Total Energy =                       -426.1629198937376941
  Basis Set: 6-31G*
  Basis Set:
  Basis Set: 6-31G*
  Basis Set:
  @DF-RHF Final Energy:  -426.16441719786280
    Total Energy =                       -426.1644171978631448
  Basis Set: 6-31G*
  Basis Set:
  @DF-RHF Final Energy:  -426.16462102982666
    Total Energy =                       -426.1646210298270034
  @DF-RHF Final Energy:  -426.16463155845383
    Total Energy =                       -426.1646315584536069
  @DF-RHF Final Energy:  -426.16464048533896
    Total Energy =                       -426.1646404853388503
  @DF-RHF Final Energy:  -426.16464827790401
    Total Energy =                       -426.1646482779043481
  @DF-RHF Final Energy:  -426.16465595867135
    Total Energy =                       -426.1646559586713465
  @DF-RHF Final Energy:  -426.16442205953706
    Total Energy =                       -426.1644220595369461
  @DF-RHF Final Energy:  -426.16466920538312
    Total Energy =                       -426.1646692053832339
  @DF-RHF Final Energy:  -426.16469543143171
    Total Energy =                       -426.1646954314317099
  @DF-RHF Final Energy:  -426.16266399076687
    Total Energy =                       -426.1626639907664185
  @DF-RHF Final Energy:  -426.16473786798849
    Total Energy =                       -426.1647378679883786
  @DF-RHF Final Energy:  -426.16487040611082
    Total Energy =                       -426.1648704061112767
  @DF-RHF Final Energy:  -426.15884695001910
    Total Energy =                       -426.1588469500190968
  @DF-RHF Final Energy:  -426.16493204135725
    Total Energy =                       -426.1649320413567921
  @DF-RHF Final Energy:  -426.16511465331519
    Total Energy =                       -426.1651146533157544
  @DF-RHF Final Energy:  -426.16518238116385
    Total Energy =                       -426.1651823811636177
  Basis Set: 6-31G*
  Basis Set:
  @DF-RHF Final Energy:  -426.16517563882655
    Total Energy =                       -426.1651756388266676
  Basis Set: 6-31G*
  Basis Set:
  Basis Set: 6-31G*
  Basis Set:
  @DF-RHF Final Energy:  -426.16523231910378
    Total Energy =                       -426.1652323191042342
  Basis Set: 6-31G*
  Basis Set:
  Basis Set: 6-31G*
  Basis Set:
  @DF-RHF Final Energy:  -426.16523403230974
    Total Energy =                       -426.1652340323100816
  Basis Set: 6-31G*
  Basis Set:
  Charge       = 0
  Multiplicity = 1
  Basis Set: 6-31G*
  Basis Set:

    Orbital Energies (a.u.)
    -----------------------

    Doubly Occupied:

       1A    -20.547368     2A    -11.322215     3A    -11.231769
       4A    -11.231015     5A    -11.228522     6A    -11.226355
       7A    -11.216310     8A    -11.216007     9A    -11.209706
      10A    -11.204274    11A     -1.392811    12A     -1.093024
      13A     -1.076671    14A     -1.022654    15A     -0.989981
      16A     -0.908995    17A     -0.870906    18A     -0.809636
      19A     -0.796449    20A     -0.725694    21A     -0.664961
      22A     -0.657531    23A     -0.624133    24A     -0.613851
      25A     -0.609524    26A     -0.589942    27A     -0.576673
      28A     -0.570586    29A     -0.544116    30A     -0.534976
      31A     -0.519568    32A     -0.509097    33A     -0.502340
      34A     -0.481989    35A     -0.477356    36A     -0.476028
      37A     -0.466854    38A     -0.462517    39A     -0.454672
      40A     -0.391390

  @DF-RHF Final Energy:  -426.16523437381147

   => Energetics <=

    Nuclear Repulsion Energy =            532.4376869443685791
    One-Electron Energy =               -1633.1089124269806234
    Two-Electron Energy =                 674.5059911088007993
    DFT Exchange-Correlation Energy =       0.0000000000000000
    Empirical Dispersion Energy =           0.0000000000000000
    PCM Polarization Energy =               0.0000000000000000
    EFP Energy =                            0.0000000000000000
    Total Energy =                       -426.1652343738112450
    Molecular point group: c1
  Basis Set: 6-31G*
  Basis Set:

  -Total Gradient:
     Atom            X                  Y                   Z
    ------   -----------------  -----------------  -----------------
       1        0.000005262245     0.000000163579    -0.000006639758
       2        0.000009158243     0.000007214094    -0.000010189208
       3        0.000000725642    -0.000013977020     0.000015570033
       4        0.000000194665    -0.000007625929     0.000001646537
       5        0.000000683548     0.000005654844     0.000001775544
       6       -0.000018944284     0.000002325983     0.000008516400
       7       -0.000011008057     0.000011508980     0.000002396931
       8        0.000005950345    -0.000006898687     0.000001402432
       9        0.000026034302     0.000029136857    -0.000013684635
      10        0.000005071163    -0.000007123969     0.000000659902
      11       -0.000002564046     0.000005795177     0.000002736572
      12       -0.000945383797    -0.001150158860     0.001860324683
      13        0.000009295759     0.000001975348    -0.000015772319
      14       -0.000002524360    -0.000019072152     0.000006691713
      15        0.000611939492     0.001951754726    -0.002329683045
      16        0.000033176518    -0.000016624362    -0.000017529765
      17        0.002794726519    -0.002724518685    -0.000189980716
      18        0.000029382612    -0.000007591630     0.000006303146
      19       -0.000023518396     0.000037928263    -0.000004217838
      20        0.000004051673    -0.000008113583    -0.000005896411
      21       -0.002517543243     0.001922563293     0.000666151186
      22       -0.000001350969    -0.000006720101    -0.000005642076
      23       -0.000009116121     0.000003696723     0.000005326056
      24       -0.000005655032    -0.000001109534     0.000005678543
      25       -0.000003461559    -0.000008632020     0.000004868444
      26        0.000005867988     0.000003515211     0.000002616305
      27        0.000000301172    -0.000001244171     0.000004706914
      28       -0.000000752023    -0.000003822374     0.000001864434

  **** Optimization is complete! (in 23 steps) ****
    Final optimized geometry and variables:
    Molecular point group: c1

    Geometry (in Angstrom), charge = 0, multiplicity = 1:

    H            4.911305582123    -0.370450188173     2.304322846264
    C            4.145770899567    -1.013125574155     1.880675714702
    C            2.821192885745    -0.266656630991     1.727797247707
    H            4.506675380580    -1.367130054426     0.919445581644
    H            4.040024644677    -1.875858812082     2.533067951942
    C            1.715855727526    -1.148938718585     1.142626379963
    H            2.965914233249     0.599339998274     1.092080787395
    H            2.504138068504     0.104684204010     2.701140349522
    C            0.374133059910    -0.434652964183     0.982071020092
    H            2.030882006103    -1.533572042155     0.178098296304
    H            1.569770865592    -2.009282847375     1.791981493957
    C            0.306144365578     0.549079061638    -0.173684494635
    H           -0.427548657403    -1.157251663177     0.834811864782
    H            0.111616038191     0.101866867475     1.892566453990
    C           -1.029943873731     1.232414601536    -0.405219172232
    O            1.234613921634     0.752687271671    -0.896619035702
    C           -1.926774739263     0.409532536268    -1.364537646328
    H           -0.838115959238     2.215044894096    -0.817065967746
    H           -1.537360209567     1.363695319295     0.546101096657
    C           -3.394716569676     0.384338448766    -0.930396739672
    H           -1.867524796530     0.842028954346    -2.357795053984
    H           -1.564020506085    -0.611714386194    -1.448814992615
    C           -4.289700944731    -0.373691653998    -1.909273336177
    H           -3.754782291983     1.405552386336    -0.825705395341
    H           -3.470681927581    -0.068597685796     0.055976091425
    H           -4.264402480446     0.079996751679    -2.895774895180
    H           -3.970897395269    -1.407015733000    -2.013161118010
    H           -5.321817793131    -0.378269995067    -1.573470069933

  Mulliken Charges: (a.u.)
   Center  Symbol    Alpha    Beta     Spin     Total
       1     H     0.41941  0.41941  0.00000  0.16117
       2     C     3.24037  3.24037  0.00000 -0.48074
       3     C     3.15601  3.15601  0.00000 -0.31201
       4     H     0.41885  0.41885  0.00000  0.16229
       5     H     0.42429  0.42429  0.00000  0.15141
       6     C     3.14855  3.14855  0.00000 -0.29711
       7     H     0.40587  0.40587  0.00000  0.18825
       8     H     0.42832  0.42832  0.00000  0.14335
       9     C     3.21301  3.21301  0.00000 -0.42602
      10     H     0.40995  0.40995  0.00000  0.18010
      11     H     0.42220  0.42220  0.00000  0.15561
      12     C     2.73875  2.73875  0.00000  0.52250
      13     H     0.40711  0.40711  0.00000  0.18577
      14     H     0.40878  0.40878  0.00000  0.18244
      15     C     3.19924  3.19924  0.00000 -0.39848
      16     O     4.26605  4.26605  0.00000 -0.53210
      17     C     3.15825  3.15825  0.00000 -0.31650
      18     H     0.39910  0.39910  0.00000  0.20180
      19     H     0.41440  0.41440  0.00000  0.17120
      20     C     3.15476  3.15476  0.00000 -0.30952
      21     H     0.40960  0.40960  0.00000  0.18081
      22     H     0.41646  0.41646  0.00000  0.16707
      23     C     3.24084  3.24084  0.00000 -0.48168
      24     H     0.41985  0.41985  0.00000  0.16030
      25     H     0.42279  0.42279  0.00000  0.15442
      26     H     0.41936  0.41936  0.00000  0.16127
      27     H     0.42051  0.42051  0.00000  0.15899
      28     H     0.41730  0.41730  0.00000  0.16541

   Total alpha = 40.00000, Total beta = 40.00000, Total charge =  0.00000
