  ==> Input File <==

--------------------------------------------------------------------------
set {
	reference rhf
	basis 6-31G*
}

set_num_threads( 4 )
memory 2 gb

molecule MOL {
0 1

H	 -3.567428	 0.504479	 -0.274338
O	 -3.106509	 -0.268149	 0.022670
C	 -1.775859	 -0.075673	 0.002908
C	 -1.206434	 1.125114	 -0.410452
C	 -0.971931	 -1.131052	 0.415149
H	 -1.836697	 1.938114	 -0.728429
C	 0.165445	 1.265717	 -0.409887
H	 -1.434802	 -2.047153	 0.729442
C	 0.398504	 -0.975114	 0.410109
H	 0.618290	 2.186550	 -0.726268
C	 0.984182	 0.218375	 0.000000
H	 1.021951	 -1.792660	 0.729475
C	 2.452467	 0.370529	 0.000000
O	 3.228994	 -0.533774	 0.000000
H	 2.809473	 1.405765	 0.000000

	symmetry c1
}
set optking {
	frozen_dihedral = ("
		7 11 13 14
	")
}

ee = optimize('scf')
oeprop('DIPOLE', 'QUADRUPOLE', 'MULLIKEN_CHARGES')
f=open( 'psi4out.xyz', 'w' )
f.write( "15  " )
f.write( str(ee) + "\n" )
f.write( MOL.save_string_xyz() )
f.close()
--------------------------------------------------------------------------

    Molecular point group: c1
  Charge       = 0
  Multiplicity = 1
  Basis Set: 6-31G*
  Basis Set:
  @DF-RHF Final Energy:  -418.28788407690422
    Total Energy =                       -418.2878840769041062
    Molecular point group: c1
  Basis Set: 6-31G*
  Basis Set:
  Basis Set: 6-31G*
  Basis Set:
  @DF-RHF Final Energy:  -418.28721017069972
    Total Energy =                       -418.2872101706999501
  Basis Set: 6-31G*
  Basis Set:
  Basis Set: 6-31G*
  Basis Set:
  @DF-RHF Final Energy:  -418.28821381095770
    Total Energy =                       -418.2882138109576999
  Basis Set: 6-31G*
  Basis Set:
  Basis Set: 6-31G*
  Basis Set:
  @DF-RHF Final Energy:  -418.28839237562232
    Total Energy =                       -418.2883923756226068
  Basis Set: 6-31G*
  Basis Set:
  Basis Set: 6-31G*
  Basis Set:
  @DF-RHF Final Energy:  -418.28839742685523
    Total Energy =                       -418.2883974268554539
  Basis Set: 6-31G*
  Basis Set:
  Charge       = 0
  Multiplicity = 1
  Basis Set: 6-31G*
  Basis Set:

    Orbital Energies (a.u.)
    -----------------------

    Doubly Occupied:

       1A    -20.610695     2A    -20.556906     3A    -11.328366
       4A    -11.323226     5A    -11.263076     6A    -11.253621
       7A    -11.245060     8A    -11.239213     9A    -11.237550
      10A     -1.431704    11A     -1.397905    12A     -1.170421
      13A     -1.042688    14A     -1.036822    15A     -0.893388
      16A     -0.858417    17A     -0.802826    18A     -0.756446
      19A     -0.695745    20A     -0.685567    21A     -0.639728
      22A     -0.625095    23A     -0.608797    24A     -0.607826
      25A     -0.583530    26A     -0.557626    27A     -0.546620
      28A     -0.506437    29A     -0.484241    30A     -0.418761
      31A     -0.356996    32A     -0.326625

  @DF-RHF Final Energy:  -418.28839886996684

   => Energetics <=

    Nuclear Repulsion Energy =            401.3605062330849478
    One-Electron Energy =               -1365.1139667453098809
    Two-Electron Energy =                 545.4650616422582061
    DFT Exchange-Correlation Energy =       0.0000000000000000
    Empirical Dispersion Energy =           0.0000000000000000
    PCM Polarization Energy =               0.0000000000000000
    EFP Energy =                            0.0000000000000000
    Total Energy =                       -418.2883988699667270
    Molecular point group: c1
  Basis Set: 6-31G*
  Basis Set:

  -Total Gradient:
     Atom            X                  Y                   Z
    ------   -----------------  -----------------  -----------------
       1       -0.000013177436     0.000001428061     0.000001177897
       2       -0.000000385402     0.000036293415     0.000005780876
       3        0.000029916852    -0.000055335435    -0.000047942413
       4       -0.000001357951     0.000006207027    -0.000005142901
       5       -0.000017004972     0.000046647728     0.000013277846
       6       -0.000014108501    -0.000003945096     0.000009563136
       7        0.000002553960    -0.001358993693    -0.003377717786
       8        0.000009997085     0.000002206136    -0.000000300767
       9        0.000006076824     0.000036030775     0.000027172539
      10       -0.000012250035    -0.000007884273    -0.000006733946
      11       -0.000045217930     0.001862448652     0.002953756726
      12        0.000006868031     0.000001992002    -0.000022758250
      13        0.000207209551    -0.000417165446     0.004920172696
      14       -0.000142058633    -0.000147146060    -0.004473091852
      15       -0.000017061450    -0.000002783795     0.000002786198

  **** Optimization is complete! (in 6 steps) ****
    Final optimized geometry and variables:
    Molecular point group: c1

    Geometry (in Angstrom), charge = 0, multiplicity = 1:

    H           -3.568095859515     0.504327160234    -0.308757321335
    O           -3.105509618275    -0.264860934893    -0.005716803631
    C           -1.775808515993    -0.063007075829    -0.010369556652
    C           -1.207431177691     1.135908650653    -0.412628223078
    C           -0.970582264665    -1.120657437904     0.409939762258
    H           -1.831908673923     1.947673285499    -0.744133712204
    C            0.169646310815     1.277782886297    -0.383338892760
    H           -1.437790034803    -2.039010499246     0.711756010072
    C            0.395450601856    -0.969774661749     0.419230347250
    H            0.608179645531     2.210929046114    -0.693009587580
    C            0.983114734891     0.238327382465     0.037692193052
    H            1.029394242320    -1.781738446595     0.722845347772
    C            2.453122938745     0.377747430088    -0.012406109973
    O            3.219923502676    -0.534255858822    -0.004326076460
    H            2.818664585425     1.406105343086    -0.102263823855

  Mulliken Charges: (a.u.)
   Center  Symbol    Alpha    Beta     Spin     Total
       1     H     0.26892  0.26892  0.00000  0.46215
       2     O     4.37276  4.37276  0.00000 -0.74551
       3     C     2.78545  2.78545  0.00000  0.42910
       4     C     3.14863  3.14863  0.00000 -0.29727
       5     C     3.12648  3.12648  0.00000 -0.25296
       6     H     0.39905  0.39905  0.00000  0.20190
       7     C     3.09234  3.09234  0.00000 -0.18468
       8     H     0.38557  0.38557  0.00000  0.22887
       9     C     3.07910  3.07910  0.00000 -0.15820
      10     H     0.39027  0.39027  0.00000  0.21946
      11     C     3.06471  3.06471  0.00000 -0.12942
      12     H     0.37613  0.37613  0.00000  0.24774
      13     C     2.83413  2.83413  0.00000  0.33174
      14     O     4.25034  4.25034  0.00000 -0.50068
      15     H     0.42612  0.42612  0.00000  0.14776

   Total alpha = 32.00000, Total beta = 32.00000, Total charge = -0.00000
