                              Psi4 1.0.54 Driver

  ==> Input File <==

--------------------------------------------------------------------------
set {
	reference rhf
	basis cc-pvtz
}

set_num_threads( 4 )
memory 2 gb

molecule MOL {
0 1

H	 2.806707	 1.922176	 -0.235009
C	 2.274777	 1.002099	 -0.017535
C	 0.781608	 1.190491	 -0.248745
H	 2.463308	 0.731269	 1.013983
H	 2.692904	 0.226390	 -0.646962
N	 0.000297	 0.000045	 0.046090
H	 0.441707	 1.990075	 0.394878
H	 0.604322	 1.530747	 -1.272818
C	 -1.359159	 0.315706	 0.454404
C	 0.043405	 -0.973479	 -1.033224
C	 -2.416729	 -0.286720	 -0.460525
H	 -1.478729	 1.390261	 0.442008
H	 -1.539692	 0.003361	 1.486761
C	 -0.147782	 -2.407156	 -0.557350
H	 1.008931	 -0.906765	 -1.515268
H	 -0.695938	 -0.736194	 -1.803276
H	 -2.285276	 0.073129	 -1.473515
H	 -2.371743	 -1.368476	 -0.483209
H	 -3.408658	 -0.007405	 -0.121593
H	 0.623711	 -2.671826	 0.155150
H	 -1.107830	 -2.556178	 -0.078938
H	 -0.090825	 -3.091540	 -1.397104

	symmetry c1
}
set optking {
	frozen_dihedral = ("
		3 6 9 11
	")
}

ee,wfn = optimize('scf', return_wfn=True)
oeprop( wfn, 'DIPOLE', 'QUADRUPOLE', 'MULLIKEN_CHARGES')
f=open( 'psi4out.xyz', 'w' )
f.write( "22  " )
f.write( str(ee) + "\n" )
f.write( MOL.save_string_xyz() )
f.close()
--------------------------------------------------------------------------

    Molecular point group: c1
  Charge       = 0
  Multiplicity = 1
  Basis Set: CC-PVTZ
  Basis Set:
  @DF-RHF Final Energy:  -290.45343269256023
    Total Energy =                       -290.4534326925602841
    Molecular point group: c1
  Basis Set: CC-PVTZ
  Basis Set:
  Basis Set: CC-PVTZ
  Basis Set:
  @DF-RHF Final Energy:  -290.17886340186209
    Total Energy =                       -290.1788634018615767
  Basis Set: CC-PVTZ
  Basis Set:
  Basis Set: CC-PVTZ
  Basis Set:
  @DF-RHF Final Energy:  -290.32309969047134
    Total Energy =                       -290.3230996904716221
  Basis Set: CC-PVTZ
  Basis Set:
  Basis Set: CC-PVTZ
  Basis Set:
  @DF-RHF Final Energy:  -290.42547800322956
    Total Energy =                       -290.4254780032295571
  Basis Set: CC-PVTZ
  Basis Set:
  @DF-RHF Final Energy:  -290.45909338530902
    Total Energy =                       -290.4590933853090178
  @DF-RHF Final Energy:  -290.18287691147498
    Total Energy =                       -290.1828769114753186
  @DF-RHF Final Energy:  -290.32857680465571
    Total Energy =                       -290.3285768046557109
  @DF-RHF Final Energy:  -290.41600899161654
    Total Energy =                       -290.4160089916164793
  @DF-RHF Final Energy:  -290.44063373800918
    Total Energy =                       -290.4406337380091259
  @DF-RHF Final Energy:  -290.46101206341950
    Total Energy =                       -290.4610120634197870
  @DF-RHF Final Energy:  -290.46493206384423
    Total Energy =                       -290.4649320638442305
  @DF-RHF Final Energy:  -290.45653302884773
    Total Energy =                       -290.4565330288479572
  @DF-RHF Final Energy:  -290.46579472454169
    Total Energy =                       -290.4657947245416381
  @DF-RHF Final Energy:  -290.46635620222378
    Total Energy =                       -290.4663562022237784
  @DF-RHF Final Energy:  -290.45713504508143
    Total Energy =                       -290.4571350450816567
  @DF-RHF Final Energy:  -290.46672571870090
    Total Energy =                       -290.4667257187006726
  @DF-RHF Final Energy:  -290.45258969332588
    Total Energy =                       -290.4525896933256490
  @DF-RHF Final Energy:  -290.46679749746460
    Total Energy =                       -290.4667974974645404
  @DF-RHF Final Energy:  -290.46667089391832
    Total Energy =                       -290.4666708939182058
  @DF-RHF Final Energy:  -290.46718644493910
    Total Energy =                       -290.4671864449388750
  @DF-RHF Final Energy:  -290.43172913207860
    Total Energy =                       -290.4317291320782033
  @DF-RHF Final Energy:  -290.46533029164908
    Total Energy =                       -290.4653302916491384
  @DF-RHF Final Energy:  -290.46774695011902
    Total Energy =                       -290.4677469501188511
  @DF-RHF Final Energy:  -290.46797560982509
    Total Energy =                       -290.4679756098251460
  @DF-RHF Final Energy:  -290.46811891047332
    Total Energy =                       -290.4681189104736063
  @DF-RHF Final Energy:  -290.46832296101377
    Total Energy =                       -290.4683229610139961
  @DF-RHF Final Energy:  -290.46863830451292
    Total Energy =                       -290.4686383045126377
  @DF-RHF Final Energy:  -290.46897417560984
    Total Energy =                       -290.4689741756102990
  @DF-RHF Final Energy:  -290.46930645461504
    Total Energy =                       -290.4693064546150936
  @DF-RHF Final Energy:  -290.46907638640454
    Total Energy =                       -290.4690763864047085
  @DF-RHF Final Energy:  -290.46975649486984
    Total Energy =                       -290.4697564948698414
  @DF-RHF Final Energy:  -290.46990620450748
    Total Energy =                       -290.4699062045074243
  @DF-RHF Final Energy:  -290.47001913979108
    Total Energy =                       -290.4700191397909066
  @DF-RHF Final Energy:  -290.47019681674630
    Total Energy =                       -290.4701968167464088
  @DF-RHF Final Energy:  -290.47023535001824
    Total Energy =                       -290.4702353500181289
  @DF-RHF Final Energy:  -290.47040346609606
    Total Energy =                       -290.4704034660965135
  Basis Set: CC-PVTZ
  Basis Set:
  @DF-RHF Final Energy:  -290.47044852250934
    Total Energy =                       -290.4704485225093435
  Basis Set: CC-PVTZ
  Basis Set:
  Basis Set: CC-PVTZ
  Basis Set:
  @DF-RHF Final Energy:  -290.47046671908606
    Total Energy =                       -290.4704667190859482
  Basis Set: CC-PVTZ
  Basis Set:
  Basis Set: CC-PVTZ
  Basis Set:
  @DF-RHF Final Energy:  -290.47047803614237
    Total Energy =                       -290.4704780361421967
  Basis Set: CC-PVTZ
  Basis Set:
  Charge       = 0
  Multiplicity = 1
  Basis Set: CC-PVTZ
  Basis Set:

    Orbital Energies (a.u.)
    -----------------------

    Doubly Occupied:

       1A    -15.523243     2A    -11.240559     3A    -11.239818
       4A    -11.238891     5A    -11.202808     6A    -11.202529
       7A    -11.200542     8A     -1.220274     9A     -1.022867
      10A     -1.021480    11A     -0.957025    12A     -0.858169
      13A     -0.852052    14A     -0.756452    15A     -0.658454
      16A     -0.651115    17A     -0.609240    18A     -0.575819
      19A     -0.573925    20A     -0.567844    21A     -0.541304
      22A     -0.522853    23A     -0.520280    24A     -0.505631
      25A     -0.498321    26A     -0.479971    27A     -0.470616
      28A     -0.461796    29A     -0.321307

  @DF-RHF Final Energy:  -290.47047885351373

   => Energetics <=

    Nuclear Repulsion Energy =            338.9118940537513822
    One-Electron Energy =               -1063.7743852767130193
    Two-Electron Energy =                 434.3920123694479685
    DFT Exchange-Correlation Energy =       0.0000000000000000
    Empirical Dispersion Energy =           0.0000000000000000
    PCM Polarization Energy =               0.0000000000000000
    EFP Energy =                            0.0000000000000000
    Total Energy =                       -290.4704788535136117
    Molecular point group: c1
  Basis Set: CC-PVTZ
  Basis Set:

  -Total Gradient:
     Atom            X                  Y                   Z
    ------   -----------------  -----------------  -----------------
       1       -0.000006777813    -0.000005956866    -0.000004594468
       2       -0.000008702555     0.000024712553     0.000009037414
       3        0.000323275393    -0.000323460320     0.000556424104
       4        0.000001535913    -0.000006300444     0.000003528126
       5        0.000013794454    -0.000005322249     0.000007242352
       6       -0.000252537528     0.000458705364    -0.000808477595
       7        0.000006294810    -0.000001363194    -0.000018380591
       8        0.000013027387    -0.000000746860    -0.000000341622
       9       -0.000718436766    -0.000045171468     0.000285410830
      10        0.000028479991    -0.000008894392     0.000005613750
      11        0.000617339577    -0.000071125807    -0.000029904114
      12       -0.000004036662     0.000004264276    -0.000002892212
      13        0.000011309472     0.000000246408     0.000005625267
      14       -0.000003410767    -0.000019937152     0.000031474966
      15       -0.000011937225     0.000012001406    -0.000007954880
      16        0.000003767577    -0.000008046700    -0.000000628406
      17       -0.000008247510     0.000004763393    -0.000006270632
      18        0.000001709406    -0.000000811153    -0.000000500560
      19        0.000000273529    -0.000011295813     0.000006291702
      20        0.000000125123    -0.000004663529    -0.000018936172
      21       -0.000012791348     0.000001289907     0.000003742684
      22        0.000005945540     0.000007112640    -0.000015509941

  **** Optimization is complete! (in 42 steps) ****
    Final optimized geometry and variables:
    Molecular point group: c1

    Geometry (in Angstrom), charge = 0, multiplicity = 1:

    H            2.443558438134     1.757120667872    -1.452094366869
    C            1.481941987755     1.265880225733    -1.342237672464
    C            1.343280446380     0.712344217396     0.080214451915
    H            1.431898957121     0.475601767418    -2.082575352702
    H            0.712394328074     1.988954866726    -1.576453470621
    N            0.166491132810    -0.063116382454     0.388059852124
    H            2.213818726699     0.095782595673     0.285365035480
    H            1.389667333668     1.536970668470     0.783379280684
    C            0.015818993845    -1.345162383810    -0.264440516373
    C           -1.039950621494     0.614549686855     0.794403257112
    C           -0.061768177643    -2.508545589203     0.720380332591
    H            0.864026633787    -1.506958690173    -0.918285338044
    H           -0.859989109251    -1.363203929010    -0.910126770860
    C           -1.869095170566     1.311195443102    -0.290326020547
    H           -0.778910137010     1.344739713410     1.553581202659
    H           -1.675348980671    -0.112113664105     1.289350346926
    H            0.838030146815    -2.556110149157     1.322079756202
    H           -0.905007822573    -2.401963137643     1.392691157719
    H           -0.173682944997    -3.451243584199     0.193717645743
    H           -1.351939772417     2.164574045924    -0.708899012819
    H           -2.115393072627     0.637222142832    -1.102638339080
    H           -2.801229418438     1.669131550012     0.135004416109

  Mulliken Charges: (a.u.)
   Center  Symbol    Alpha    Beta     Spin     Total
       1     H     0.44925  0.44925  0.00000  0.10149
       2     C     3.15028  3.15028  0.00000 -0.30056
       3     C     3.05580  3.05580  0.00000 -0.11160
       4     H     0.45379  0.45379  0.00000  0.09242
       5     H     0.45316  0.45316  0.00000  0.09367
       6     N     3.61103  3.61103  0.00000 -0.22206
       7     H     0.45145  0.45145  0.00000  0.09711
       8     H     0.45251  0.45251  0.00000  0.09499
       9     C     3.05031  3.05031  0.00000 -0.10062
      10     C     3.05230  3.05230  0.00000 -0.10460
      11     C     3.13230  3.13230  0.00000 -0.26459
      12     H     0.45253  0.45253  0.00000  0.09495
      13     H     0.45752  0.45752  0.00000  0.08495
      14     C     3.15335  3.15335  0.00000 -0.30671
      15     H     0.45147  0.45147  0.00000  0.09707
      16     H     0.45219  0.45219  0.00000  0.09562
      17     H     0.45409  0.45409  0.00000  0.09181
      18     H     0.45627  0.45627  0.00000  0.08745
      19     H     0.45664  0.45664  0.00000  0.08673
      20     H     0.45316  0.45316  0.00000  0.09367
      21     H     0.45230  0.45230  0.00000  0.09539
      22     H     0.44828  0.44828  0.00000  0.10344

   Total alpha = 29.00000, Total beta = 29.00000, Total charge = -0.00000

*** Psi4 exiting successfully. Buy a developer a beer!
