                              Psi4 1.0.54 Driver

  ==> Input File <==

--------------------------------------------------------------------------
set {
	reference rhf
	basis cc-pvtz
}

set_num_threads( 4 )
memory 2 gb

molecule MOL {
0 1

O	 -0.694481	 1.313155	 -0.204815
C	 -0.862519	 0.151932	 -0.046791
C	 -2.171428	 -0.477048	 0.339095
O	 0.085519	 -0.757083	 -0.192238
H	 -2.467997	 -1.191667	 -0.417688
H	 -2.923379	 0.287970	 0.444097
H	 -2.053854	 -1.015120	 1.270901
C	 1.392036	 -0.330828	 -0.560749
C	 2.010718	 0.557652	 0.498371
H	 1.345844	 0.173770	 -1.513147
H	 1.956154	 -1.244471	 -0.673797
H	 3.027036	 0.806985	 0.214853
H	 1.452512	 1.477611	 0.605437
H	 2.038940	 0.049962	 1.454953

	symmetry c1
}
set optking {
	frozen_dihedral = ("
		10 8 4 2
	")
}

ee,wfn = optimize('scf', return_wfn=True)
oeprop( wfn, 'DIPOLE', 'QUADRUPOLE', 'MULLIKEN_CHARGES')
f=open( 'psi4out.xyz', 'w' )
f.write( "14  " )
f.write( str(ee) + "\n" )
f.write( MOL.save_string_xyz() )
f.close()
--------------------------------------------------------------------------

    Molecular point group: c1
  Charge       = 0
  Multiplicity = 1
  Basis Set: CC-PVTZ
  Basis Set:
  @DF-RHF Final Energy:  -305.98827483613167
    Total Energy =                       -305.9882748361317795
    Molecular point group: c1
  Basis Set: CC-PVTZ
  Basis Set:
  Basis Set: CC-PVTZ
  Basis Set:
  @DF-RHF Final Energy:  -305.98950693277220
    Total Energy =                       -305.9895069327720876
  Basis Set: CC-PVTZ
  Basis Set:
  Basis Set: CC-PVTZ
  Basis Set:
  @DF-RHF Final Energy:  -305.97763043671785
    Total Energy =                       -305.9776304367176181
  Basis Set: CC-PVTZ
  Basis Set:
  Basis Set: CC-PVTZ
  Basis Set:
  @DF-RHF Final Energy:  -305.98867193571954
    Total Energy =                       -305.9886719357194238
  Basis Set: CC-PVTZ
  Basis Set:
  Basis Set: CC-PVTZ
  Basis Set:
  @DF-RHF Final Energy:  -305.98960676671385
    Total Energy =                       -305.9896067667138482
  Basis Set: CC-PVTZ
  Basis Set:
  Basis Set: CC-PVTZ
  Basis Set:
  @DF-RHF Final Energy:  -305.98963089588108
    Total Energy =                       -305.9896308958814188
  Basis Set: CC-PVTZ
  Basis Set:
  Basis Set: CC-PVTZ
  Basis Set:
  @DF-RHF Final Energy:  -305.98968462855282
    Total Energy =                       -305.9896846285528227
  Basis Set: CC-PVTZ
  Basis Set:
  Charge       = 0
  Multiplicity = 1
  Basis Set: CC-PVTZ
  Basis Set:

    Orbital Energies (a.u.)
    -----------------------

    Doubly Occupied:

       1A    -20.594237     2A    -20.532781     3A    -11.367652
       4A    -11.285085     5A    -11.231336     6A    -11.215395
       7A     -1.470084     8A     -1.365632     9A     -1.055528
      10A     -0.999127    11A     -0.887546    12A     -0.760871
      13A     -0.700419    14A     -0.685372    15A     -0.662953
      16A     -0.612275    17A     -0.588948    18A     -0.571211
      19A     -0.556599    20A     -0.531562    21A     -0.516994
      22A     -0.494546    23A     -0.455948    24A     -0.439686

  @DF-RHF Final Energy:  -305.98968511885130

   => Energetics <=

    Nuclear Repulsion Energy =            249.9598134855249327
    One-Electron Energy =                -912.7354259536107293
    Two-Electron Energy =                 356.7859273492346119
    DFT Exchange-Correlation Energy =       0.0000000000000000
    Empirical Dispersion Energy =           0.0000000000000000
    PCM Polarization Energy =               0.0000000000000000
    EFP Energy =                            0.0000000000000000
    Total Energy =                       -305.9896851188511846
    Molecular point group: c1
  Basis Set: CC-PVTZ
  Basis Set:

  -Total Gradient:
     Atom            X                  Y                   Z
    ------   -----------------  -----------------  -----------------
       1        0.000013174279     0.000017644219    -0.000023959350
       2        0.000191791648     0.000796210493     0.003548983044
       3       -0.000017986673     0.000011886063     0.000091341856
       4        0.000154625383    -0.002098803120    -0.005489957303
       5       -0.000003373484     0.000008129326    -0.000029590810
       6       -0.000005571023    -0.000000255416    -0.000007978412
       7        0.000000845453    -0.000021596939    -0.000027172423
       8       -0.002043638885     0.004814689674     0.003287874054
       9       -0.000007755907    -0.000019164935     0.000003012095
      10        0.001729747315    -0.003498802556    -0.001366819463
      11       -0.000012482489    -0.000004584534     0.000010382744
      12       -0.000002185502    -0.000005098937    -0.000002231775
      13        0.000000607071    -0.000003380020    -0.000003836808
      14        0.000002202814     0.000003126690     0.000009952550

  **** Optimization is complete! (in 8 steps) ****
    Final optimized geometry and variables:
    Molecular point group: c1

    Geometry (in Angstrom), charge = 0, multiplicity = 1:

    O           -0.914024256519     0.997980953463    -0.522567209981
    C           -0.827651448961    -0.125478937100    -0.159324585100
    C           -1.995661262115    -0.992901792830     0.217032303009
    O            0.314130191368    -0.780769172972    -0.051574783599
    H           -2.006164933047    -1.878000316922    -0.405698043834
    H           -2.912047897431    -0.439264753465     0.092797237751
    H           -1.891232648991    -1.315733127615     1.244887885014
    C            1.540435525182    -0.092123701903    -0.271857557629
    C            1.844729660534     0.965888321718     0.768728182388
    H            1.548440849021     0.302225375762    -1.278362507341
    H            2.281432452764    -0.876646239126    -0.225481244420
    H            2.847060243315     1.343681275013     0.600873766271
    H            1.153132504068     1.791908711881     0.716106445264
    H            1.810252415607     0.537122607777     1.763657226144

  Mulliken Charges: (a.u.)
   Center  Symbol    Alpha    Beta     Spin     Total
       1     O     4.19944  4.19944  0.00000 -0.39888
       2     C     2.80110  2.80110  0.00000  0.39780
       3     C     3.13792  3.13792  0.00000 -0.27584
       4     O     4.15641  4.15641  0.00000 -0.31283
       5     H     0.44506  0.44506  0.00000  0.10988
       6     H     0.43837  0.43837  0.00000  0.12327
       7     H     0.44647  0.44647  0.00000  0.10706
       8     C     2.98367  2.98367  0.00000  0.03267
       9     C     3.15433  3.15433  0.00000 -0.30866
      10     H     0.45248  0.45248  0.00000  0.09505
      11     H     0.44537  0.44537  0.00000  0.10927
      12     H     0.45029  0.45029  0.00000  0.09943
      13     H     0.43589  0.43589  0.00000  0.12823
      14     H     0.45322  0.45322  0.00000  0.09356

   Total alpha = 24.00000, Total beta = 24.00000, Total charge =  0.00000

*** Psi4 exiting successfully. Buy a developer a beer!
