  ==> Input File <==

--------------------------------------------------------------------------
set {
	reference rhf
	basis 6-31G*
}

set_num_threads( 4 )
memory 2 gb

molecule MOL {
0 1

H	 -3.567428	 0.504479	 0.274338
O	 -3.106509	 -0.268149	 -0.022670
C	 -1.775859	 -0.075673	 -0.002908
C	 -1.206434	 1.125114	 0.410452
C	 -0.971931	 -1.131052	 -0.415149
H	 -1.836697	 1.938114	 0.728429
C	 0.165445	 1.265717	 0.409887
H	 -1.434802	 -2.047153	 -0.729442
C	 0.398504	 -0.975114	 -0.410109
H	 0.618290	 2.186550	 0.726268
C	 0.984182	 0.218375	 0.000000
H	 1.021951	 -1.792660	 -0.729475
C	 2.452467	 0.370529	 0.000000
O	 3.228994	 -0.533774	 0.000000
H	 2.809473	 1.405765	 0.000000

	symmetry c1
}
set optking {
	frozen_dihedral = ("
		7 11 13 14
	")
}

ee = optimize('scf')
oeprop('DIPOLE', 'QUADRUPOLE', 'MULLIKEN_CHARGES')
f=open( 'psi4out.xyz', 'w' )
f.write( "15  " )
f.write( str(ee) + "\n" )
f.write( MOL.save_string_xyz() )
f.close()
--------------------------------------------------------------------------

    Molecular point group: c1
  Charge       = 0
  Multiplicity = 1
  Basis Set: 6-31G*
  Basis Set:
  @DF-RHF Final Energy:  -418.28788407562797
    Total Energy =                       -418.2878840756281988
    Molecular point group: c1
  Basis Set: 6-31G*
  Basis Set:
  Basis Set: 6-31G*
  Basis Set:
  @DF-RHF Final Energy:  -418.28721017383469
    Total Energy =                       -418.2872101738345236
  Basis Set: 6-31G*
  Basis Set:
  Basis Set: 6-31G*
  Basis Set:
  @DF-RHF Final Energy:  -418.28821381098311
    Total Energy =                       -418.2882138109835068
  Basis Set: 6-31G*
  Basis Set:
  Basis Set: 6-31G*
  Basis Set:
  @DF-RHF Final Energy:  -418.28839237387712
    Total Energy =                       -418.2883923738772864
  Basis Set: 6-31G*
  Basis Set:
  Basis Set: 6-31G*
  Basis Set:
  @DF-RHF Final Energy:  -418.28839742760937
    Total Energy =                       -418.2883974276091976
  Basis Set: 6-31G*
  Basis Set:
  Charge       = 0
  Multiplicity = 1
  Basis Set: 6-31G*
  Basis Set:

    Orbital Energies (a.u.)
    -----------------------

    Doubly Occupied:

       1A    -20.610695     2A    -20.556906     3A    -11.328366
       4A    -11.323226     5A    -11.263076     6A    -11.253621
       7A    -11.245060     8A    -11.239213     9A    -11.237550
      10A     -1.431704    11A     -1.397905    12A     -1.170422
      13A     -1.042688    14A     -1.036822    15A     -0.893388
      16A     -0.858417    17A     -0.802826    18A     -0.756446
      19A     -0.695745    20A     -0.685567    21A     -0.639728
      22A     -0.625095    23A     -0.608797    24A     -0.607826
      25A     -0.583530    26A     -0.557626    27A     -0.546620
      28A     -0.506437    29A     -0.484241    30A     -0.418761
      31A     -0.356996    32A     -0.326625

  @DF-RHF Final Energy:  -418.28839887010184

   => Energetics <=

    Nuclear Repulsion Energy =            401.3605212247636587
    One-Electron Energy =               -1365.1139965262254918
    Two-Electron Energy =                 545.4650764313599893
    DFT Exchange-Correlation Energy =       0.0000000000000000
    Empirical Dispersion Energy =           0.0000000000000000
    PCM Polarization Energy =               0.0000000000000000
    EFP Energy =                            0.0000000000000000
    Total Energy =                       -418.2883988701017870
    Molecular point group: c1
  Basis Set: 6-31G*
  Basis Set:

  -Total Gradient:
     Atom            X                  Y                   Z
    ------   -----------------  -----------------  -----------------
       1       -0.000013155919     0.000001359907    -0.000001204114
       2       -0.000000437013     0.000036376530    -0.000005742116
       3        0.000030189591    -0.000055349184     0.000047911227
       4       -0.000001253877     0.000006157928     0.000005103512
       5       -0.000016972528     0.000046715084    -0.000013240769
       6       -0.000013989255    -0.000004085203    -0.000009617784
       7        0.000002550737    -0.001358976978     0.003377754254
       8        0.000010089241     0.000002380093     0.000000352610
       9        0.000006085438     0.000035966704    -0.000027186402
      10       -0.000012337657    -0.000008040808     0.000006675338
      11       -0.000045865222     0.001862446269    -0.002953752048
      12        0.000006746586     0.000002142169     0.000022814356
      13        0.000207545438    -0.000417172744    -0.004920171418
      14       -0.000142114319    -0.000147065819     0.004473092938
      15       -0.000017081242    -0.000002853947    -0.000002789584

  **** Optimization is complete! (in 6 steps) ****
    Final optimized geometry and variables:
    Molecular point group: c1

    Geometry (in Angstrom), charge = 0, multiplicity = 1:

    H           -3.568095763894     0.504327231671     0.308757266266
    O           -3.105509554838    -0.264860879218     0.005716809702
    C           -1.775808414407    -0.063007103293     0.010369510554
    C           -1.207431096871     1.135908580658     0.412628184547
    C           -0.970582238928    -1.120657403432    -0.409939690323
    H           -1.831908515860     1.947673149155     0.744133704906
    C            0.169646253955     1.277782785203     0.383338986565
    H           -1.437789899625    -2.039010407674    -0.711755872198
    C            0.395450535743    -0.969774633340    -0.419230326824
    H            0.608179559715     2.210928863132     0.693009589001
    C            0.983114557539     0.238327326503    -0.037692190638
    H            1.029394137449    -1.781738294127    -0.722845221185
    C            2.453122931302     0.377747450701     0.012406095965
    O            3.219923504340    -0.534255784160     0.004325986462
    H            2.818664540265     1.406105314694     0.102263881413

  Mulliken Charges: (a.u.)
   Center  Symbol    Alpha    Beta     Spin     Total
       1     H     0.26892  0.26892  0.00000  0.46215
       2     O     4.37276  4.37276  0.00000 -0.74551
       3     C     2.78545  2.78545  0.00000  0.42910
       4     C     3.14863  3.14863  0.00000 -0.29727
       5     C     3.12648  3.12648  0.00000 -0.25296
       6     H     0.39905  0.39905  0.00000  0.20190
       7     C     3.09234  3.09234  0.00000 -0.18468
       8     H     0.38557  0.38557  0.00000  0.22887
       9     C     3.07910  3.07910  0.00000 -0.15820
      10     H     0.39027  0.39027  0.00000  0.21946
      11     C     3.06471  3.06471  0.00000 -0.12942
      12     H     0.37613  0.37613  0.00000  0.24774
      13     C     2.83413  2.83413  0.00000  0.33174
      14     O     4.25034  4.25034  0.00000 -0.50068
      15     H     0.42612  0.42612  0.00000  0.14776

   Total alpha = 32.00000, Total beta = 32.00000, Total charge =  0.00000
