                              Psi4 1.0.54 Driver

  ==> Input File <==

--------------------------------------------------------------------------
set {
	reference rhf
	basis cc-pvtz
}

set_num_threads( 4 )
memory 2 gb

molecule MOL {
0 1

H	 2.190573	 -0.629143	 -0.208718
O	 1.355408	 -0.529451	 0.208662
C	 0.700177	 0.619554	 -0.266242
C	 -0.713111	 0.588314	 0.266177
H	 0.678680	 0.627133	 -1.351786
H	 1.199747	 1.521489	 0.077736
O	 -1.421673	 -0.521378	 -0.196983
H	 -1.244794	 1.469161	 -0.069059
H	 -0.685100	 0.604721	 1.352683
H	 -0.804845	 -1.170987	 -0.486041

	symmetry c1
}
set optking {
	frozen_dihedral = ("
		10 7 4 3
	")
}

ee,wfn = optimize('scf', return_wfn=True)
oeprop( wfn, 'DIPOLE', 'QUADRUPOLE', 'MULLIKEN_CHARGES')
f=open( 'psi4out.xyz', 'w' )
f.write( "10  " )
f.write( str(ee) + "\n" )
f.write( MOL.save_string_xyz() )
f.close()
--------------------------------------------------------------------------

    Molecular point group: c1
  Charge       = 0
  Multiplicity = 1
  Basis Set: CC-PVTZ
  Basis Set:
  @DF-RHF Final Energy:  -229.02597298523793
    Total Energy =                       -229.0259729852379280
    Molecular point group: c1
  Basis Set: CC-PVTZ
  Basis Set:
  Basis Set: CC-PVTZ
  Basis Set:
  @DF-RHF Final Energy:  -229.02628020571848
    Total Energy =                       -229.0262802057185354
  Basis Set: CC-PVTZ
  Basis Set:
  Basis Set: CC-PVTZ
  Basis Set:
  @DF-RHF Final Energy:  -229.02640739215977
    Total Energy =                       -229.0264073921597401
  Basis Set: CC-PVTZ
  Basis Set:
  Basis Set: CC-PVTZ
  Basis Set:
  @DF-RHF Final Energy:  -229.02640924346446
    Total Energy =                       -229.0264092434644283
  Basis Set: CC-PVTZ
  Basis Set:
  Charge       = 0
  Multiplicity = 1
  Basis Set: CC-PVTZ
  Basis Set:

    Orbital Energies (a.u.)
    -----------------------

    Doubly Occupied:

       1A    -20.565014     2A    -20.539995     3A    -11.279381
       4A    -11.266961     5A     -1.389136     6A     -1.354547
       7A     -1.005548     8A     -0.849074     9A     -0.730243
      10A     -0.672817    11A     -0.665509    12A     -0.604561
      13A     -0.577483    14A     -0.548110    15A     -0.482122
      16A     -0.460801    17A     -0.435792

  @DF-RHF Final Energy:  -229.02640948358160

   => Energetics <=

    Nuclear Repulsion Energy =            134.7210447631667591
    One-Electron Energy =                -580.6407187451484333
    Two-Electron Energy =                 216.8932644984000433
    DFT Exchange-Correlation Energy =       0.0000000000000000
    Empirical Dispersion Energy =           0.0000000000000000
    PCM Polarization Energy =               0.0000000000000000
    EFP Energy =                            0.0000000000000000
    Total Energy =                       -229.0264094835816024
    Molecular point group: c1
  Basis Set: CC-PVTZ
  Basis Set:

  -Total Gradient:
     Atom            X                  Y                   Z
    ------   -----------------  -----------------  -----------------
       1       -0.000005002622    -0.000004190192     0.000002855660
       2        0.000021665320    -0.000005946410    -0.000006038711
       3        0.000800188174    -0.001148793601     0.002187687520
       4       -0.001195985977     0.001924935721    -0.003989487783
       5        0.000006281329    -0.000013884297     0.000019068445
       6        0.000011518552     0.000006921107     0.000006515278
       7        0.000455497880    -0.001957218155     0.005751675661
       8        0.000000052031     0.000003391029    -0.000001829171
       9        0.000001853096    -0.000002465283    -0.000011214223
      10       -0.000096067788     0.001197250081    -0.003959232676

  **** Optimization is complete! (in 5 steps) ****
    Final optimized geometry and variables:
    Molecular point group: c1

    Geometry (in Angstrom), charge = 0, multiplicity = 1:

    H            2.179680905280    -0.671120707368    -0.221732841159
    O            1.329676483301    -0.571731554642     0.165112487295
    C            0.711866482298     0.599112732085    -0.301919080044
    C           -0.696508834651     0.634774776109     0.247040591913
    H            0.683771768728     0.603652321071    -1.388862014920
    H            1.246519148408     1.484884359953     0.028792061836
    O           -1.430185538137    -0.508709659822    -0.079041792462
    H           -1.212095944012     1.500235199613    -0.151909925703
    H           -0.647997247507     0.740922327594     1.327082943664
    H           -0.837587872540    -1.202874545468    -0.305945854087

  Mulliken Charges: (a.u.)
   Center  Symbol    Alpha    Beta     Spin     Total
       1     H     0.39114  0.39114  0.00000  0.21772
       2     O     4.20390  4.20390  0.00000 -0.40781
       3     C     2.98380  2.98380  0.00000  0.03240
       4     C     2.94840  2.94840  0.00000  0.10320
       5     H     0.46849  0.46849  0.00000  0.06301
       6     H     0.46751  0.46751  0.00000  0.06498
       7     O     4.21046  4.21046  0.00000 -0.42092
       8     H     0.46745  0.46745  0.00000  0.06510
       9     H     0.47368  0.47368  0.00000  0.05264
      10     H     0.38517  0.38517  0.00000  0.22967

   Total alpha = 17.00000, Total beta = 17.00000, Total charge =  0.00000

*** Psi4 exiting successfully. Buy a developer a beer!
