  ==> Input File <==

--------------------------------------------------------------------------
set {
	reference rhf
	basis 6-31G*
}

set_num_threads( 4 )
memory 2 gb

molecule MOL {
0 1

O	 -2.324811	 1.361668	 -0.277141
C	 -2.105949	 0.203097	 -0.092081
C	 -0.889235	 -0.467034	 -0.705952
C	 -3.002726	 -0.644460	 0.782455
C	 0.407255	 0.205194	 -0.225987
H	 -0.969319	 -0.370820	 -1.783278
H	 -0.871456	 -1.525239	 -0.461181
C	 1.653266	 -0.425618	 -0.852202
H	 0.350719	 1.260415	 -0.468262
H	 0.476689	 0.134886	 0.858440
C	 2.978873	 0.161525	 -0.354120
H	 1.599996	 -0.324742	 -1.934659
H	 1.647594	 -1.493697	 -0.644781
C	 3.212227	 1.622085	 -0.744384
H	 3.790849	 -0.440967	 -0.753357
H	 3.031936	 0.062189	 0.728194
H	 3.154223	 1.752153	 -1.821622
H	 4.195670	 1.952584	 -0.424993
H	 2.483669	 2.286072	 -0.291488
H	 -3.496582	 -1.399307	 0.176174
H	 -3.747939	 -0.023774	 1.260148
H	 -2.421318	 -1.168775	 1.535358

	symmetry c1
}
set optking {
	frozen_dihedral = ("
		6 3 2 1
	")
}

ee = optimize('scf')
oeprop('DIPOLE', 'QUADRUPOLE', 'MULLIKEN_CHARGES')
f=open( 'psi4out.xyz', 'w' )
f.write( "22  " )
f.write( str(ee) + "\n" )
f.write( MOL.save_string_xyz() )
f.close()
--------------------------------------------------------------------------

    Molecular point group: c1
  Charge       = 0
  Multiplicity = 1
  Basis Set: 6-31G*
  Basis Set:
  @DF-RHF Final Energy:  -348.09823373465360
    Total Energy =                       -348.0982337346537747
    Molecular point group: c1
  Basis Set: 6-31G*
  Basis Set:
  Basis Set: 6-31G*
  Basis Set:
  @DF-RHF Final Energy:  -348.09737653581175
    Total Energy =                       -348.0973765358121454
  Basis Set: 6-31G*
  Basis Set:
  Basis Set: 6-31G*
  Basis Set:
  @DF-RHF Final Energy:  -348.09835311075062
    Total Energy =                       -348.0983531107509066
  Basis Set: 6-31G*
  Basis Set:
  Basis Set: 6-31G*
  Basis Set:
  @DF-RHF Final Energy:  -348.09728559484023
    Total Energy =                       -348.0972855948402866
  Basis Set: 6-31G*
  Basis Set:
  @DF-RHF Final Energy:  -348.09819153577178
    Total Energy =                       -348.0981915357716616
  @DF-RHF Final Energy:  -348.09840204718984
    Total Energy =                       -348.0984020471899498
  Basis Set: 6-31G*
  Basis Set:
  @DF-RHF Final Energy:  -348.09838572810349
    Total Energy =                       -348.0983857281035512
  Basis Set: 6-31G*
  Basis Set:
  Basis Set: 6-31G*
  Basis Set:
  @DF-RHF Final Energy:  -348.09840078112938
    Total Energy =                       -348.0984007811296124
  Basis Set: 6-31G*
  Basis Set:
  Basis Set: 6-31G*
  Basis Set:
  @DF-RHF Final Energy:  -348.09840609113729
    Total Energy =                       -348.0984060911372353
  Basis Set: 6-31G*
  Basis Set:
  Charge       = 0
  Multiplicity = 1
  Basis Set: 6-31G*
  Basis Set:

    Orbital Energies (a.u.)
    -----------------------

    Doubly Occupied:

       1A    -20.547796     2A    -11.325389     3A    -11.229845
       4A    -11.228643     5A    -11.224845     6A    -11.220248
       7A    -11.218811     8A    -11.209284     9A     -1.393843
      10A     -1.093120    11A     -1.042796    12A     -1.000619
      13A     -0.936286    14A     -0.855693    15A     -0.784227
      16A     -0.732308    17A     -0.661674    18A     -0.643814
      19A     -0.623906    20A     -0.620856    21A     -0.596739
      22A     -0.581824    23A     -0.562790    24A     -0.544500
      25A     -0.531237    26A     -0.515160    27A     -0.498372
      28A     -0.485060    29A     -0.468646    30A     -0.462095
      31A     -0.458125    32A     -0.396909

  @DF-RHF Final Energy:  -348.09840614549819

   => Energetics <=

    Nuclear Repulsion Energy =            372.6964785866597367
    One-Electron Energy =               -1210.1988452314903952
    Two-Electron Energy =                 489.4039604993325838
    DFT Exchange-Correlation Energy =       0.0000000000000000
    Empirical Dispersion Energy =           0.0000000000000000
    PCM Polarization Energy =               0.0000000000000000
    EFP Energy =                            0.0000000000000000
    Total Energy =                       -348.0984061454980747
    Molecular point group: c1
  Basis Set: 6-31G*
  Basis Set:

  -Total Gradient:
     Atom            X                  Y                   Z
    ------   -----------------  -----------------  -----------------
       1       -0.000257729350    -0.000105469893    -0.000358875841
       2        0.000387658214     0.000223785329     0.000499672213
       3       -0.000376078333    -0.000530395493    -0.000160239836
       4        0.000013122223     0.000013614970     0.000020930068
       5       -0.000009401683    -0.000000560590    -0.000000845188
       6        0.000220242756     0.000394435546     0.000026136508
       7        0.000004506828    -0.000013141860    -0.000007251764
       8        0.000008686193    -0.000000147345     0.000015138065
       9        0.000011200133     0.000011033487     0.000001367019
      10        0.000001095067     0.000010407011    -0.000009494336
      11        0.000009511834    -0.000011350950    -0.000017098435
      12        0.000008839105     0.000003883647     0.000004216473
      13        0.000000905080    -0.000000892151    -0.000002779582
      14       -0.000004952148     0.000003490382     0.000004782980
      15        0.000001780425    -0.000004489871     0.000000396334
      16       -0.000002009342     0.000001268344    -0.000003641710
      17        0.000003686488    -0.000001492202     0.000000496954
      18       -0.000002556042    -0.000000178570     0.000002999167
      19       -0.000003923932     0.000003712131    -0.000002144759
      20       -0.000001888060     0.000004473929    -0.000006304414
      21       -0.000007391261    -0.000002334992     0.000001063166
      22       -0.000005304193     0.000000349136    -0.000008523081

  **** Optimization is complete! (in 10 steps) ****
    Final optimized geometry and variables:
    Molecular point group: c1

    Geometry (in Angstrom), charge = 0, multiplicity = 1:

    O           -2.317521172739     1.097294514513     0.027692146691
    C           -2.099655838960    -0.059112663286     0.226664815296
    C           -0.876424829331    -0.733680930336    -0.375349830386
    C           -3.018815165567    -0.905168514349     1.077606035066
    C            0.425224647711    -0.066382589671     0.088993223835
    H           -0.960626653845    -0.642536182034    -1.455016453295
    H           -0.866139162778    -1.792937533635    -0.136963991563
    C            1.661961154016    -0.689074640670    -0.562738415101
    H            0.361811911000     0.990743544645    -0.137884471298
    H            0.508737742260    -0.150171109632     1.171438537022
    C            2.994397821691    -0.111299364748    -0.072110857474
    H            1.595973330536    -0.570992945746    -1.643091289730
    H            1.658663482270    -1.760642467591    -0.373049515065
    C            3.221128039931     1.356962072400    -0.436545554748
    H            3.801466430087    -0.705073769816    -0.493937159653
    H            3.062362090756    -0.231320723735     1.007246862107
    H            3.150242850449     1.507594144839    -1.510342479672
    H            4.207884606379     1.682799386726    -0.122485791131
    H            2.496756317152     2.010558619969     0.037514630881
    H           -3.414393579071    -1.730152027259     0.491310590875
    H           -3.833697278550    -0.303448981368     1.455194058533
    H           -2.467067006877    -1.338728894843     1.907356154091

  Mulliken Charges: (a.u.)
   Center  Symbol    Alpha    Beta     Spin     Total
       1     O     4.26362  4.26362  0.00000 -0.52724
       2     C     2.73551  2.73551  0.00000  0.52897
       3     C     3.20266  3.20266  0.00000 -0.40533
       4     C     3.28919  3.28919  0.00000 -0.57839
       5     C     3.16059  3.16059  0.00000 -0.32119
       6     H     0.40221  0.40221  0.00000  0.19558
       7     H     0.41638  0.41638  0.00000  0.16724
       8     C     3.15322  3.15322  0.00000 -0.30644
       9     H     0.40088  0.40088  0.00000  0.19824
      10     H     0.42162  0.42162  0.00000  0.15676
      11     C     3.15298  3.15298  0.00000 -0.30597
      12     H     0.42189  0.42189  0.00000  0.15622
      13     H     0.42275  0.42275  0.00000  0.15449
      14     C     3.24212  3.24212  0.00000 -0.48424
      15     H     0.42015  0.42015  0.00000  0.15970
      16     H     0.42296  0.42296  0.00000  0.15407
      17     H     0.42127  0.42127  0.00000  0.15746
      18     H     0.41866  0.41866  0.00000  0.16268
      19     H     0.41752  0.41752  0.00000  0.16497
      20     H     0.40783  0.40783  0.00000  0.18435
      21     H     0.39724  0.39724  0.00000  0.20552
      22     H     0.40874  0.40874  0.00000  0.18252

   Total alpha = 32.00000, Total beta = 32.00000, Total charge = -0.00000
