  ==> Input File <==

--------------------------------------------------------------------------
set {
	reference rhf
	basis 6-31G*
}

set_num_threads( 4 )
memory 2 gb

molecule MOL {
0 1

H	 -3.420663	 1.227371	 -1.044276
O	 -3.452007	 0.283848	 -0.965577
C	 -3.181085	 -0.079926	 0.364119
C	 -1.765924	 0.277073	 0.805136
H	 -3.327791	 -1.152017	 0.410903
H	 -3.905698	 0.375695	 1.036898
C	 -0.677594	 -0.417312	 -0.014550
H	 -1.637766	 1.358238	 0.744969
H	 -1.659588	 0.017670	 1.857098
C	 0.695121	 0.243292	 0.128394
H	 -0.971496	 -0.429447	 -1.059626
H	 -0.610748	 -1.458815	 0.295604
C	 1.780501	 -0.460848	 -0.690278
H	 0.619306	 1.285192	 -0.173460
H	 0.986275	 0.249968	 1.178056
C	 3.191704	 0.110432	 -0.510554
H	 1.512673	 -0.428989	 -1.745241
H	 1.796762	 -1.513123	 -0.414107
C	 3.371267	 1.537378	 -1.032080
H	 3.894409	 -0.539572	 -1.026295
H	 3.462911	 0.074108	 0.542694
H	 3.095201	 1.606866	 -2.080935
H	 4.406155	 1.853255	 -0.942274
H	 2.765482	 2.250284	 -0.482578

	symmetry c1
}
set optking {
	frozen_dihedral = ("
		11 7 4 3
	")
}

ee = optimize('scf')
oeprop('DIPOLE', 'QUADRUPOLE', 'MULLIKEN_CHARGES')
f=open( 'psi4out.xyz', 'w' )
f.write( "24  " )
f.write( str(ee) + "\n" )
f.write( MOL.save_string_xyz() )
f.close()
--------------------------------------------------------------------------

    Molecular point group: c1
  Charge       = 0
  Multiplicity = 1
  Basis Set: 6-31G*
  Basis Set:
  @DF-RHF Final Energy:  -349.24672948206535
    Total Energy =                       -349.2467294820655752
    Molecular point group: c1
  Basis Set: 6-31G*
  Basis Set:
  Basis Set: 6-31G*
  Basis Set:
  @DF-RHF Final Energy:  -349.24677610369002
    Total Energy =                       -349.2467761036903084
  Basis Set: 6-31G*
  Basis Set:
  Basis Set: 6-31G*
  Basis Set:
  @DF-RHF Final Energy:  -349.24682890886055
    Total Energy =                       -349.2468289088601523
  Basis Set: 6-31G*
  Basis Set:
  Basis Set: 6-31G*
  Basis Set:
  @DF-RHF Final Energy:  -349.24683118999747
    Total Energy =                       -349.2468311899974083
  Basis Set: 6-31G*
  Basis Set:
  Charge       = 0
  Multiplicity = 1
  Basis Set: 6-31G*
  Basis Set:

    Orbital Energies (a.u.)
    -----------------------

    Doubly Occupied:

       1A    -20.554106     2A    -11.267876     3A    -11.217401
       4A    -11.213997     5A    -11.212457     6A    -11.211450
       7A    -11.210480     8A    -11.207260     9A     -1.360792
      10A     -1.088161    11A     -1.047882    12A     -0.985566
      13A     -0.914784    14A     -0.850518    15A     -0.801283
      16A     -0.776214    17A     -0.679504    18A     -0.652935
      19A     -0.623856    20A     -0.621504    21A     -0.595939
      22A     -0.584339    23A     -0.559475    24A     -0.537819
      25A     -0.514850    26A     -0.513488    27A     -0.497512
      28A     -0.470956    29A     -0.467090    30A     -0.458404
      31A     -0.455175    32A     -0.451388    33A     -0.419731

  @DF-RHF Final Energy:  -349.24683165417565

   => Energetics <=

    Nuclear Repulsion Energy =            385.1872022371448452
    One-Electron Energy =               -1236.8196804955007337
    Two-Electron Energy =                 502.3856466041801241
    DFT Exchange-Correlation Energy =       0.0000000000000000
    Empirical Dispersion Energy =           0.0000000000000000
    PCM Polarization Energy =               0.0000000000000000
    EFP Energy =                            0.0000000000000000
    Total Energy =                       -349.2468316541757076
    Molecular point group: c1
  Basis Set: 6-31G*
  Basis Set:

  -Total Gradient:
     Atom            X                  Y                   Z
    ------   -----------------  -----------------  -----------------
       1       -0.000000670667     0.000000782959    -0.000007563231
       2        0.000018832386    -0.000006701029    -0.000008838275
       3       -0.000019730243     0.001516446864    -0.001241125073
       4       -0.000235274088    -0.002707556031     0.001823764955
       5       -0.000013428784     0.000004230391     0.000025943685
       6       -0.000015272881     0.000013054859    -0.000018144455
       7        0.001452683165     0.003610812889    -0.000934288290
       8        0.000021743121    -0.000002654653     0.000031507569
       9       -0.000009603024    -0.000034618264     0.000002820191
      10       -0.000018611308     0.000038144900    -0.000069559322
      11       -0.001200051492    -0.002393627584     0.000319854028
      12        0.000026463128     0.000013998816     0.000034558779
      13       -0.000001442772    -0.000040227747     0.000046872813
      14        0.000023348046     0.000045256695     0.000003875832
      15       -0.000008742124    -0.000023543791    -0.000025275856
      16        0.000018258425    -0.000012703030    -0.000031652351
      17       -0.000002449925    -0.000012336543     0.000020004480
      18       -0.000000451823    -0.000009802538     0.000009821879
      19       -0.000020933984    -0.000008970647     0.000017048786
      20        0.000010162822     0.000015879798    -0.000013961660
      21        0.000007935586    -0.000013090962    -0.000008024361
      22        0.000003530131    -0.000007388478     0.000007348078
      23       -0.000000827670     0.000003584784     0.000006833403
      24       -0.000035466024     0.000011028342     0.000008178395

  **** Optimization is complete! (in 5 steps) ****
    Final optimized geometry and variables:
    Molecular point group: c1

    Geometry (in Angstrom), charge = 0, multiplicity = 1:

    H           -3.391866574206     1.041108843324    -0.743722879066
    O           -3.409499997785     0.095371198368    -0.692512415793
    C           -3.120669788650    -0.303231832295     0.623080107989
    C           -1.706399593663     0.066494733555     1.058592928937
    H           -3.251624272447    -1.378368977198     0.639530101798
    H           -3.845419421989     0.121412623002     1.315425210918
    C           -0.615331889592    -0.606251862177     0.220436165659
    H           -1.602369012985     1.150336787944     0.994534884602
    H           -1.582490463823    -0.186036325308     2.109573846484
    C            0.759323515098     0.045643019378     0.374194392796
    H           -0.917627399182    -0.609375911228    -0.822169542832
    H           -0.549081286534    -1.653703837129     0.511622124464
    C            1.849990115177    -0.672060541465    -0.425116112453
    H            0.692869512448     1.085170916771     0.062745984064
    H            1.037569630391     0.059587123173     1.427469940791
    C            3.260320343434    -0.099028193300    -0.244034546918
    H            1.589579039681    -0.656258042015    -1.482241811629
    H            1.863424629021    -1.719965988689    -0.132564548274
    C            3.443682279007     1.321037203430    -0.782674598580
    H            3.965909991900    -0.755767053076    -0.747072933186
    H            3.524982449168    -0.121959711437     0.811271264933
    H            3.174348038426     1.377086680185    -1.834041419455
    H            4.478105338556     1.637728758843    -0.690289277743
    H            2.834607453925     2.041113311871    -0.246318680537

  Mulliken Charges: (a.u.)
   Center  Symbol    Alpha    Beta     Spin     Total
       1     H     0.28325  0.28325  0.00000  0.43350
       2     O     4.36790  4.36790  0.00000 -0.73579
       3     C     2.99736  2.99736  0.00000  0.00527
       4     C     3.16797  3.16797  0.00000 -0.33594
       5     H     0.41637  0.41637  0.00000  0.16726
       6     H     0.42808  0.42808  0.00000  0.14384
       7     C     3.15602  3.15602  0.00000 -0.31205
       8     H     0.42905  0.42905  0.00000  0.14191
       9     H     0.42128  0.42128  0.00000  0.15744
      10     C     3.15354  3.15354  0.00000 -0.30708
      11     H     0.40820  0.40820  0.00000  0.18360
      12     H     0.42410  0.42410  0.00000  0.15181
      13     C     3.15252  3.15252  0.00000 -0.30504
      14     H     0.42278  0.42278  0.00000  0.15444
      15     H     0.42548  0.42548  0.00000  0.14905
      16     C     3.15227  3.15227  0.00000 -0.30455
      17     H     0.42321  0.42321  0.00000  0.15358
      18     H     0.42229  0.42229  0.00000  0.15543
      19     C     3.24103  3.24103  0.00000 -0.48206
      20     H     0.42108  0.42108  0.00000  0.15784
      21     H     0.42385  0.42385  0.00000  0.15229
      22     H     0.42210  0.42210  0.00000  0.15581
      23     H     0.41958  0.41958  0.00000  0.16084
      24     H     0.42070  0.42070  0.00000  0.15860

   Total alpha = 33.00000, Total beta = 33.00000, Total charge =  0.00000
