                              Psi4 1.0.54 Driver

  ==> Input File <==

--------------------------------------------------------------------------
set {
	reference rhf
	basis cc-pvtz
}

set_num_threads( 4 )
memory 2 gb

molecule MOL {
0 1

O	 0.052313	 0.710476	 -0.961358
C	 0.485107	 0.171416	 -0.000134
C	 1.606966	 -0.836201	 0.000174
O	 0.031704	 0.387681	 1.222257
C	 2.988788	 -0.202529	 -0.000115
H	 1.465110	 -1.474645	 -0.864821
H	 1.465209	 -1.474077	 0.865596
H	 3.131767	 0.419673	 -0.873407
H	 3.750876	 -0.972315	 0.000098
H	 3.131883	 0.420264	 0.872742
C	 -1.030679	 1.317529	 1.380411
C	 -1.367737	 1.387620	 2.851454
H	 -1.877479	 0.989018	 0.794443
H	 -0.718009	 2.279182	 0.998594
H	 -1.678379	 0.419087	 3.222693
H	 -2.177482	 2.090529	 3.007865
H	 -0.512350	 1.716656	 3.428011

	symmetry c1
}
set optking {
	frozen_dihedral = ("
		4 2 3 6
	")
}

ee,wfn = optimize('scf', return_wfn=True)
oeprop( wfn, 'DIPOLE', 'QUADRUPOLE', 'MULLIKEN_CHARGES')
f=open( 'psi4out.xyz', 'w' )
f.write( "17  " )
f.write( str(ee) + "\n" )
f.write( MOL.save_string_xyz() )
f.close()
--------------------------------------------------------------------------

    Molecular point group: c1
  Charge       = 0
  Multiplicity = 1
  Basis Set: CC-PVTZ
  Basis Set:
  @DF-RHF Final Energy:  -345.03819407296504
    Total Energy =                       -345.0381940729649841
    Molecular point group: c1
  Basis Set: CC-PVTZ
  Basis Set:
  Basis Set: CC-PVTZ
  Basis Set:
  @DF-RHF Final Energy:  -345.03877409372780
    Total Energy =                       -345.0387740937283070
  Basis Set: CC-PVTZ
  Basis Set:
  Basis Set: CC-PVTZ
  Basis Set:
  @DF-RHF Final Energy:  -345.03862504593241
    Total Energy =                       -345.0386250459325765
  Basis Set: CC-PVTZ
  Basis Set:
  Basis Set: CC-PVTZ
  Basis Set:
  @DF-RHF Final Energy:  -345.03729641367067
    Total Energy =                       -345.0372964136706742
  Basis Set: CC-PVTZ
  Basis Set:
  Basis Set: CC-PVTZ
  Basis Set:
  @DF-RHF Final Energy:  -345.03873282921262
    Total Energy =                       -345.0387328292123357
  Basis Set: CC-PVTZ
  Basis Set:
  Basis Set: CC-PVTZ
  Basis Set:
  @DF-RHF Final Energy:  -345.03891613641412
    Total Energy =                       -345.0389161364140023
  Basis Set: CC-PVTZ
  Basis Set:
  Charge       = 0
  Multiplicity = 1
  Basis Set: CC-PVTZ
  Basis Set:

    Orbital Energies (a.u.)
    -----------------------

    Doubly Occupied:

       1A    -20.595467     2A    -20.530155     3A    -11.362654
       4A    -11.282625     5A    -11.234251     6A    -11.223841
       7A    -11.220611     8A     -1.470524     9A     -1.363487
      10A     -1.072503    11A     -1.032828    12A     -0.909692
      13A     -0.853547    14A     -0.779098    15A     -0.696742
      16A     -0.686679    17A     -0.669920    18A     -0.616877
      19A     -0.601532    20A     -0.575981    21A     -0.554881
      22A     -0.538101    23A     -0.527204    24A     -0.510034
      25A     -0.502630    26A     -0.496969    27A     -0.454952
      28A     -0.435123

  @DF-RHF Final Energy:  -345.03891743471706

   => Energetics <=

    Nuclear Repulsion Energy =            316.4657242511269715
    One-Electron Energy =               -1097.4114689596781318
    Two-Electron Energy =                 435.9068272738342102
    DFT Exchange-Correlation Energy =       0.0000000000000000
    Empirical Dispersion Energy =           0.0000000000000000
    PCM Polarization Energy =               0.0000000000000000
    EFP Energy =                            0.0000000000000000
    Total Energy =                       -345.0389174347169501
    Molecular point group: c1
  Basis Set: CC-PVTZ
  Basis Set:

  -Total Gradient:
     Atom            X                  Y                   Z
    ------   -----------------  -----------------  -----------------
       1        0.000028438344    -0.000000122063    -0.000107582263
       2        0.000112251801     0.000188328779     0.000206914369
       3        0.000197445378     0.000241543415    -0.000140373551
       4       -0.000118656806    -0.000238953437    -0.000041011902
       5       -0.000033964219    -0.000016565030     0.000001830353
       6       -0.000231813762    -0.000137109584     0.000152416520
       7       -0.000003136406    -0.000031347963    -0.000000450554
       8        0.000009269680    -0.000010921407     0.000019361306
       9       -0.000010878541     0.000017451931    -0.000003840416
      10        0.000012440415    -0.000001508449    -0.000016558090
      11       -0.000031477135     0.000108025678    -0.000065780920
      12        0.000047723057    -0.000073214019     0.000004847262
      13        0.000015863278     0.000001519499     0.000009835784
      14       -0.000007646953    -0.000033941835     0.000001151214
      15       -0.000001842348     0.000009106045     0.000017048153
      16        0.000029795145    -0.000020277899    -0.000038441343
      17       -0.000013810926    -0.000002013659     0.000000634079

  **** Optimization is complete! (in 6 steps) ****
    Final optimized geometry and variables:
    Molecular point group: c1

    Geometry (in Angstrom), charge = 0, multiplicity = 1:

    O           -0.090943281255     0.426897038650    -1.585829291127
    C            0.134990095680    -0.245788946698    -0.636841613178
    C            1.128317303436    -1.379988813908    -0.624538848288
    O           -0.439920561210    -0.063792780310     0.537920797185
    C            2.558368993472    -0.849235927895    -0.498940642962
    H            1.013751990810    -1.915581101639    -1.557057020022
    H            0.901441709035    -2.050738907983     0.191895609685
    H            2.792049061140    -0.180800015855    -1.317074541453
    H            3.263824181544    -1.670076635941    -0.516961198844
    H            2.694497063728    -0.311569822177     0.431961887488
    C           -1.366591049133     1.006524784476     0.662002784788
    C           -1.881072070117     1.008826126038     2.082432613412
    H           -2.166589437015     0.863860060643    -0.050429716978
    H           -0.868423709363     1.934099458859     0.417890718094
    H           -2.376777534180     0.074734817635     2.314980085950
    H           -2.592506050636     1.815817898876     2.211728704098
    H           -1.070750564557     1.150652119221     2.786453418170

  Mulliken Charges: (a.u.)
   Center  Symbol    Alpha    Beta     Spin     Total
       1     O     4.20485  4.20485  0.00000 -0.40970
       2     C     2.80497  2.80497  0.00000  0.39006
       3     C     3.08375  3.08375  0.00000 -0.16750
       4     O     4.15217  4.15217  0.00000 -0.30433
       5     C     3.14922  3.14922  0.00000 -0.29845
       6     H     0.44180  0.44180  0.00000  0.11641
       7     H     0.44341  0.44341  0.00000  0.11318
       8     H     0.44368  0.44368  0.00000  0.11265
       9     H     0.44825  0.44825  0.00000  0.10351
      10     H     0.45157  0.45157  0.00000  0.09685
      11     C     2.97868  2.97868  0.00000  0.04263
      12     C     3.13319  3.13319  0.00000 -0.26638
      13     H     0.45321  0.45321  0.00000  0.09358
      14     H     0.45408  0.45408  0.00000  0.09185
      15     H     0.45127  0.45127  0.00000  0.09747
      16     H     0.45429  0.45429  0.00000  0.09143
      17     H     0.45162  0.45162  0.00000  0.09676

   Total alpha = 28.00000, Total beta = 28.00000, Total charge = -0.00000

*** Psi4 exiting successfully. Buy a developer a beer!
