  ==> Input File <==

--------------------------------------------------------------------------
set {
	reference rhf
	basis 6-31G*
}

set_num_threads( 4 )
memory 2 gb

molecule MOL {
0 1

H	 1.096074	 -1.245138	 -0.151995
O	 1.276496	 -0.470275	 -0.666668
C	 0.709265	 0.639550	 -0.033818
C	 -0.793441	 0.596080	 0.058728
H	 1.013645	 1.505168	 -0.611105
H	 1.124933	 0.769985	 0.964797
C	 -1.530462	 -0.493172	 -0.025500
H	 -1.268471	 1.554324	 0.202247
H	 -1.092586	 -1.461565	 -0.186463
H	 -2.602122	 -0.450675	 0.050101

	symmetry c1
}
set optking {
	frozen_dihedral = ("
		5 3 4 7
	")
}

ee = optimize('scf')
oeprop('DIPOLE', 'QUADRUPOLE', 'MULLIKEN_CHARGES')
f=open( 'psi4out.xyz', 'w' )
f.write( "10  " )
f.write( str(ee) + "\n" )
f.write( MOL.save_string_xyz() )
f.close()
--------------------------------------------------------------------------

    Molecular point group: c1
  Charge       = 0
  Multiplicity = 1
  Basis Set: 6-31G*
  Basis Set:
  @DF-RHF Final Energy:  -191.91420844262103
    Total Energy =                       -191.9142084426210317
    Molecular point group: c1
  Basis Set: 6-31G*
  Basis Set:
  Basis Set: 6-31G*
  Basis Set:
  @DF-RHF Final Energy:  -191.91483656376988
    Total Energy =                       -191.9148365637698816
  Basis Set: 6-31G*
  Basis Set:
  Basis Set: 6-31G*
  Basis Set:
  @DF-RHF Final Energy:  -191.91495873285425
    Total Energy =                       -191.9149587328542168
  Basis Set: 6-31G*
  Basis Set:
  Basis Set: 6-31G*
  Basis Set:
  @DF-RHF Final Energy:  -191.91496411822294
    Total Energy =                       -191.9149641182229971
  Basis Set: 6-31G*
  Basis Set:
  Charge       = 0
  Multiplicity = 1
  Basis Set: 6-31G*
  Basis Set:

    Orbital Energies (a.u.)
    -----------------------

    Doubly Occupied:

       1A    -20.561515     2A    -11.279139     3A    -11.231011
       4A    -11.219529     5A     -1.370164     6A     -1.058303
       7A     -0.929539     8A     -0.766580     9A     -0.694443
      10A     -0.660866    11A     -0.618745    12A     -0.569142
      13A     -0.528124    14A     -0.503554    15A     -0.445084
      16A     -0.364020

  @DF-RHF Final Energy:  -191.91496505173993

   => Energetics <=

    Nuclear Repulsion Energy =            119.0976076781309132
    One-Electron Energy =                -496.4256299885872750
    Two-Electron Energy =                 185.4130572587163783
    DFT Exchange-Correlation Energy =       0.0000000000000000
    Empirical Dispersion Energy =           0.0000000000000000
    PCM Polarization Energy =               0.0000000000000000
    EFP Energy =                            0.0000000000000000
    Total Energy =                       -191.9149650517400119
    Molecular point group: c1
  Basis Set: 6-31G*
  Basis Set:

  -Total Gradient:
     Atom            X                  Y                   Z
    ------   -----------------  -----------------  -----------------
       1        0.000007248988    -0.000064988691     0.000011628529
       2        0.000011727554     0.000086264516     0.000037778995
       3       -0.000180992341    -0.003282196142    -0.002612600535
       4       -0.000360699589     0.001281835370    -0.005193824046
       5        0.000235500747     0.002379189715     0.003660872069
       6        0.000028541177     0.000025155157     0.000047845481
       7        0.000310136212    -0.000489501633     0.004102151659
       8       -0.000043709106     0.000049871775    -0.000030479140
       9        0.000002559300     0.000014262314    -0.000017611934
      10       -0.000010312944     0.000000107618    -0.000005761077

  **** Optimization is complete! (in 5 steps) ****
    Final optimized geometry and variables:
    Molecular point group: c1

    Geometry (in Angstrom), charge = 0, multiplicity = 1:

    H            1.245161653317    -1.257482948283     0.130761906269
    O            1.297095201546    -0.525291003704    -0.467056130303
    C            0.720558121149     0.600425746191     0.124699608405
    C           -0.782102381979     0.565700762719     0.229004726340
    H            1.029545654590     1.465657639570    -0.449514176057
    H            1.127405246207     0.758892078985     1.124537409172
    C           -1.535850036658    -0.511562857429     0.146366448907
    H           -1.237885011259     1.514488418530     0.467197745716
    H           -1.129045506726    -1.477054155710    -0.096495770557
    H           -2.601123922954    -0.461528870790     0.281775456980

  Mulliken Charges: (a.u.)
   Center  Symbol    Alpha    Beta     Spin     Total
       1     H     0.27916  0.27916  0.00000  0.44167
       2     O     4.36441  4.36441  0.00000 -0.72882
       3     C     3.00701  3.00701  0.00000 -0.01401
       4     C     3.08166  3.08166  0.00000 -0.16333
       5     H     0.41042  0.41042  0.00000  0.17916
       6     H     0.42415  0.42415  0.00000  0.15170
       7     C     3.19852  3.19852  0.00000 -0.39705
       8     H     0.41050  0.41050  0.00000  0.17900
       9     H     0.41378  0.41378  0.00000  0.17245
      10     H     0.41039  0.41039  0.00000  0.17923

   Total alpha = 16.00000, Total beta = 16.00000, Total charge = -0.00000
