                              Psi4 1.0.54 Driver

  ==> Input File <==

--------------------------------------------------------------------------
set {
	reference rhf
	basis cc-pvtz
}

set_num_threads( 4 )
memory 2 gb

molecule MOL {
0 1

O	 -2.802706	 1.283048	 -0.336020
C	 -2.656911	 0.118923	 -0.174835
C	 -3.790506	 -0.870520	 -0.159063
O	 -1.481217	 -0.452708	 0.001092
H	 -4.319369	 -0.802926	 -1.100241
H	 -3.442917	 -1.879226	 -0.003071
H	 -4.479732	 -0.591227	 0.626454
C	 -0.332055	 0.384012	 -0.000250
C	 0.892252	 -0.506059	 -0.000295
H	 -0.360822	 1.020205	 -0.874146
H	 -0.359817	 1.021310	 0.872861
C	 2.188199	 0.299473	 -0.001416
H	 0.857046	 -1.152781	 -0.871031
H	 0.857910	 -1.151798	 0.871202
C	 3.437151	 -0.577593	 -0.000991
H	 2.209565	 0.950707	 -0.871712
H	 2.210062	 0.952234	 0.867721
C	 4.732399	 0.226982	 -0.000914
H	 3.417321	 -1.229122	 -0.869998
H	 3.416993	 -1.228707	 0.868337
H	 4.797903	 0.863451	 -0.876963
H	 5.598517	 -0.424436	 -0.000420
H	 4.797415	 0.864118	 0.874691

	symmetry c1
}
set optking {
	frozen_dihedral = ("
		2 4 8 10
	")
}

ee,wfn = optimize('scf', return_wfn=True)
oeprop( wfn, 'DIPOLE', 'QUADRUPOLE', 'MULLIKEN_CHARGES')
f=open( 'psi4out.xyz', 'w' )
f.write( "23  " )
f.write( str(ee) + "\n" )
f.write( MOL.save_string_xyz() )
f.close()
--------------------------------------------------------------------------

    Molecular point group: c1
  Charge       = 0
  Multiplicity = 1
  Basis Set: CC-PVTZ
  Basis Set:
  @DF-RHF Final Energy:  -423.13467824215275
    Total Energy =                       -423.1346782421524040
    Molecular point group: c1
  Basis Set: CC-PVTZ
  Basis Set:
  Basis Set: CC-PVTZ
  Basis Set:
  @DF-RHF Final Energy:  -423.13439610515798
    Total Energy =                       -423.1343961051575207
  Basis Set: CC-PVTZ
  Basis Set:
  Basis Set: CC-PVTZ
  Basis Set:
  @DF-RHF Final Energy:  -423.13468189696238
    Total Energy =                       -423.1346818969622063
  Basis Set: CC-PVTZ
  Basis Set:
  Charge       = 0
  Multiplicity = 1
  Basis Set: CC-PVTZ
  Basis Set:

    Orbital Energies (a.u.)
    -----------------------

    Doubly Occupied:

       1A    -20.595875     2A    -20.529456     3A    -11.366464
       4A    -11.279359     5A    -11.230638     6A    -11.222388
       7A    -11.221383     8A    -11.219495     9A    -11.210914
      10A     -1.471031    11A     -1.363979    12A     -1.095356
      13A     -1.043287    14A     -1.004260    15A     -0.931768
      16A     -0.842549    17A     -0.803082    18A     -0.776098
      19A     -0.695092    20A     -0.687916    21A     -0.670980
      22A     -0.648249    23A     -0.606956    24A     -0.589219
      25A     -0.584219    26A     -0.567444    27A     -0.559521
      28A     -0.538507    29A     -0.524060    30A     -0.505811
      31A     -0.491699    32A     -0.478304    33A     -0.471424
      34A     -0.467368    35A     -0.454675    36A     -0.438755

  @DF-RHF Final Energy:  -423.13469977099226

   => Energetics <=

    Nuclear Repulsion Energy =            450.4681049048459727
    One-Electron Energy =               -1468.8304519510002137
    Two-Electron Energy =                 595.2276472751624397
    DFT Exchange-Correlation Energy =       0.0000000000000000
    Empirical Dispersion Energy =           0.0000000000000000
    PCM Polarization Energy =               0.0000000000000000
    EFP Energy =                            0.0000000000000000
    Total Energy =                       -423.1346997709918014
    Molecular point group: c1
  Basis Set: CC-PVTZ
  Basis Set:

  -Total Gradient:
     Atom            X                  Y                   Z
    ------   -----------------  -----------------  -----------------
       1        0.000044643879     0.000068975978     0.000004226756
       2        0.000064865908    -0.000214113363    -0.000690304530
       3       -0.000003405357    -0.000016830791    -0.000004310470
       4       -0.000294815469     0.000307326689     0.001091441905
       5        0.000021831052     0.000006140921     0.000015031736
       6       -0.000009257520    -0.000010272038    -0.000000210846
       7        0.000019093423     0.000007394450    -0.000005660075
       8        0.000562265020    -0.000649617354    -0.000861528262
       9        0.000034504512    -0.000031232741     0.000012187137
      10       -0.000405353613     0.000530855017     0.000441335852
      11       -0.000010553709    -0.000007619072    -0.000001632200
      12       -0.000010084434     0.000011847594    -0.000002134715
      13       -0.000012381769     0.000005056913    -0.000002328159
      14        0.000008251869    -0.000004503499     0.000002418832
      15       -0.000001298207    -0.000011631773    -0.000002412672
      16        0.000001083016     0.000001771722    -0.000001031952
      17        0.000000780011     0.000003725915     0.000002634154
      18       -0.000007446735     0.000005475762     0.000003279278
      19       -0.000000539797    -0.000001812413    -0.000002363270
      20        0.000000797244     0.000000101359    -0.000000154041
      21       -0.000000326359    -0.000000761711    -0.000000944673
      22       -0.000003469703    -0.000002582577     0.000001035353
      23        0.000000816735     0.000002305007     0.000001424861

  **** Optimization is complete! (in 4 steps) ****
    Final optimized geometry and variables:
    Molecular point group: c1

    Geometry (in Angstrom), charge = 0, multiplicity = 1:

    O           -2.812579907437     1.286900664290    -0.242818485467
    C           -2.661735810756     0.121453743783    -0.095813208295
    C           -3.792560489727    -0.871371750652    -0.079849610906
    O           -1.484009443201    -0.447620052556     0.073488841956
    H           -4.328124998234    -0.797335082036    -1.016777870341
    H           -3.441242323263    -1.880420592514     0.065430140747
    H           -4.476902277733    -0.600239339186     0.712815631571
    C           -0.334278961114     0.388174983040     0.060963758551
    C            0.890591210235    -0.500850338037     0.068530305520
    H           -0.366143853712     1.022050695371    -0.813445228390
    H           -0.361403633827     1.030905501973     0.931324826871
    C            2.185742196813     0.305978198329     0.070328995408
    H            0.858965958029    -1.149653184294    -0.800892422291
    H            0.853652820090    -1.144618773809     0.941416306516
    C            3.435380388102    -0.569964073602     0.076424402787
    H            2.209264453627     0.955829931005    -0.800999648587
    H            2.204111185111     0.960212153319     0.938541720519
    C            4.729790133229     0.235926485377     0.078808707178
    H            3.418893071469    -1.223323078786    -0.791363090880
    H            3.413210557966    -1.219354120978     0.947066503922
    H            4.797390113772     0.870747423843    -0.798336710879
    H            5.596439390440    -0.414830593911     0.083211882246
    H            4.791621712858     0.874886432744     0.953386392674

  Mulliken Charges: (a.u.)
   Center  Symbol    Alpha    Beta     Spin     Total
       1     O     4.20263  4.20263  0.00000 -0.40526
       2     C     2.81480  2.81480  0.00000  0.37039
       3     C     3.14028  3.14028  0.00000 -0.28056
       4     O     4.14482  4.14482  0.00000 -0.28963
       5     H     0.44214  0.44214  0.00000  0.11573
       6     H     0.44187  0.44187  0.00000  0.11626
       7     H     0.44211  0.44211  0.00000  0.11578
       8     C     2.97941  2.97941  0.00000  0.04119
       9     C     3.08095  3.08095  0.00000 -0.16189
      10     H     0.45216  0.45216  0.00000  0.09567
      11     H     0.45538  0.45538  0.00000  0.08925
      12     C     3.09774  3.09774  0.00000 -0.19547
      13     H     0.45096  0.45096  0.00000  0.09808
      14     H     0.45066  0.45066  0.00000  0.09868
      15     C     3.08501  3.08501  0.00000 -0.17002
      16     H     0.45269  0.45269  0.00000  0.09462
      17     H     0.45307  0.45307  0.00000  0.09386
      18     C     3.14957  3.14957  0.00000 -0.29914
      19     H     0.45347  0.45347  0.00000  0.09307
      20     H     0.45351  0.45351  0.00000  0.09298
      21     H     0.45450  0.45450  0.00000  0.09101
      22     H     0.44769  0.44769  0.00000  0.10462
      23     H     0.45460  0.45460  0.00000  0.09079

   Total alpha = 36.00000, Total beta = 36.00000, Total charge =  0.00000

*** Psi4 exiting successfully. Buy a developer a beer!
