                              Psi4 1.0.54 Driver

  ==> Input File <==

--------------------------------------------------------------------------
set {
	reference rhf
	basis cc-pvtz
}

set_num_threads( 4 )
memory 2 gb

molecule MOL {
0 1

O	 -1.510770	 1.240811	 -0.054933
C	 -1.081510	 0.147522	 0.122720
C	 0.327029	 -0.064006	 0.641890
C	 -1.903028	 -1.084121	 -0.174656
C	 1.349460	 -0.017068	 -0.500215
H	 0.399029	 -1.014606	 1.159950
H	 0.538021	 0.726928	 1.350471
C	 2.605890	 0.760348	 -0.125047
H	 1.624180	 -1.027747	 -0.788131
H	 0.880872	 0.436311	 -1.365779
H	 3.305619	 0.787835	 -0.951881
H	 3.110542	 0.307504	 0.721718
H	 2.365639	 1.783813	 0.140791
H	 -1.341891	 -1.779207	 -0.789259
H	 -2.820449	 -0.808163	 -0.671328
H	 -2.133314	 -1.593056	 0.755831

	symmetry c1
}
set optking {
	frozen_dihedral = ("
		9 5 3 2
	")
}

ee,wfn = optimize('scf', return_wfn=True)
oeprop( wfn, 'DIPOLE', 'QUADRUPOLE', 'MULLIKEN_CHARGES')
f=open( 'psi4out.xyz', 'w' )
f.write( "16  " )
f.write( str(ee) + "\n" )
f.write( MOL.save_string_xyz() )
f.close()
--------------------------------------------------------------------------

    Molecular point group: c1
  Charge       = 0
  Multiplicity = 1
  Basis Set: CC-PVTZ
  Basis Set:
  @DF-RHF Final Energy:  -270.12483673815473
    Total Energy =                       -270.1248367381547837
    Molecular point group: c1
  Basis Set: CC-PVTZ
  Basis Set:
  Basis Set: CC-PVTZ
  Basis Set:
  @DF-RHF Final Energy:  -270.12510713791812
    Total Energy =                       -270.1251071379179507
  Basis Set: CC-PVTZ
  Basis Set:
  Basis Set: CC-PVTZ
  Basis Set:
  @DF-RHF Final Energy:  -270.12306761777654
    Total Energy =                       -270.1230676177765986
  Basis Set: CC-PVTZ
  Basis Set:
  Basis Set: CC-PVTZ
  Basis Set:
  @DF-RHF Final Energy:  -270.12534584942034
    Total Energy =                       -270.1253458494203414
  Basis Set: CC-PVTZ
  Basis Set:
  @DF-RHF Final Energy:  -270.12546037378524
    Total Energy =                       -270.1254603737851880
  Basis Set: CC-PVTZ
  Basis Set:
  @DF-RHF Final Energy:  -270.12552597163551
    Total Energy =                       -270.1255259716356818
  Basis Set: CC-PVTZ
  Basis Set:
  Basis Set: CC-PVTZ
  Basis Set:
  @DF-RHF Final Energy:  -270.12554380259655
    Total Energy =                       -270.1255438025966669
  Basis Set: CC-PVTZ
  Basis Set:
  Basis Set: CC-PVTZ
  Basis Set:
  @DF-RHF Final Energy:  -270.12554660995124
    Total Energy =                       -270.1255466099506748
  Basis Set: CC-PVTZ
  Basis Set:
  Charge       = 0
  Multiplicity = 1
  Basis Set: CC-PVTZ
  Basis Set:

    Orbital Energies (a.u.)
    -----------------------

    Doubly Occupied:

       1A    -20.537464     2A    -11.319535     3A    -11.233945
       4A    -11.228113     5A    -11.226705     6A    -11.217271
       7A     -1.397393     8A     -1.083155     9A     -1.012908
      10A     -0.950043    11A     -0.832053    12A     -0.736661
      13A     -0.661751    14A     -0.646037    15A     -0.622058
      16A     -0.603885    17A     -0.579037    18A     -0.555693
      19A     -0.543189    20A     -0.516929    21A     -0.501189
      22A     -0.484725    23A     -0.476762    24A     -0.400386

  @DF-RHF Final Energy:  -270.12554719603423

   => Energetics <=

    Nuclear Repulsion Energy =            237.8662613317973182
    One-Electron Energy =                -837.2498438658282112
    Two-Electron Energy =                 329.2580353379969438
    DFT Exchange-Correlation Energy =       0.0000000000000000
    Empirical Dispersion Energy =           0.0000000000000000
    PCM Polarization Energy =               0.0000000000000000
    EFP Energy =                            0.0000000000000000
    Total Energy =                       -270.1255471960339491
    Molecular point group: c1
  Basis Set: CC-PVTZ
  Basis Set:

  -Total Gradient:
     Atom            X                  Y                   Z
    ------   -----------------  -----------------  -----------------
       1       -0.000006587834     0.000003747354    -0.000004416223
       2        0.000324582218     0.002595210721    -0.000039673724
       3        0.000248811289    -0.003471918029     0.000601960836
       4       -0.000010744730    -0.000017559834     0.000048723314
       5       -0.003254799997     0.000533221047    -0.002830740302
       6       -0.000005322497     0.000008751903    -0.000004305275
       7        0.000003470775     0.000000211397    -0.000005313504
       8       -0.000017849911    -0.000003083757     0.000013490462
       9        0.002728541957     0.000352095984     0.002268216217
      10       -0.000010425903     0.000001808615    -0.000008835163
      11       -0.000006478289    -0.000007751621     0.000005802887
      12        0.000000330043     0.000007364484     0.000001095346
      13        0.000003911496    -0.000006968989    -0.000010309371
      14        0.000004540619     0.000011508264    -0.000014039728
      15       -0.000011168942     0.000007939764    -0.000017061849
      16        0.000009189707    -0.000014577302    -0.000004593922

  **** Optimization is complete! (in 9 steps) ****
    Final optimized geometry and variables:
    Molecular point group: c1

    Geometry (in Angstrom), charge = 0, multiplicity = 1:

    O           -1.606897464342     1.063179864773     0.212633779476
    C           -1.058812307606     0.009406569991     0.202609543579
    C            0.371761859765    -0.138039344372     0.677369145103
    C           -1.751743318210    -1.236916354570    -0.297592413686
    C            1.363757038157    -0.254146439319    -0.503171193425
    H            0.460716125721    -1.002374171868     1.326045962559
    H            0.593913722183     0.743925153274     1.261758686573
    C            2.648761683002     0.531044138090    -0.254577543372
    H            1.626972431726    -1.294155347914    -0.658759916719
    H            0.903325446034     0.102833096844    -1.417662436358
    H            3.344266218884     0.406367944851    -1.076336039803
    H            3.141380638315     0.195168889835     0.651691664564
    H            2.442300457478     1.589584622689    -0.147518492925
    H           -1.134802948888    -1.756833139151    -1.021525594952
    H           -2.702529735426    -0.980852688657    -0.739257297782
    H           -1.910986935884    -1.914714269061     0.534921870232

  Mulliken Charges: (a.u.)
   Center  Symbol    Alpha    Beta     Spin     Total
       1     O     4.17470  4.17470  0.00000 -0.34940
       2     C     2.86017  2.86017  0.00000  0.27967
       3     C     3.09929  3.09929  0.00000 -0.19858
       4     C     3.15480  3.15480  0.00000 -0.30959
       5     C     3.09275  3.09275  0.00000 -0.18549
       6     H     0.44707  0.44707  0.00000  0.10586
       7     H     0.44029  0.44029  0.00000  0.11942
       8     C     3.14647  3.14647  0.00000 -0.29294
       9     H     0.45088  0.45088  0.00000  0.09823
      10     H     0.44844  0.44844  0.00000  0.10313
      11     H     0.44804  0.44804  0.00000  0.10391
      12     H     0.45366  0.45366  0.00000  0.09267
      13     H     0.44952  0.44952  0.00000  0.10097
      14     H     0.44948  0.44948  0.00000  0.10104
      15     H     0.43570  0.43570  0.00000  0.12861
      16     H     0.44876  0.44876  0.00000  0.10249

   Total alpha = 24.00000, Total beta = 24.00000, Total charge = -0.00000

*** Psi4 exiting successfully. Buy a developer a beer!
