                              Psi4 1.0.54 Driver

  ==> Input File <==

--------------------------------------------------------------------------
set {
	reference rhf
	basis cc-pvtz
}

set_num_threads( 4 )
memory 2 gb

molecule MOL {
0 1

O	 -1.510770	 1.240811	 -0.054933
C	 -1.081510	 0.147522	 0.122720
C	 0.327029	 -0.064006	 0.641890
C	 -1.903028	 -1.084121	 -0.174656
C	 1.349460	 -0.017068	 -0.500215
H	 0.399029	 -1.014606	 1.159950
H	 0.538021	 0.726928	 1.350471
C	 0.791963	 0.647877	 -1.753527
H	 2.238201	 0.516049	 -0.175003
H	 1.660376	 -1.029826	 -0.728209
H	 1.529401	 0.657758	 -2.547325
H	 0.501228	 1.674519	 -1.558001
H	 -0.081860	 0.119678	 -2.118643
H	 -1.341891	 -1.779207	 -0.789259
H	 -2.820449	 -0.808163	 -0.671328
H	 -2.133314	 -1.593056	 0.755831

	symmetry c1
}
set optking {
	frozen_dihedral = ("
		9 5 3 2
	")
}

ee,wfn = optimize('scf', return_wfn=True)
oeprop( wfn, 'DIPOLE', 'QUADRUPOLE', 'MULLIKEN_CHARGES')
f=open( 'psi4out.xyz', 'w' )
f.write( "16  " )
f.write( str(ee) + "\n" )
f.write( MOL.save_string_xyz() )
f.close()
--------------------------------------------------------------------------

    Molecular point group: c1
  Charge       = 0
  Multiplicity = 1
  Basis Set: CC-PVTZ
  Basis Set:
  @DF-RHF Final Energy:  -270.11889443710822
    Total Energy =                       -270.1188944371083949
    Molecular point group: c1
  Basis Set: CC-PVTZ
  Basis Set:
  Basis Set: CC-PVTZ
  Basis Set:
  @DF-RHF Final Energy:  -270.12085696235135
    Total Energy =                       -270.1208569623513540
  Basis Set: CC-PVTZ
  Basis Set:
  Basis Set: CC-PVTZ
  Basis Set:
  @DF-RHF Final Energy:  -270.12180285899512
    Total Energy =                       -270.1218028589952382
  Basis Set: CC-PVTZ
  Basis Set:
  Basis Set: CC-PVTZ
  Basis Set:
  @DF-RHF Final Energy:  -270.12213445842997
    Total Energy =                       -270.1221344584297412
  Basis Set: CC-PVTZ
  Basis Set:
  @DF-RHF Final Energy:  -270.12228236065869
    Total Energy =                       -270.1222823606585735
  @DF-RHF Final Energy:  -270.12240432566944
    Total Energy =                       -270.1224043256694358
  @DF-RHF Final Energy:  -270.12244937929171
    Total Energy =                       -270.1224493792916519
  @DF-RHF Final Energy:  -270.12245911519267
    Total Energy =                       -270.1224591151927825
  @DF-RHF Final Energy:  -270.12246565714105
    Total Energy =                       -270.1224656571411060
  @DF-RHF Final Energy:  -270.12246743352227
    Total Energy =                       -270.1224674335223881
  @DF-RHF Final Energy:  -270.12246810313786
    Total Energy =                       -270.1224681031379191
  @DF-RHF Final Energy:  -270.12247133957396
    Total Energy =                       -270.1224713395740196
  @DF-RHF Final Energy:  -270.12247371308808
    Total Energy =                       -270.1224737130880840
  @DF-RHF Final Energy:  -270.12247527996931
    Total Energy =                       -270.1224752799693078
  Basis Set: CC-PVTZ
  Basis Set:
  @DF-RHF Final Energy:  -270.12242551484763
    Total Energy =                       -270.1224255148475777
  Basis Set: CC-PVTZ
  Basis Set:
  Basis Set: CC-PVTZ
  Basis Set:
  @DF-RHF Final Energy:  -270.12247846527930
    Total Energy =                       -270.1224784652788458
  Basis Set: CC-PVTZ
  Basis Set:
  Basis Set: CC-PVTZ
  Basis Set:
  @DF-RHF Final Energy:  -270.12248019621484
    Total Energy =                       -270.1224801962148376
  Basis Set: CC-PVTZ
  Basis Set:
  Charge       = 0
  Multiplicity = 1
  Basis Set: CC-PVTZ
  Basis Set:

    Orbital Energies (a.u.)
    -----------------------

    Doubly Occupied:

       1A    -20.537456     2A    -11.319782     3A    -11.232925
       4A    -11.228320     5A    -11.226882     6A    -11.213790
       7A     -1.397874     8A     -1.079636     9A     -1.010714
      10A     -0.951710    11A     -0.834888    12A     -0.726941
      13A     -0.656137    14A     -0.647165    15A     -0.624494
      16A     -0.610948    17A     -0.576854    18A     -0.560120
      19A     -0.539240    20A     -0.507230    21A     -0.506393
      22A     -0.478473    23A     -0.476107    24A     -0.400007

  @DF-RHF Final Energy:  -270.12248031037268

   => Energetics <=

    Nuclear Repulsion Energy =            243.6567700009303792
    One-Electron Energy =                -848.8703288781811125
    Two-Electron Energy =                 335.0910785668780818
    DFT Exchange-Correlation Energy =       0.0000000000000000
    Empirical Dispersion Energy =           0.0000000000000000
    PCM Polarization Energy =               0.0000000000000000
    EFP Energy =                            0.0000000000000000
    Total Energy =                       -270.1224803103726799
    Molecular point group: c1
  Basis Set: CC-PVTZ
  Basis Set:

  -Total Gradient:
     Atom            X                  Y                   Z
    ------   -----------------  -----------------  -----------------
       1        0.000008440101     0.000003416384    -0.000164194407
       2        0.000517098859     0.003958189698     0.000810552483
       3       -0.001107040959    -0.004557194767    -0.001280979973
       4        0.000078936791     0.000033621665    -0.000089580948
       5        0.002851212782    -0.004092020395     0.002000582291
       6        0.000035707352    -0.000033642245    -0.000058004341
       7       -0.000154821604    -0.000021325961     0.000073085673
       8        0.000038473628     0.000027595638     0.000176544815
       9       -0.002218779107     0.004790141833    -0.001486611018
      10       -0.000044260521    -0.000044525642    -0.000092078319
      11        0.000030800170     0.000001372958     0.000010533938
      12        0.000008216910    -0.000029341752    -0.000010890090
      13        0.000032126386    -0.000035895429     0.000010301590
      14       -0.000045956196    -0.000002350164     0.000038365495
      15       -0.000022258301    -0.000013659979     0.000046170489
      16       -0.000007896289     0.000015618153     0.000016202322

  **** Optimization is complete! (in 18 steps) ****
    Final optimized geometry and variables:
    Molecular point group: c1

    Geometry (in Angstrom), charge = 0, multiplicity = 1:

    O           -1.201468634203     1.046094762605     0.693003387319
    C           -0.710552695303    -0.025772576689     0.550384677663
    C            0.765049903810    -0.257507425365     0.812895337585
    C           -1.532105230307    -1.218398624019     0.119370115811
    C            1.663937792036    -0.174720382152    -0.450026771004
    H            0.902857752247    -1.218791059830     1.294309140007
    H            1.061542892723     0.509761320181     1.514588856029
    C            1.072536000132     0.594921134055    -1.632114566841
    H            2.573117240612     0.341185800783    -0.167795932062
    H            1.940584040557    -1.170723228631    -0.773713401289
    H            1.802306143109     0.659758015058    -2.430479148813
    H            0.794392074239     1.601649662646    -1.347448701646
    H            0.190135652369     0.113213041654    -2.037577900818
    H           -1.024662654644    -1.783558135787    -0.653726588287
    H           -2.501957091989    -0.897002591763    -0.228616589954
    H           -1.659236003662    -1.880804066164     0.970032706488

  Mulliken Charges: (a.u.)
   Center  Symbol    Alpha    Beta     Spin     Total
       1     O     4.17868  4.17868  0.00000 -0.35735
       2     C     2.85434  2.85434  0.00000  0.29133
       3     C     3.10505  3.10505  0.00000 -0.21009
       4     C     3.15573  3.15573  0.00000 -0.31145
       5     C     3.09965  3.09965  0.00000 -0.19931
       6     H     0.44520  0.44520  0.00000  0.10961
       7     H     0.43857  0.43857  0.00000  0.12287
       8     C     3.15092  3.15092  0.00000 -0.30184
       9     H     0.44487  0.44487  0.00000  0.11027
      10     H     0.44802  0.44802  0.00000  0.10397
      11     H     0.44723  0.44723  0.00000  0.10554
      12     H     0.44183  0.44183  0.00000  0.11634
      13     H     0.45610  0.45610  0.00000  0.08781
      14     H     0.45136  0.45136  0.00000  0.09727
      15     H     0.43615  0.43615  0.00000  0.12769
      16     H     0.44632  0.44632  0.00000  0.10735

   Total alpha = 24.00000, Total beta = 24.00000, Total charge = -0.00000

*** Psi4 exiting successfully. Buy a developer a beer!
