                              Psi4 1.0.54 Driver

  ==> Input File <==

--------------------------------------------------------------------------
set {
	reference rhf
	basis cc-pvtz
}

set_num_threads( 4 )
memory 2 gb

molecule MOL {
0 1

H	 -1.158543	 1.678034	 1.736074
C	 -0.929288	 0.937385	 0.999314
C	 -1.911766	 0.470053	 0.068997
C	 0.296666	 0.414370	 0.918536
H	 -2.907338	 0.870681	 0.107620
C	 -1.598714	 -0.456617	 -0.841969
H	 1.085452	 0.713397	 1.580005
N	 0.640204	 -0.530428	 -0.000115
H	 -2.307193	 -0.829172	 -1.552759
C	 -0.261012	 -1.024522	 -0.927213
C	 2.006991	 -1.033007	 -0.000020
O	 0.058493	 -1.857817	 -1.730817
H	 2.182444	 -1.636914	 -0.880881
H	 2.678769	 -0.195442	 -0.002236
H	 2.183828	 -1.633244	 0.883082

	symmetry c1
}
set optking {
	frozen_dihedral = ("
		10 8 11 13
	")
}

ee,wfn = optimize('scf', return_wfn=True)
oeprop( wfn, 'DIPOLE', 'QUADRUPOLE', 'MULLIKEN_CHARGES')
f=open( 'psi4out.xyz', 'w' )
f.write( "15  " )
f.write( str(ee) + "\n" )
f.write( MOL.save_string_xyz() )
f.close()
--------------------------------------------------------------------------

    Molecular point group: c1
  Charge       = 0
  Multiplicity = 1
  Basis Set: CC-PVTZ
  Basis Set:
  @DF-RHF Final Energy:  -360.72233331707235
    Total Energy =                       -360.7223333170724118
    Molecular point group: c1
  Basis Set: CC-PVTZ
  Basis Set:
  Basis Set: CC-PVTZ
  Basis Set:
  @DF-RHF Final Energy:  -360.72255265881523
    Total Energy =                       -360.7225526588154025
  Basis Set: CC-PVTZ
  Basis Set:
  Basis Set: CC-PVTZ
  Basis Set:
  @DF-RHF Final Energy:  -360.72257606353219
    Total Energy =                       -360.7225760635319602
  Basis Set: CC-PVTZ
  Basis Set:
  Basis Set: CC-PVTZ
  Basis Set:
  @DF-RHF Final Energy:  -360.72256719713334
    Total Energy =                       -360.7225671971332304
  Basis Set: CC-PVTZ
  Basis Set:
  Charge       = 0
  Multiplicity = 1
  Basis Set: CC-PVTZ
  Basis Set:

    Orbital Energies (a.u.)
    -----------------------

    Doubly Occupied:

       1A    -20.501775     2A    -15.616493     3A    -11.339567
       4A    -11.293222     5A    -11.263526     6A    -11.258215
       7A    -11.230695     8A    -11.228382     9A     -1.390535
      10A     -1.285765    11A     -1.118806    12A     -1.028876
      13A     -0.972306    14A     -0.875755    15A     -0.838570
      16A     -0.719120    17A     -0.703095    18A     -0.663394
      19A     -0.652677    20A     -0.625214    21A     -0.611929
      22A     -0.574083    23A     -0.558045    24A     -0.550490
      25A     -0.529356    26A     -0.482799    27A     -0.420142
      28A     -0.410793    29A     -0.311008

  @DF-RHF Final Energy:  -360.72258233144282

   => Energetics <=

    Nuclear Repulsion Energy =            358.4518080383568304
    One-Electron Energy =               -1200.2395194863647703
    Two-Electron Energy =                 481.0651291165651173
    DFT Exchange-Correlation Energy =       0.0000000000000000
    Empirical Dispersion Energy =           0.0000000000000000
    PCM Polarization Energy =               0.0000000000000000
    EFP Energy =                            0.0000000000000000
    Total Energy =                       -360.7225823314428226
    Molecular point group: c1
  Basis Set: CC-PVTZ
  Basis Set:

  -Total Gradient:
     Atom            X                  Y                   Z
    ------   -----------------  -----------------  -----------------
       1       -0.000001859629     0.000002753263    -0.000002586334
       2       -0.000004251502     0.000000235063     0.000006320647
       3        0.000002460406     0.000001638109    -0.000006015290
       4        0.000007179200     0.000017001191     0.000013220229
       5       -0.000002161758    -0.000000688656    -0.000000569095
       6       -0.000006871954    -0.000004425984     0.000002894303
       7       -0.000003101947    -0.000003418392    -0.000002118388
       8       -0.000154166139    -0.000346761963     0.000264143943
       9       -0.000003907210    -0.000000318242     0.000001795506
      10        0.000079948929     0.000253774464    -0.000107285008
      11        0.000152490790     0.000380632456    -0.000262867613
      12        0.000014543775    -0.000053551448    -0.000050970269
      13       -0.000082692425    -0.000252261889     0.000162758332
      14        0.000006932912     0.000015114964    -0.000008054888
      15       -0.000004543451    -0.000009722940    -0.000010666076

  **** Optimization is complete! (in 5 steps) ****
    Final optimized geometry and variables:
    Molecular point group: c1

    Geometry (in Angstrom), charge = 0, multiplicity = 1:

    H           -0.984573203433     2.109510852243     1.952484662346
    C           -0.761582209615     1.367836319952     1.214816077300
    C           -1.750510807327     0.903234003625     0.289798970849
    C            0.463370980658     0.843583696198     1.125815566755
    H           -2.744618639073     1.306986500438     0.333508339685
    C           -1.445043012192    -0.024417733644    -0.622675228465
    H            1.256798507377     1.142267681436     1.781762880041
    N            0.799825686813    -0.100461147255     0.203842635047
    H           -2.158447572181    -0.395845611554    -1.329229045100
    C           -0.110458731642    -0.599364464232    -0.711621822114
    C            2.162683028202    -0.613221621342     0.197497681848
    O            0.200160781612    -1.442659667412    -1.508108207050
    H            2.297292222868    -1.217600313541    -0.679913949357
    H            2.864279907884     0.209865179271     0.183602846324
    H            2.343692446704    -1.220145351759     1.075883583347

  Mulliken Charges: (a.u.)
   Center  Symbol    Alpha    Beta     Spin     Total
       1     H     0.41409  0.41409  0.00000  0.17183
       2     C     3.10220  3.10220  0.00000 -0.20440
       3     C     3.06191  3.06191  0.00000 -0.12382
       4     C     3.03296  3.03296  0.00000 -0.06591
       5     H     0.41834  0.41834  0.00000  0.16333
       6     C     3.11619  3.11619  0.00000 -0.23238
       7     H     0.42059  0.42059  0.00000  0.15882
       8     N     3.51259  3.51259  0.00000 -0.02519
       9     H     0.40888  0.40888  0.00000  0.18223
      10     C     2.84549  2.84549  0.00000  0.30902
      11     C     3.10877  3.10877  0.00000 -0.21753
      12     O     4.23660  4.23660  0.00000 -0.47321
      13     H     0.42132  0.42132  0.00000  0.15736
      14     H     0.45191  0.45191  0.00000  0.09618
      15     H     0.44816  0.44816  0.00000  0.10367

   Total alpha = 29.00000, Total beta = 29.00000, Total charge = -0.00000

*** Psi4 exiting successfully. Buy a developer a beer!
