                              Psi4 1.0.54 Driver

  ==> Input File <==

--------------------------------------------------------------------------
set {
	reference rhf
	basis cc-pvtz
}

set_num_threads( 4 )
memory 2 gb

molecule MOL {
0 1

O	 -2.817697	 1.304178	 0.001046
C	 -2.664672	 0.129869	 0.003507
C	 -3.797908	 -0.860100	 -0.001145
O	 -1.481217	 -0.452708	 0.001092
H	 -4.408836	 -0.679689	 -0.875387
H	 -3.443486	 -1.878443	 -0.002770
H	 -4.412123	 -0.683688	 0.871605
C	 -0.332055	 0.384012	 -0.000250
C	 0.892252	 -0.506059	 -0.000295
H	 -0.360822	 1.020205	 -0.874146
H	 -0.359817	 1.021310	 0.872861
C	 2.188199	 0.299473	 -0.001416
H	 0.857046	 -1.152781	 -0.871031
H	 0.857910	 -1.151798	 0.871202
C	 3.405635	 -0.527452	 -0.405360
H	 2.089549	 1.144057	 -0.678855
H	 2.354427	 0.720144	 0.987208
C	 4.701054	 0.276846	 -0.405461
H	 3.241458	 -0.946922	 -1.393868
H	 3.505333	 -1.371661	 0.270998
H	 4.644864	 1.109352	 -1.098730
H	 5.544518	 -0.338530	 -0.695958
H	 4.910610	 0.681597	 0.578976

	symmetry c1
}
set optking {
	frozen_dihedral = ("
		16 12 9 13
	")
}

ee,wfn = optimize('scf', return_wfn=True)
oeprop( wfn, 'DIPOLE', 'QUADRUPOLE', 'MULLIKEN_CHARGES')
f=open( 'psi4out.xyz', 'w' )
f.write( "23  " )
f.write( str(ee) + "\n" )
f.write( MOL.save_string_xyz() )
f.close()
--------------------------------------------------------------------------

    Molecular point group: c1
  Charge       = 0
  Multiplicity = 1
  Basis Set: CC-PVTZ
  Basis Set:
  @DF-RHF Final Energy:  -423.13391191766289
    Total Energy =                       -423.1339119176628856
    Molecular point group: c1
  Basis Set: CC-PVTZ
  Basis Set:
  Basis Set: CC-PVTZ
  Basis Set:
  @DF-RHF Final Energy:  -423.13379436449770
    Total Energy =                       -423.1337943644981578
  Basis Set: CC-PVTZ
  Basis Set:
  Basis Set: CC-PVTZ
  Basis Set:
  @DF-RHF Final Energy:  -423.13360886554045
    Total Energy =                       -423.1336088655407366
  Basis Set: CC-PVTZ
  Basis Set:
  Basis Set: CC-PVTZ
  Basis Set:
  @DF-RHF Final Energy:  -423.13404295702173
    Total Energy =                       -423.1340429570217339
  Basis Set: CC-PVTZ
  Basis Set:
  Basis Set: CC-PVTZ
  Basis Set:
  @DF-RHF Final Energy:  -423.13405407901899
    Total Energy =                       -423.1340540790188243
  Basis Set: CC-PVTZ
  Basis Set:
  Basis Set: CC-PVTZ
  Basis Set:
  @DF-RHF Final Energy:  -423.13405617504327
    Total Energy =                       -423.1340561750436109
  Basis Set: CC-PVTZ
  Basis Set:
  Charge       = 0
  Multiplicity = 1
  Basis Set: CC-PVTZ
  Basis Set:

    Orbital Energies (a.u.)
    -----------------------

    Doubly Occupied:

       1A    -20.596038     2A    -20.529613     3A    -11.366493
       4A    -11.279741     5A    -11.230726     6A    -11.222173
       7A    -11.221281     8A    -11.219695     9A    -11.210925
      10A     -1.471294    11A     -1.364110    12A     -1.095029
      13A     -1.043403    14A     -1.004268    15A     -0.931752
      16A     -0.842739    17A     -0.803408    18A     -0.776527
      19A     -0.694226    20A     -0.688394    21A     -0.671864
      22A     -0.646482    23A     -0.607666    24A     -0.589254
      25A     -0.584162    26A     -0.567484    27A     -0.559690
      28A     -0.538583    29A     -0.524237    30A     -0.505686
      31A     -0.491621    32A     -0.478461    33A     -0.469570
      34A     -0.467765    35A     -0.455176    36A     -0.439004

  @DF-RHF Final Energy:  -423.13405659689039

   => Energetics <=

    Nuclear Repulsion Energy =            450.4571242511546529
    One-Electron Energy =               -1468.8052881345672631
    Two-Electron Energy =                 595.2141072865218803
    DFT Exchange-Correlation Energy =       0.0000000000000000
    Empirical Dispersion Energy =           0.0000000000000000
    PCM Polarization Energy =               0.0000000000000000
    EFP Energy =                            0.0000000000000000
    Total Energy =                       -423.1340565968906731
    Molecular point group: c1
  Basis Set: CC-PVTZ
  Basis Set:

  -Total Gradient:
     Atom            X                  Y                   Z
    ------   -----------------  -----------------  -----------------
       1        0.000003477566     0.000010978457    -0.000004640849
       2        0.000015418549    -0.000030229885     0.000007093904
       3        0.000000014085     0.000005336913     0.000003292467
       4       -0.000032481760     0.000005633501    -0.000010254738
       5        0.000002367948    -0.000001289063     0.000000911963
       6       -0.000001334974    -0.000001219229    -0.000000544943
       7       -0.000000196845     0.000000447241    -0.000003053621
       8        0.000024389471     0.000023660295     0.000016046043
       9       -0.001675893164     0.002727897950    -0.001232863890
      10       -0.000008482784    -0.000003397489     0.000000609836
      11       -0.000001990797    -0.000007735764    -0.000008344269
      12        0.001436833113    -0.002267328491    -0.002085302319
      13        0.001159249152    -0.001906487821     0.001360604706
      14        0.000004377757     0.000004035754     0.000001022962
      15        0.000001526853    -0.000006933736     0.000012578665
      16       -0.000937022642     0.001444324618     0.001951783951
      17        0.000002900420    -0.000000352667    -0.000002111407
      18        0.000007541907     0.000004237411    -0.000009458630
      19        0.000010657075     0.000006885209     0.000013873570
      20        0.000000987168     0.000005166384    -0.000008207570
      21       -0.000002750048    -0.000006785291     0.000010831835
      22       -0.000001754754     0.000002303494    -0.000001259636
      23       -0.000007833292    -0.000009147788    -0.000012608029

  **** Optimization is complete! (in 7 steps) ****
    Final optimized geometry and variables:
    Molecular point group: c1

    Geometry (in Angstrom), charge = 0, multiplicity = 1:

    O           -2.815165328201     1.291618617649     0.098666989941
    C           -2.661177909222     0.117452169150     0.109976812461
    C           -3.793173597382    -0.873195192527     0.152878737878
    O           -1.477475433040    -0.464056026393     0.086455154368
    H           -4.429689636158    -0.705475466472    -0.705544337199
    H           -3.437944134062    -1.891290324999     0.155267983924
    H           -4.381609756035    -0.684714410566     1.040815691657
    C           -0.330241239193     0.373496590186     0.044572853774
    C            0.895056432714    -0.513275682578     0.021270361224
    H           -0.382893431105     0.999834706204    -0.835205126025
    H           -0.334202219125     1.021135644638     0.910891583310
    C            2.193593447587     0.291968883868     0.042164338634
    H            0.864665992252    -1.155539242524    -0.853069702745
    H            0.864035412417    -1.176385957178     0.880007937040
    C            3.422713396387    -0.534643857588    -0.320877169378
    H            2.110443772985     1.143886098282    -0.628752699669
    H            2.329926426769     0.717266981262     1.033474597423
    C            4.722119063253     0.259062439401    -0.242074623664
    H            3.302556583274    -0.931796576976    -1.324693940606
    H            3.483838552515    -1.394083568603     0.341209171552
    H            4.702017956231     1.110078496045    -0.914648170277
    H            5.573344049548    -0.355170457385    -0.511703687396
    H            4.890668173909     0.635940876168     0.761095041846

  Mulliken Charges: (a.u.)
   Center  Symbol    Alpha    Beta     Spin     Total
       1     O     4.20241  4.20241  0.00000 -0.40483
       2     C     2.81504  2.81504  0.00000  0.36992
       3     C     3.13996  3.13996  0.00000 -0.27993
       4     O     4.14484  4.14484  0.00000 -0.28968
       5     H     0.44212  0.44212  0.00000  0.11577
       6     H     0.44183  0.44183  0.00000  0.11634
       7     H     0.44212  0.44212  0.00000  0.11576
       8     C     2.97838  2.97838  0.00000  0.04324
       9     C     3.08166  3.08166  0.00000 -0.16332
      10     H     0.45377  0.45377  0.00000  0.09246
      11     H     0.45407  0.45407  0.00000  0.09186
      12     C     3.09818  3.09818  0.00000 -0.19637
      13     H     0.45162  0.45162  0.00000  0.09677
      14     H     0.45038  0.45038  0.00000  0.09924
      15     C     3.08468  3.08468  0.00000 -0.16937
      16     H     0.45377  0.45377  0.00000  0.09245
      17     H     0.45229  0.45229  0.00000  0.09541
      18     C     3.14951  3.14951  0.00000 -0.29903
      19     H     0.45332  0.45332  0.00000  0.09337
      20     H     0.45339  0.45339  0.00000  0.09322
      21     H     0.45443  0.45443  0.00000  0.09114
      22     H     0.44771  0.44771  0.00000  0.10457
      23     H     0.45451  0.45451  0.00000  0.09098

   Total alpha = 36.00000, Total beta = 36.00000, Total charge = -0.00000

*** Psi4 exiting successfully. Buy a developer a beer!
