  ==> Input File <==

--------------------------------------------------------------------------
set {
	reference rhf
	basis 6-31G*
}

set_num_threads( 4 )
memory 2 gb

molecule MOL {
0 1

H	 -0.879805	 -1.229257	 -0.385425
N	 -1.172117	 -0.314371	 -0.100254
C	 -0.024542	 0.565565	 0.069209
H	 -1.777873	 0.033797	 -0.819223
C	 1.271298	 -0.229563	 -0.014192
H	 -0.049409	 1.297310	 -0.731596
H	 -0.046881	 1.125219	 1.006750
H	 1.332152	 -0.753033	 -0.961461
H	 2.134169	 0.422483	 0.080702
H	 1.326077	 -0.968298	 0.781395

	symmetry c1
}
set optking {
	frozen_dihedral = ("
		1 2 3 6
	")
}

ee = optimize('scf')
oeprop('DIPOLE', 'QUADRUPOLE', 'MULLIKEN_CHARGES')
f=open( 'psi4out.xyz', 'w' )
f.write( "10  " )
f.write( str(ee) + "\n" )
f.write( MOL.save_string_xyz() )
f.close()
--------------------------------------------------------------------------

    Molecular point group: c1
  Charge       = 0
  Multiplicity = 1
  Basis Set: 6-31G*
  Basis Set:
  @DF-RHF Final Energy:  -134.24187918975895
    Total Energy =                       -134.2418791897589188
    Molecular point group: c1
  Basis Set: 6-31G*
  Basis Set:
  Basis Set: 6-31G*
  Basis Set:
  @DF-RHF Final Energy:  -134.24332917677745
    Total Energy =                       -134.2433291767774790
  Basis Set: 6-31G*
  Basis Set:
  Basis Set: 6-31G*
  Basis Set:
  @DF-RHF Final Energy:  -134.24354980644625
    Total Energy =                       -134.2435498064462536
  Basis Set: 6-31G*
  Basis Set:
  Basis Set: 6-31G*
  Basis Set:
  @DF-RHF Final Energy:  -134.24355690306220
    Total Energy =                       -134.2435569030621991
  Basis Set: 6-31G*
  Basis Set:
  Basis Set: 6-31G*
  Basis Set:
  @DF-RHF Final Energy:  -134.24355805852167
    Total Energy =                       -134.2435580585216712
  Basis Set: 6-31G*
  Basis Set:
  Charge       = 0
  Multiplicity = 1
  Basis Set: 6-31G*
  Basis Set:

    Orbital Energies (a.u.)
    -----------------------

    Doubly Occupied:

       1A    -15.528821     2A    -11.242200     3A    -11.213577
       4A     -1.172522     5A     -0.989653     6A     -0.829925
       7A     -0.661274     8A     -0.618127     9A     -0.593852
      10A     -0.527266    11A     -0.504777    12A     -0.493475
      13A     -0.374220

  @DF-RHF Final Energy:  -134.24355814810608

   => Energetics <=

    Nuclear Repulsion Energy =             83.3129480761774914
    One-Electron Energy =                -345.6136328859474816
    Two-Electron Energy =                 128.0571266616638297
    DFT Exchange-Correlation Energy =       0.0000000000000000
    Empirical Dispersion Energy =           0.0000000000000000
    PCM Polarization Energy =               0.0000000000000000
    EFP Energy =                            0.0000000000000000
    Total Energy =                       -134.2435581481061888
    Molecular point group: c1
  Basis Set: 6-31G*
  Basis Set:

  -Total Gradient:
     Atom            X                  Y                   Z
    ------   -----------------  -----------------  -----------------
       1        0.000235517603    -0.000554729564     0.001991326181
       2       -0.000547960661     0.001029980198    -0.002197463996
       3        0.001321952400    -0.001640982514    -0.000911762376
       4        0.000005186936     0.000002622855     0.000003952101
       5       -0.000012376543    -0.000001543184    -0.000013421415
       6       -0.001001209527     0.001171283570     0.001125237140
       7       -0.000020692977     0.000008990570     0.000005737455
       8        0.000012473425    -0.000009555039    -0.000001609084
       9        0.000004497404    -0.000007888203    -0.000002240236
      10        0.000002611939     0.000001821310     0.000000244231

  **** Optimization is complete! (in 6 steps) ****
    Final optimized geometry and variables:
    Molecular point group: c1

    Geometry (in Angstrom), charge = 0, multiplicity = 1:

    H           -0.944774432132    -1.226411823968    -0.331989133268
    N           -1.198536716863    -0.303861775578    -0.041856566552
    C           -0.032459749862     0.568607846589     0.070333063645
    H           -1.874591388530     0.048178569031    -0.687572161480
    C            1.273397586791    -0.215078836253     0.032746772056
    H           -0.028256387789     1.323898781696    -0.713317005619
    H           -0.089576728831     1.111705465914     1.009677722610
    H            1.403518845039    -0.713945336273    -0.923899723688
    H            2.124300472421     0.440030079694     0.188677697923
    H            1.286634341956    -0.970903153847     0.812638455789

  Mulliken Charges: (a.u.)
   Center  Symbol    Alpha    Beta     Spin     Total
       1     H     0.33152  0.33152  0.00000  0.33695
       2     N     3.93096  3.93096  0.00000 -0.86192
       3     C     3.04861  3.04861  0.00000 -0.09721
       4     H     0.33112  0.33112  0.00000  0.33776
       5     C     3.25342  3.25342  0.00000 -0.50685
       6     H     0.42958  0.42958  0.00000  0.14083
       7     H     0.41972  0.41972  0.00000  0.16057
       8     H     0.42274  0.42274  0.00000  0.15452
       9     H     0.41712  0.41712  0.00000  0.16576
      10     H     0.41520  0.41520  0.00000  0.16960

   Total alpha = 13.00000, Total beta = 13.00000, Total charge = -0.00000
