  ==> Input File <==

--------------------------------------------------------------------------
set {
	reference rhf
	basis cc-pvtz
}

set_num_threads( 4 )
memory 2 gb

molecule MOL {
0 1

O	 -2.440701	 -0.934798	 -0.415053
C	 -1.922978	 0.063265	 -0.045005
C	 -2.632749	 1.372204	 0.158357
O	 -0.637375	 0.157174	 0.243149
H	 -2.187724	 2.129143	 -0.474664
H	 -3.677681	 1.257276	 -0.079438
H	 -2.516788	 1.693160	 1.185542
C	 0.162530	 -1.009518	 0.097799
C	 1.587210	 -0.664190	 0.477086
H	 0.096803	 -1.356267	 -0.924704
H	 -0.233803	 -1.785900	 0.736810
C	 2.256770	 0.342732	 -0.454344
H	 2.154716	 -1.590834	 0.479041
H	 1.598751	 -0.289614	 1.496104
C	 3.020025	 -0.326196	 -1.592584
H	 1.499790	 1.004379	 -0.867024
H	 2.933171	 0.967253	 0.117756
H	 3.481373	 0.410384	 -2.239882
H	 2.361969	 -0.936367	 -2.202540
H	 3.806123	 -0.969367	 -1.211273

	symmetry c1
}
set optking {
	frozen_dihedral = ("
		16 12 9 8
	")
}

ee = optimize('scf')
oeprop('DIPOLE', 'QUADRUPOLE', 'MULLIKEN_CHARGES')
f=open( 'psi4out.xyz', 'w' )
f.write( "20  " )
f.write( str(ee) + "\n" )
f.write( MOL.save_string_xyz() )
f.close()
--------------------------------------------------------------------------

    Molecular point group: c1
  Charge       = 0
  Multiplicity = 1
  Basis Set: CC-PVTZ
  Basis Set:
  @DF-RHF Final Energy:  -384.08405106052760
    Total Energy =                       -384.0840510605271447
    Molecular point group: c1
  Basis Set: CC-PVTZ
  Basis Set:
  Basis Set: CC-PVTZ
  Basis Set:
  @DF-RHF Final Energy:  -384.08425270190202
    Total Energy =                       -384.0842527019018462
  Basis Set: CC-PVTZ
  Basis Set:
  Basis Set: CC-PVTZ
  Basis Set:
  @DF-RHF Final Energy:  -384.08406606377144
    Total Energy =                       -384.0840660637713881
  Basis Set: CC-PVTZ
  Basis Set:
  Basis Set: CC-PVTZ
  Basis Set:
  @DF-RHF Final Energy:  -384.08429709655115
    Total Energy =                       -384.0842970965516088
  Basis Set: CC-PVTZ
  Basis Set:
  Basis Set: CC-PVTZ
  Basis Set:
  @DF-RHF Final Energy:  -384.08429900819601
    Total Energy =                       -384.0842990081961261
  Basis Set: CC-PVTZ
  Basis Set:
  Charge       = 0
  Multiplicity = 1
  Basis Set: CC-PVTZ
  Basis Set:

    Orbital Energies (a.u.)
    -----------------------

    Doubly Occupied:

       1A    -20.594599     2A    -20.532879     3A    -11.366908
       4A    -11.280360     5A    -11.231810     6A    -11.223295
       7A    -11.218892     8A    -11.211668     9A     -1.471340
      10A     -1.365512    11A     -1.086223    12A     -1.028428
      13A     -0.980538    14A     -0.885765    15A     -0.811260
      16A     -0.773594    17A     -0.693367    18A     -0.690696
      19A     -0.669126    20A     -0.624414    21A     -0.612710
      22A     -0.583568    23A     -0.575512    24A     -0.562454
      25A     -0.540241    26A     -0.529158    27A     -0.518997
      28A     -0.483568    29A     -0.476075    30A     -0.469728
      31A     -0.451213    32A     -0.442177

  @DF-RHF Final Energy:  -384.08429903739420

   => Energetics <=

    Nuclear Repulsion Energy =            388.3052197780045844
    One-Electron Energy =               -1292.8068936891650083
    Two-Electron Energy =                 520.4173748737662208
    DFT Exchange-Correlation Energy =       0.0000000000000000
    Empirical Dispersion Energy =           0.0000000000000000
    PCM Polarization Energy =               0.0000000000000000
    EFP Energy =                            0.0000000000000000
    Total Energy =                       -384.0842990373942030
    Molecular point group: c1
  Basis Set: CC-PVTZ
  Basis Set:

  -Total Gradient:
     Atom            X                  Y                   Z
    ------   -----------------  -----------------  -----------------
       1       -0.000005458630     0.000001281316     0.000010366764
       2       -0.000013782841     0.000001110250     0.000009640418
       3        0.000001502294     0.000001344644    -0.000011065209
       4        0.000003527542    -0.000034502825     0.000043219010
       5       -0.000000560485     0.000002404283     0.000001705023
       6        0.000000540122     0.000000515483    -0.000000732290
       7        0.000000448847    -0.000002199444     0.000000181315
       8       -0.000788676021     0.001849259018     0.001154366355
       9        0.001056658004    -0.002996734102    -0.002364695881
      10       -0.000000977040    -0.000020226803     0.000025262245
      11       -0.000017080472    -0.000001116090     0.000021323190
      12        0.000117490983     0.003260556213     0.003508178476
      13        0.000007681452     0.000019553630    -0.000005321327
      14        0.000009605954     0.000013461939     0.000009757324
      15        0.000008305779    -0.000015281281     0.000013558441
      16       -0.000378770369    -0.002059197922    -0.002417177569
      17        0.000000686788    -0.000022351599     0.000005878357
      18       -0.000001276164     0.000007294176     0.000002143911
      19        0.000000129062     0.000000559866    -0.000001377698
      20        0.000000005191    -0.000005730752    -0.000005210853

  **** Optimization is complete! (in 6 steps) ****
    Final optimized geometry and variables:
    Molecular point group: c1

    Geometry (in Angstrom), charge = 0, multiplicity = 1:

    O           -2.349505866128    -0.796584941873    -0.253373657266
    C           -1.838374197675     0.191336798280     0.151265061989
    C           -2.552687790502     1.493047559477     0.381408203829
    O           -0.556466485021     0.278945342314     0.457709854327
    H           -2.101215035701     2.267410978447    -0.225376694658
    H           -3.594499950684     1.383243714765     0.127982886920
    H           -2.449373188569     1.785951642702     1.418203535601
    C            0.246936329532    -0.882255340145     0.291940484711
    C            1.668442696823    -0.531579883945     0.684069321204
    H            0.178546778909    -1.213350681229    -0.735407486404
    H           -0.146101760731    -1.670387113678     0.918525080970
    C            2.355501762745     0.465295286327    -0.260453677412
    H            2.240012148398    -1.453043757349     0.732428830314
    H            1.641194251658    -0.131632572227     1.691641277082
    C            3.122383478309    -0.214844577317    -1.393287213709
    H            1.608710891468     1.120289375059    -0.693786871494
    H            3.036419705204     1.091668506470     0.303599946190
    H            3.558626020223     0.516565934651    -2.063790368045
    H            2.473963335551    -0.853847815204    -1.983774651772
    H            3.926898616554    -0.831007996606    -1.006030610499

  Mulliken Charges: (a.u.)
   Center  Symbol    Alpha    Beta     Spin     Total
       1     O     4.19711  4.19711  0.00000 -0.39423
       2     C     2.80943  2.80943  0.00000  0.38113
       3     C     3.13800  3.13800  0.00000 -0.27600
       4     O     4.15312  4.15312  0.00000 -0.30624
       5     H     0.44628  0.44628  0.00000  0.10743
       6     H     0.43792  0.43792  0.00000  0.12417
       7     H     0.44562  0.44562  0.00000  0.10876
       8     C     2.99317  2.99317  0.00000  0.01366
       9     C     3.08991  3.08991  0.00000 -0.17982
      10     H     0.45089  0.45089  0.00000  0.09821
      11     H     0.44412  0.44412  0.00000  0.11177
      12     C     3.09297  3.09297  0.00000 -0.18593
      13     H     0.45168  0.45168  0.00000  0.09664
      14     H     0.44655  0.44655  0.00000  0.10691
      15     C     3.14857  3.14857  0.00000 -0.29714
      16     H     0.44958  0.44958  0.00000  0.10084
      17     H     0.44738  0.44738  0.00000  0.10523
      18     H     0.44769  0.44769  0.00000  0.10463
      19     H     0.45486  0.45486  0.00000  0.09028
      20     H     0.45515  0.45515  0.00000  0.08969

   Total alpha = 32.00000, Total beta = 32.00000, Total charge = -0.00000
