  ==> Input File <==

--------------------------------------------------------------------------
set {
	reference rhf
	basis 6-31G*
}

set_num_threads( 1 )
memory 2 gb

molecule MOL {
0 1

H	 -2.172150	 0.880146	 0.502514
C	 -2.018062	 -0.000025	 -0.114509
O	 -0.774054	 0.001095	 -0.743181
H	 -2.760490	 0.003458	 -0.901350
H	 -2.173624	 -0.884374	 0.496163
C	 -0.035915	 1.206587	 -0.835228
C	 1.238254	 0.794637	 -1.569260
C	 -0.793543	 2.257324	 -1.653238
C	 0.313617	 1.748316	 0.554546
H	 0.992549	 0.385927	 -2.542922
H	 1.762986	 0.030958	 -1.006387
H	 1.901953	 1.642228	 -1.706201
H	 -1.099426	 1.841334	 -2.607395
H	 -0.157777	 3.115965	 -1.843342
H	 -1.678044	 2.616929	 -1.138556
H	 0.785850	 0.974970	 1.151189
H	 1.002342	 2.582655	 0.470464
H	 -0.561900	 2.103507	 1.087408

	symmetry c1
}
set optking {
	frozen_dihedral = ("
		2 3 6 7
	")
}

ee = energy('scf')
oeprop('DIPOLE', 'QUADRUPOLE', 'MULLIKEN_CHARGES')
f=open( 'psi4out.xyz', 'w' )
f.write( "18  " )
f.write( str(ee) + "\n" )
f.write( MOL.save_string_xyz() )
f.close()
--------------------------------------------------------------------------

    Molecular point group: c1

    Geometry (in Angstrom), charge = 0, multiplicity = 1:

       Center              X                  Y                   Z               Mass
    ------------   -----------------  -----------------  -----------------  -----------------
           H         -1.807529576650    -0.113316781212     1.222250103771     1.007825032070
           C         -1.653441576650    -0.993487781212     0.605227103771    12.000000000000
           O         -0.409433576650    -0.992367781212    -0.023444896229    15.994914619560
           H         -2.395869576650    -0.990004781212    -0.181613896229     1.007825032070
           H         -1.809003576650    -1.877836781212     1.215899103771     1.007825032070
           C          0.328705423350     0.213124218788    -0.115491896229    12.000000000000
           C          1.602874423350    -0.198825781212    -0.849523896229    12.000000000000
           C         -0.428922576650     1.263861218788    -0.933501896229    12.000000000000
           C          0.678237423350     0.754853218788     1.274282103771    12.000000000000
           H          1.357169423350    -0.607535781212    -1.823185896229     1.007825032070
           H          2.127606423350    -0.962504781212    -0.286650896229     1.007825032070
           H          2.266573423350     0.648765218788    -0.986464896229     1.007825032070
           H         -0.734805576650     0.847871218788    -1.887658896229     1.007825032070
           H          0.206843423350     2.122502218788    -1.123605896229     1.007825032070
           H         -1.313423576650     1.623466218788    -0.418819896229     1.007825032070
           H          1.150470423350    -0.018492781212     1.870925103771     1.007825032070
           H          1.366962423350     1.589192218788     1.190200103771     1.007825032070
           H         -0.197279576650     1.110044218788     1.807144103771     1.007825032070

  Charge       = 0
  Multiplicity = 1
  Basis Set: 6-31G*
  Basis Set:

    Orbital Energies (a.u.)
    -----------------------

    Doubly Occupied:

       1A    -20.544143     2A    -11.282254     3A    -11.260360
       4A    -11.208964     5A    -11.208717     6A    -11.203300
       7A     -1.369040     8A     -1.072960     9A     -0.946217
      10A     -0.939868    11A     -0.911932    12A     -0.752557
      13A     -0.655109    14A     -0.643990    15A     -0.639713
      16A     -0.590442    17A     -0.573117    18A     -0.551214
      19A     -0.537797    20A     -0.523968    21A     -0.515203
      22A     -0.489971    23A     -0.486229    24A     -0.437972
      25A     -0.400515

  @DF-RHF Final Energy:  -271.17209969459049

   => Energetics <=

    Nuclear Repulsion Energy =            272.3653722762850862
    One-Electron Energy =                -907.5834392220156133
    Two-Electron Energy =                 364.0459672511399276
    DFT Exchange-Correlation Energy =       0.0000000000000000
    Empirical Dispersion Energy =           0.0000000000000000
    PCM Polarization Energy =               0.0000000000000000
    EFP Energy =                            0.0000000000000000
    Total Energy =                       -271.1720996945905426

  Mulliken Charges: (a.u.)
   Center  Symbol    Alpha    Beta     Spin     Total
       1     H     0.43086  0.43086  0.00000  0.13828
       2     C     3.07697  3.07697  0.00000 -0.15395
       3     O     4.32112  4.32112  0.00000 -0.64224
       4     H     0.42403  0.42403  0.00000  0.15193
       5     H     0.41718  0.41718  0.00000  0.16564
       6     C     2.84401  2.84401  0.00000  0.31197
       7     C     3.23294  3.23294  0.00000 -0.46589
       8     C     3.24588  3.24588  0.00000 -0.49176
       9     C     3.24625  3.24625  0.00000 -0.49251
      10     H     0.41404  0.41404  0.00000  0.17192
      11     H     0.41396  0.41396  0.00000  0.17208
      12     H     0.42522  0.42522  0.00000  0.14956
      13     H     0.41329  0.41329  0.00000  0.17342
      14     H     0.41997  0.41997  0.00000  0.16006
      15     H     0.42098  0.42098  0.00000  0.15803
      16     H     0.41308  0.41308  0.00000  0.17383
      17     H     0.41975  0.41975  0.00000  0.16049
      18     H     0.42044  0.42044  0.00000  0.15912

   Total alpha = 25.00000, Total beta = 25.00000, Total charge = -0.00000
