  ==> Input File <==

--------------------------------------------------------------------------
set {
	reference rhf
	basis cc-pvtz
}

set_num_threads( 4 )
memory 2 gb

molecule MOL {
0 1

H	 -3.162190	 0.493205	 -0.000107
C	 -2.363908	 -0.234727	 0.000005
O	 -1.158738	 0.454634	 -0.000087
H	 -2.464314	 -0.863616	 -0.882153
H	 -2.464327	 -0.863359	 0.882345
C	 -0.028611	 -0.359694	 0.000037
C	 0.536842	 -0.429062	 -1.404187
H	 -0.287896	 -1.359002	 0.350455
H	 0.718819	 0.038171	 0.686837
C	 1.781423	 -1.305603	 -1.488122
H	 -0.232392	 -0.807975	 -2.067987
H	 0.766364	 0.578077	 -1.734249
H	 1.568094	 -2.325231	 -1.184915
H	 2.163833	 -1.337480	 -2.500923
H	 2.573616	 -0.929756	 -0.849187

	symmetry c1
}
set optking {
	frozen_dihedral = ("
		8 6 3 2
	")
}

ee = optimize('scf')
oeprop('DIPOLE', 'QUADRUPOLE', 'MULLIKEN_CHARGES')
f=open( 'psi4out.xyz', 'w' )
f.write( "15  " )
f.write( str(ee) + "\n" )
f.write( MOL.save_string_xyz() )
f.close()
--------------------------------------------------------------------------

    Molecular point group: c1
  Charge       = 0
  Multiplicity = 1
  Basis Set: CC-PVTZ
  Basis Set:
  @DF-RHF Final Energy:  -232.22395329207055
    Total Energy =                       -232.2239532920705187
    Molecular point group: c1
  Basis Set: CC-PVTZ
  Basis Set:
  Basis Set: CC-PVTZ
  Basis Set:
  @DF-RHF Final Energy:  -232.22459373678285
    Total Energy =                       -232.2245937367829356
  Basis Set: CC-PVTZ
  Basis Set:
  Basis Set: CC-PVTZ
  Basis Set:
  @DF-RHF Final Energy:  -232.22475174442374
    Total Energy =                       -232.2247517444238269
  Basis Set: CC-PVTZ
  Basis Set:
  Charge       = 0
  Multiplicity = 1
  Basis Set: CC-PVTZ
  Basis Set:

    Orbital Energies (a.u.)
    -----------------------

    Doubly Occupied:

       1A    -20.544612     2A    -11.264106     3A    -11.262285
       4A    -11.213365     5A    -11.211549     6A     -1.377242
       7A     -1.057099     8A     -0.958031     9A     -0.880715
      10A     -0.807916    11A     -0.670765    12A     -0.655688
      13A     -0.638315    14A     -0.599809    15A     -0.568721
      16A     -0.536049    17A     -0.511889    18A     -0.496131
      19A     -0.483428    20A     -0.462102    21A     -0.406879

  @DF-RHF Final Energy:  -232.22475354693546

   => Energetics <=

    Nuclear Repulsion Energy =            190.8878153536948616
    One-Electron Energy =                -693.0117457930803084
    Two-Electron Energy =                 269.8991768924499297
    DFT Exchange-Correlation Energy =       0.0000000000000000
    Empirical Dispersion Energy =           0.0000000000000000
    PCM Polarization Energy =               0.0000000000000000
    EFP Energy =                            0.0000000000000000
    Total Energy =                       -232.2247535469355171
    Molecular point group: c1
  Basis Set: CC-PVTZ
  Basis Set:

  -Total Gradient:
     Atom            X                  Y                   Z
    ------   -----------------  -----------------  -----------------
       1        0.000005054023     0.000009722389    -0.000005029261
       2       -0.000016685761    -0.000026770908     0.000950364000
       3       -0.000068678356    -0.000070852260    -0.001616653433
       4        0.000035182870     0.000014921965     0.000008722644
       5        0.000015602217     0.000001252164    -0.000005893443
       6        0.000218501564     0.000370231753     0.001663919937
       7        0.000084709086     0.000003660249     0.000084948103
       8       -0.000260473654    -0.000324474084    -0.001026578482
       9       -0.000008132038     0.000007722294    -0.000020233890
      10       -0.000017864053    -0.000002912479    -0.000034851071
      11       -0.000003447550     0.000002032045     0.000029458792
      12       -0.000008370907     0.000022090146    -0.000013068041
      13        0.000013685367     0.000012520097     0.000004164963
      14        0.000015645561    -0.000010717023    -0.000014593125
      15       -0.000004728363    -0.000008426346    -0.000004677693

  **** Optimization is complete! (in 4 steps) ****
    Final optimized geometry and variables:
    Molecular point group: c1

    Geometry (in Angstrom), charge = 0, multiplicity = 1:

    H           -2.898291247692     0.919066886547     0.601807193646
    C           -2.122669225081     0.166648847915     0.604493217784
    O           -0.897801487826     0.822827475632     0.581009710205
    H           -2.259659434536    -0.472134390642    -0.265006830152
    H           -2.231294215836    -0.441971584751     1.499069118628
    C            0.234117867824     0.002351957548     0.536303651569
    C            0.830924396363    -0.058018613933    -0.861301643171
    H           -0.010446454187    -1.001872556738     0.875691226350
    H            0.960791285254     0.411421694512     1.229556099763
    C            2.090780819996    -0.915060938690    -0.919755573288
    H            0.087350665115    -0.447477807139    -1.549851852617
    H            1.052043704366     0.953895464964    -1.182797831896
    H            1.885916690089    -1.940004581433    -0.628051701863
    H            2.502095133435    -0.934703033744    -1.921652195752
    H            2.858669000056    -0.531061350400    -0.256338689479

  Mulliken Charges: (a.u.)
   Center  Symbol    Alpha    Beta     Spin     Total
       1     H     0.44842  0.44842  0.00000  0.10316
       2     C     3.03185  3.03185  0.00000 -0.06370
       3     O     4.18016  4.18016  0.00000 -0.36032
       4     H     0.47303  0.47303  0.00000  0.05394
       5     H     0.46916  0.46916  0.00000  0.06167
       6     C     2.97349  2.97349  0.00000  0.05301
       7     C     3.07965  3.07965  0.00000 -0.15929
       8     H     0.47394  0.47394  0.00000  0.05211
       9     H     0.45137  0.45137  0.00000  0.09725
      10     C     3.15423  3.15423  0.00000 -0.30845
      11     H     0.45669  0.45669  0.00000  0.08662
      12     H     0.45097  0.45097  0.00000  0.09806
      13     H     0.45575  0.45575  0.00000  0.08850
      14     H     0.44670  0.44670  0.00000  0.10660
      15     H     0.45458  0.45458  0.00000  0.09084

   Total alpha = 21.00000, Total beta = 21.00000, Total charge =  0.00000
