                              Psi4 1.0.54 Driver

  ==> Input File <==

--------------------------------------------------------------------------
set {
	reference rhf
	basis cc-pvtz
}

set_num_threads( 4 )
memory 2 gb

molecule MOL {
0 1

H	 -2.244017	 1.849068	 0.137116
O	 -1.404270	 1.414875	 0.141584
C	 -1.605397	 0.107680	 0.001145
C	 -0.310616	 -0.658853	 0.000791
O	 -2.688668	 -0.354325	 -0.103953
C	 0.926581	 0.227233	 0.000178
H	 -0.327628	 -1.313681	 -0.864448
H	 -0.327041	 -1.313334	 0.866298
C	 2.220156	 -0.582071	 -0.000088
H	 0.899945	 0.878221	 -0.866390
H	 0.900542	 0.878581	 0.866486
C	 3.466689	 0.296012	 -0.000457
H	 2.239073	 -1.234095	 -0.869382
H	 2.239505	 -1.233985	 0.869270
H	 3.493549	 0.935857	 -0.875887
H	 4.368821	 -0.304526	 -0.001199
H	 3.494559	 0.935166	 0.875458

	symmetry c1
}
set optking {
	frozen_dihedral = ("
		2 3 4 7
	")
}

ee,wfn = optimize('scf', return_wfn=True)
oeprop( wfn, 'DIPOLE', 'QUADRUPOLE', 'MULLIKEN_CHARGES')
f=open( 'psi4out.xyz', 'w' )
f.write( "17  " )
f.write( str(ee) + "\n" )
f.write( MOL.save_string_xyz() )
f.close()
--------------------------------------------------------------------------

    Molecular point group: c1
  Charge       = 0
  Multiplicity = 1
  Basis Set: CC-PVTZ
  Basis Set:
  @DF-RHF Final Energy:  -345.04484648575544
    Total Energy =                       -345.0448464857552153
    Molecular point group: c1
  Basis Set: CC-PVTZ
  Basis Set:
  Basis Set: CC-PVTZ
  Basis Set:
  @DF-RHF Final Energy:  -345.04580466141027
    Total Energy =                       -345.0458046614105569
  Basis Set: CC-PVTZ
  Basis Set:
  Basis Set: CC-PVTZ
  Basis Set:
  @DF-RHF Final Energy:  -345.04604666077188
    Total Energy =                       -345.0460466607720491
  Basis Set: CC-PVTZ
  Basis Set:
  Basis Set: CC-PVTZ
  Basis Set:
  @DF-RHF Final Energy:  -345.04582933740613
    Total Energy =                       -345.0458293374058485
  Basis Set: CC-PVTZ
  Basis Set:
  Basis Set: CC-PVTZ
  Basis Set:
  @DF-RHF Final Energy:  -345.04614959477283
    Total Energy =                       -345.0461495947727144
  Basis Set: CC-PVTZ
  Basis Set:
  Basis Set: CC-PVTZ
  Basis Set:
  @DF-RHF Final Energy:  -345.04615285851600
    Total Energy =                       -345.0461528585162796
  Basis Set: CC-PVTZ
  Basis Set:
  Charge       = 0
  Multiplicity = 1
  Basis Set: CC-PVTZ
  Basis Set:

    Orbital Energies (a.u.)
    -----------------------

    Doubly Occupied:

       1A    -20.607110     2A    -20.536022     3A    -11.374272
       4A    -11.239641     5A    -11.225273     6A    -11.223179
       7A    -11.213280     8A     -1.479051     9A     -1.367728
      10A     -1.095077    11A     -1.019923    12A     -0.909984
      13A     -0.828427    14A     -0.809158    15A     -0.702939
      16A     -0.678225    17A     -0.672739    18A     -0.632451
      19A     -0.593490    20A     -0.581696    21A     -0.576865
      22A     -0.535650    23A     -0.518824    24A     -0.500793
      25A     -0.483996    26A     -0.482571    27A     -0.468296
      28A     -0.436410

  @DF-RHF Final Energy:  -345.04615291360687

   => Energetics <=

    Nuclear Repulsion Energy =            305.3567184520859428
    One-Electron Energy =               -1075.2196032076453776
    Two-Electron Energy =                 424.8167318419525600
    DFT Exchange-Correlation Energy =       0.0000000000000000
    Empirical Dispersion Energy =           0.0000000000000000
    PCM Polarization Energy =               0.0000000000000000
    EFP Energy =                            0.0000000000000000
    Total Energy =                       -345.0461529136068748
    Molecular point group: c1
  Basis Set: CC-PVTZ
  Basis Set:

  -Total Gradient:
     Atom            X                  Y                   Z
    ------   -----------------  -----------------  -----------------
       1        0.000000199572    -0.000001179689    -0.000000583332
       2        0.000011976371     0.000023232191    -0.000216475757
       3        0.000023262414     0.000010874479     0.000267310127
       4       -0.000117541594    -0.000213440834     0.000103420408
       5       -0.000006581520    -0.000000452178     0.000001395991
       6       -0.000000932090     0.000008711696    -0.000006863936
       7        0.000099180365     0.000184499630    -0.000146621838
       8        0.000001386962    -0.000005707973     0.000001498055
       9        0.000002930195    -0.000009895088    -0.000006436380
      10       -0.000000703348    -0.000000542224    -0.000001311514
      11       -0.000001506062     0.000001491558    -0.000000746532
      12       -0.000007217305     0.000004277419     0.000006612120
      13        0.000000680793     0.000000858264    -0.000002958245
      14       -0.000000427911    -0.000001084809    -0.000000376148
      15       -0.000000661039    -0.000002081829    -0.000000989366
      16       -0.000005311596    -0.000002763514     0.000002197443
      17        0.000001265787     0.000003202902     0.000000928905

  **** Optimization is complete! (in 7 steps) ****
    Final optimized geometry and variables:
    Molecular point group: c1

    Geometry (in Angstrom), charge = 0, multiplicity = 1:

    H           -2.534304754339     1.586128235236    -0.002671396326
    O           -1.643661410324     1.270407382932     0.034232949072
    C           -1.671818235878    -0.054267720161    -0.041002953286
    C           -0.313934196754    -0.711044077652     0.015983900337
    O           -2.686924875371    -0.654647756460    -0.138338083002
    C            0.901884580163     0.208598412566     0.012335761343
    H           -0.283266384004    -1.397632132813    -0.821840489193
    H           -0.324723243897    -1.330609917397     0.906531331541
    C            2.211006279449    -0.574470432891     0.060191728703
    H            0.884542061316     0.831785887766    -0.875341648359
    H            0.851449658667     0.883976260397     0.858823761188
    C            3.440522455345     0.327198853186     0.057916115912
    H            2.258571132922    -1.250808698233    -0.788885726651
    H            2.224696823247    -1.200118661196     0.948540194994
    H            3.473626999513     0.941010531302    -0.835847074406
    H            4.353335461200    -0.255760336640     0.092885836231
    H            3.439263617337     0.992387955665     0.914757141985

  Mulliken Charges: (a.u.)
   Center  Symbol    Alpha    Beta     Spin     Total
       1     H     0.38588  0.38588  0.00000  0.22823
       2     O     4.14813  4.14813  0.00000 -0.29626
       3     C     2.81228  2.81228  0.00000  0.37545
       4     C     3.10192  3.10192  0.00000 -0.20384
       5     O     4.19762  4.19762  0.00000 -0.39524
       6     C     3.08717  3.08717  0.00000 -0.17434
       7     H     0.43564  0.43564  0.00000  0.12871
       8     H     0.43744  0.43744  0.00000  0.12512
       9     C     3.08809  3.08809  0.00000 -0.17618
      10     H     0.44738  0.44738  0.00000  0.10523
      11     H     0.44635  0.44635  0.00000  0.10731
      12     C     3.14959  3.14959  0.00000 -0.29918
      13     H     0.45350  0.45350  0.00000  0.09300
      14     H     0.45373  0.45373  0.00000  0.09253
      15     H     0.45407  0.45407  0.00000  0.09185
      16     H     0.44711  0.44711  0.00000  0.10579
      17     H     0.45409  0.45409  0.00000  0.09182

   Total alpha = 28.00000, Total beta = 28.00000, Total charge =  0.00000

*** Psi4 exiting successfully. Buy a developer a beer!
