  ==> Input File <==

--------------------------------------------------------------------------
set {
	reference rhf
	basis 6-31G*
}

set_num_threads( 4 )
memory 2 gb

molecule MOL {
0 1

H	 -2.646374	 -0.642757	 1.268656
C	 -2.083525	 -0.384536	 0.393091
O	 -0.807605	 -0.127164	 0.768327
F	 -2.118945	 -1.383102	 -0.486752
F	 -2.621877	 0.670592	 -0.209486
C	 0.084052	 0.273579	 -0.209957
C	 -0.515479	 -0.130572	 -1.550622
Cl	 1.663716	 -0.492839	 0.023454
H	 0.235561	 1.338849	 -0.214480
F	 0.276977	 0.232694	 -2.536620
F	 -1.669084	 0.488516	 -1.703469
F	 -0.723714	 -1.422189	 -1.630241

	symmetry c1
}
set optking {
	frozen_dihedral = ("
		9 6 3 2
	")
}

ee = optimize('scf')
oeprop('DIPOLE', 'QUADRUPOLE', 'MULLIKEN_CHARGES')
f=open( 'psi4out.xyz', 'w' )
f.write( "12  " )
f.write( str(ee) + "\n" )
f.write( MOL.save_string_xyz() )
f.close()
--------------------------------------------------------------------------

    Molecular point group: c1
  Charge       = 0
  Multiplicity = 1
  Basis Set: 6-31G*
  Basis Set:
  @DF-RHF Final Energy: -1146.16195669827948
    Total Energy =                      -1146.1619566982785727
    Molecular point group: c1
  Basis Set: 6-31G*
  Basis Set:
  Basis Set: 6-31G*
  Basis Set:
  @DF-RHF Final Energy: -1146.22410157707691
    Total Energy =                      -1146.2241015770759986
  Basis Set: 6-31G*
  Basis Set:
  Basis Set: 6-31G*
  Basis Set:
  @DF-RHF Final Energy: -1146.25853244217114
    Total Energy =                      -1146.2585324421706900
  Basis Set: 6-31G*
  Basis Set:
  Basis Set: 6-31G*
  Basis Set:
  @DF-RHF Final Energy: -1146.27926719992183
    Total Energy =                      -1146.2792671999213781
  Basis Set: 6-31G*
  Basis Set:
  @DF-RHF Final Energy: -1146.29092339029899
    Total Energy =                      -1146.2909233902987580
  @DF-RHF Final Energy: -1146.29680569406401
    Total Energy =                      -1146.2968056940642327
  @DF-RHF Final Energy: -1146.29892166806667
    Total Energy =                      -1146.2989216680673508
  @DF-RHF Final Energy: -1146.29972888059683
    Total Energy =                      -1146.2997288805970584
  Basis Set: 6-31G*
  Basis Set:
  @DF-RHF Final Energy: -1146.29993216695811
    Total Energy =                      -1146.2999321669581150
  Basis Set: 6-31G*
  Basis Set:
  Basis Set: 6-31G*
  Basis Set:
  @DF-RHF Final Energy: -1146.29995555613596
    Total Energy =                      -1146.2999555561355010
  Basis Set: 6-31G*
  Basis Set:
  Basis Set: 6-31G*
  Basis Set:
  @DF-RHF Final Energy: -1146.29995788764290
    Total Energy =                      -1146.2999578876435862
  Basis Set: 6-31G*
  Basis Set:
  Charge       = 0
  Multiplicity = 1
  Basis Set: 6-31G*
  Basis Set:

    Orbital Energies (a.u.)
    -----------------------

    Doubly Occupied:

       1A   -104.843981     2A    -26.362620     3A    -26.360994
       4A    -26.359576     5A    -26.341807     6A    -26.338296
       7A    -20.643217     8A    -11.532897     9A    -11.487413
      10A    -11.405576    11A    -10.578775    12A     -8.048144
      13A     -8.044551    14A     -8.044454    15A     -1.764710
      16A     -1.711288    17A     -1.660556    18A     -1.658609
      19A     -1.633822    20A     -1.475448    21A     -1.181774
      22A     -1.043225    23A     -0.997103    24A     -0.918148
      25A     -0.858627    26A     -0.853948    27A     -0.849633
      28A     -0.826135    29A     -0.811275    30A     -0.765139
      31A     -0.731179    32A     -0.729688    33A     -0.707431
      34A     -0.688680    35A     -0.679664    36A     -0.674282
      37A     -0.660555    38A     -0.659712    39A     -0.649932
      40A     -0.642893    41A     -0.584885    42A     -0.549590
      43A     -0.528410    44A     -0.477785    45A     -0.468023

  @DF-RHF Final Energy: -1146.29995847658529

   => Energetics <=

    Nuclear Repulsion Energy =            753.7463910387206170
    One-Electron Energy =               -3090.4238064337669130
    Two-Electron Energy =                1190.3774569184611209
    DFT Exchange-Correlation Energy =       0.0000000000000000
    Empirical Dispersion Energy =           0.0000000000000000
    PCM Polarization Energy =               0.0000000000000000
    EFP Energy =                            0.0000000000000000
    Total Energy =                      -1146.2999584765852887
    Molecular point group: c1
  Basis Set: 6-31G*
  Basis Set:

  -Total Gradient:
     Atom            X                  Y                   Z
    ------   -----------------  -----------------  -----------------
       1        0.000016216319    -0.000018116416     0.000003960620
       2        0.000673788220    -0.003650206318    -0.000620547012
       3       -0.000364444388     0.005615815292     0.001637142443
       4       -0.000011649762    -0.000105054054     0.000081833089
       5        0.000017525962     0.000037626666    -0.000039589784
       6       -0.003402875595    -0.001450774453    -0.003459894869
       7        0.000054838011     0.000058075546    -0.000027417063
       8        0.000017485867    -0.000010827275     0.000029983992
       9        0.003057848358    -0.000555431039     0.002438702491
      10       -0.000023093156    -0.000021395271     0.000003393368
      11        0.000002354413     0.000110722439    -0.000095492286
      12       -0.000037994282    -0.000010435116     0.000047925018

  **** Optimization is complete! (in 12 steps) ****
    Final optimized geometry and variables:
    Molecular point group: c1

    Geometry (in Angstrom), charge = 0, multiplicity = 1:

    H           -1.902220768155    -0.379764401495     2.277858638593
    C           -1.558862055911    -0.107850204645     1.298443767187
    O           -0.229335830432     0.133031210013     1.404100794140
    F           -1.821350386252    -1.087659769732     0.444735151476
    F           -2.212100107925     0.971690421001     0.879586902659
    C            0.650015238188     0.488148852012     0.387499484604
    C            0.295340830065     0.116210582890    -1.057616467134
    CL           2.208152637244    -0.257888501727     0.797084329991
    H            0.816620865410     1.551196251794     0.420403677932
    F            1.224245496350     0.621859397551    -1.844740827227
    F           -0.853602897835     0.655914921995    -1.405419702589
    F            0.236615185254    -1.174883276547    -1.263424002711

  Mulliken Charges: (a.u.)
   Center  Symbol    Alpha    Beta     Spin     Total
       1     H     0.40314  0.40314  0.00000  0.19371
       2     C     2.56026  2.56026  0.00000  0.87948
       3     O     4.31714  4.31714  0.00000 -0.63427
       4     F     4.68368  4.68368  0.00000 -0.36736
       5     F     4.68626  4.68626  0.00000 -0.37252
       6     C     3.00853  3.00853  0.00000 -0.01707
       7     C     2.45552  2.45552  0.00000  1.08896
       8    CL     8.50049  8.50049  0.00000 -0.00098
       9     H     0.37144  0.37144  0.00000  0.25713
      10     F     4.67395  4.67395  0.00000 -0.34790
      11     F     4.67395  4.67395  0.00000 -0.34789
      12     F     4.66565  4.66565  0.00000 -0.33129

   Total alpha = 45.00000, Total beta = 45.00000, Total charge = -0.00000
