  ==> Input File <==

--------------------------------------------------------------------------
set {
	reference rhf
	basis cc-pvtz
}

set_num_threads( 4 )
memory 2 gb

molecule MOL {
0 1

H	 1.355354	 0.616977	 0.956638
C	 0.848385	 0.440008	 0.000011
C	 -0.623497	 0.751021	 0.000090
O	 1.457165	 0.035513	 -0.928975
C	 -1.523725	 -0.474323	 -0.000013
H	 -0.813143	 1.382932	 -0.864897
H	 -0.813071	 1.382716	 0.865253
H	 -1.342980	 -1.087348	 -0.873016
H	 -2.565269	 -0.177464	 0.000070
H	 -1.342898	 -1.087564	 0.872820

	symmetry c1
}
set optking {
	frozen_dihedral = ("
		4 2 3 6
	")
}

ee = optimize('scf')
oeprop('DIPOLE', 'QUADRUPOLE', 'MULLIKEN_CHARGES')
f=open( 'psi4out.xyz', 'w' )
f.write( "10  " )
f.write( str(ee) + "\n" )
f.write( MOL.save_string_xyz() )
f.close()
--------------------------------------------------------------------------

    Molecular point group: c1
  Charge       = 0
  Multiplicity = 1
  Basis Set: CC-PVTZ
  Basis Set:
  @DF-RHF Final Energy:  -192.02064566279157
    Total Energy =                       -192.0206456627915941
    Molecular point group: c1
  Basis Set: CC-PVTZ
  Basis Set:
  Basis Set: CC-PVTZ
  Basis Set:
  @DF-RHF Final Energy:  -192.02126846977271
    Total Energy =                       -192.0212684697726218
  Basis Set: CC-PVTZ
  Basis Set:
  Basis Set: CC-PVTZ
  Basis Set:
  @DF-RHF Final Energy:  -192.02003900378327
    Total Energy =                       -192.0200390037832108
  Basis Set: CC-PVTZ
  Basis Set:
  Basis Set: CC-PVTZ
  Basis Set:
  @DF-RHF Final Energy:  -192.02152491868981
    Total Energy =                       -192.0215249186896642
  Basis Set: CC-PVTZ
  Basis Set:
  Basis Set: CC-PVTZ
  Basis Set:
  @DF-RHF Final Energy:  -192.02154051139544
    Total Energy =                       -192.0215405113956422
  Basis Set: CC-PVTZ
  Basis Set:
  Charge       = 0
  Multiplicity = 1
  Basis Set: CC-PVTZ
  Basis Set:

    Orbital Energies (a.u.)
    -----------------------

    Doubly Occupied:

       1A    -20.553460     2A    -11.323221     3A    -11.237501
       4A    -11.227919     5A     -1.408879     6A     -1.062794
       7A     -0.905740     8A     -0.786402     9A     -0.685575
      10A     -0.642588    11A     -0.608143    12A     -0.574644
      13A     -0.540150    14A     -0.511004    15A     -0.497014
      16A     -0.414335

  @DF-RHF Final Energy:  -192.02154082967047

   => Energetics <=

    Nuclear Repulsion Energy =            118.6490678676612873
    One-Electron Energy =                -495.3824791516789787
    Two-Electron Energy =                 184.7118704543472631
    DFT Exchange-Correlation Energy =       0.0000000000000000
    Empirical Dispersion Energy =           0.0000000000000000
    PCM Polarization Energy =               0.0000000000000000
    EFP Energy =                            0.0000000000000000
    Total Energy =                       -192.0215408296704140
    Molecular point group: c1
  Basis Set: CC-PVTZ
  Basis Set:

  -Total Gradient:
     Atom            X                  Y                   Z
    ------   -----------------  -----------------  -----------------
       1        0.000002145978    -0.000004308069    -0.000013890556
       2        0.000274954325     0.001114757217    -0.000281744058
       3       -0.000281353110    -0.001031104678    -0.000306537812
       4       -0.000138550163    -0.000694722367     0.000238384819
       5        0.000021211466     0.000032074482    -0.000005926481
       6        0.000149948460     0.000570590976     0.000380590479
       7       -0.000025510109     0.000010155331    -0.000000404220
       8       -0.000001995861    -0.000010066976    -0.000009955835
       9       -0.000001816955     0.000007994013    -0.000000061363
      10        0.000000965973     0.000004630071    -0.000000454974

  **** Optimization is complete! (in 6 steps) ****
    Final optimized geometry and variables:
    Molecular point group: c1

    Geometry (in Angstrom), charge = 0, multiplicity = 1:

    H            1.362601243848     0.434937417421     1.179933352674
    C            0.815831170594     0.266748074691     0.244433046920
    C           -0.652113789998     0.622586177153     0.247287901188
    O            1.373942102578    -0.193521964029    -0.690853268311
    C           -1.525070278031    -0.634722692753     0.231846222205
    H           -0.847728416920     1.222068568068    -0.633896052065
    H           -0.876206082325     1.226962932713     1.118794781598
    H           -1.312317594808    -1.231887156076    -0.644473288686
    H           -2.573463762442    -0.365501968387     0.219248684965
    H           -1.348947872670    -1.246862004153     1.109344891422

  Mulliken Charges: (a.u.)
   Center  Symbol    Alpha    Beta     Spin     Total
       1     H     0.45907  0.45907  0.00000  0.08186
       2     C     2.90619  2.90619  0.00000  0.18762
       3     C     3.08315  3.08315  0.00000 -0.16630
       4     O     4.16810  4.16810  0.00000 -0.33619
       5     C     3.14455  3.14455  0.00000 -0.28910
       6     H     0.44358  0.44358  0.00000  0.11284
       7     H     0.45111  0.45111  0.00000  0.09778
       8     H     0.44262  0.44262  0.00000  0.11475
       9     H     0.44756  0.44756  0.00000  0.10488
      10     H     0.45407  0.45407  0.00000  0.09186

   Total alpha = 16.00000, Total beta = 16.00000, Total charge =  0.00000
