  ==> Input File <==

--------------------------------------------------------------------------
set {
	reference rhf
	basis cc-pvtz
}

set_num_threads( 4 )
memory 2 gb

molecule MOL {
0 1

H	 2.646708	 0.758099	 0.000000
O	 2.258158	 -0.097743	 0.000000
C	 0.911162	 -0.015915	 0.000000
C	 0.284807	 0.235812	 -1.209593
C	 0.159878	 -0.173327	 1.149441
H	 0.883529	 0.355134	 -2.090952
C	 -1.089340	 0.327816	 -1.257862
H	 0.645831	 -0.368688	 2.088235
C	 -1.219042	 -0.078359	 1.086037
H	 -1.569320	 0.523055	 -2.198022
C	 -1.852971	 0.171943	 -0.112885
H	 -1.794948	 -0.201908	 1.983475
H	 -2.921853	 0.244902	 -0.158318

	symmetry c1
}
set optking {
	frozen_dihedral = ("
		4 3 2 1
	")
}

ee = optimize('scf')
oeprop('DIPOLE', 'QUADRUPOLE', 'MULLIKEN_CHARGES')
f=open( 'psi4out.xyz', 'w' )
f.write( "13  " )
f.write( str(ee) + "\n" )
f.write( MOL.save_string_xyz() )
f.close()
--------------------------------------------------------------------------

    Molecular point group: c1
  Charge       = 0
  Multiplicity = 1
  Basis Set: CC-PVTZ
  Basis Set:
  @DF-RHF Final Energy:  -305.66532572655666
    Total Energy =                       -305.6653257265568300
    Molecular point group: c1
  Basis Set: CC-PVTZ
  Basis Set:
  Basis Set: CC-PVTZ
  Basis Set:
  @DF-RHF Final Energy:  -305.66632261656673
    Total Energy =                       -305.6663226165665037
  Basis Set: CC-PVTZ
  Basis Set:
  Basis Set: CC-PVTZ
  Basis Set:
  @DF-RHF Final Energy:  -305.66638945163191
    Total Energy =                       -305.6663894516318578
  Basis Set: CC-PVTZ
  Basis Set:
  Basis Set: CC-PVTZ
  Basis Set:
  @DF-RHF Final Energy:  -305.66639697036908
    Total Energy =                       -305.6663969703690782
  Basis Set: CC-PVTZ
  Basis Set:
  Charge       = 0
  Multiplicity = 1
  Basis Set: CC-PVTZ
  Basis Set:

    Orbital Energies (a.u.)
    -----------------------

    Doubly Occupied:

       1A    -20.571386     2A    -11.288945     3A    -11.233518
       4A    -11.233131     5A    -11.225947     6A    -11.225640
       7A    -11.224872     8A     -1.398194     9A     -1.153316
      10A     -1.022358    11A     -1.008347    12A     -0.840019
      13A     -0.828538    14A     -0.738109    15A     -0.684275
      16A     -0.651635    17A     -0.632321    18A     -0.596926
      19A     -0.592046    20A     -0.526722    21A     -0.517729
      22A     -0.498450    23A     -0.471918    24A     -0.341866
      25A     -0.329186

  @DF-RHF Final Energy:  -305.66639828718053

   => Energetics <=

    Nuclear Repulsion Energy =            273.3169705362196282
    One-Electron Energy =                -956.2959507094138871
    Two-Electron Energy =                 377.3125818860136178
    DFT Exchange-Correlation Energy =       0.0000000000000000
    Empirical Dispersion Energy =           0.0000000000000000
    PCM Polarization Energy =               0.0000000000000000
    EFP Energy =                            0.0000000000000000
    Total Energy =                       -305.6663982871806411
    Molecular point group: c1
  Basis Set: CC-PVTZ
  Basis Set:

  -Total Gradient:
     Atom            X                  Y                   Z
    ------   -----------------  -----------------  -----------------
       1       -0.000034532561     0.000034433446     0.000893014753
       2        0.000179927102    -0.000368879864    -0.001180812006
       3       -0.000179615916     0.000933232548     0.000585018689
       4       -0.000063463714    -0.000634152229    -0.000191592129
       5        0.000192474825     0.000004523119    -0.000046733593
       6       -0.000030868487    -0.000008034492     0.000018673505
       7        0.000091310592     0.000052543332    -0.000041760919
       8        0.000036098537    -0.000006883845    -0.000012658273
       9       -0.000167331423     0.000058684324    -0.000097276236
      10       -0.000040848161    -0.000009950393     0.000005628737
      11        0.000005503626    -0.000058632965     0.000134328208
      12        0.000017105931    -0.000001317383    -0.000016117560
      13       -0.000005760347     0.000004434402    -0.000049713175

  **** Optimization is complete! (in 5 steps) ****
    Final optimized geometry and variables:
    Molecular point group: c1

    Geometry (in Angstrom), charge = 0, multiplicity = 1:

    H            2.674672406785     0.670740941175     0.080673029446
    O            2.264212858617    -0.176004211123     0.089185398568
    C            0.903609871113    -0.050556143781     0.035222063825
    C            0.273446468243     0.186756471399    -1.171678082111
    C            0.160791446100    -0.219087136281     1.186801155467
    H            0.864242750255     0.293992283808    -2.060936816034
    C           -1.104885550252     0.271099743801    -1.219588635396
    H            0.667827855850    -0.418014875521     2.110770731510
    C           -1.218190727598    -0.138882154774     1.130120862809
    H           -1.592231653423     0.456634171859    -2.157790729370
    C           -1.855964237527     0.109433607588    -0.070317585771
    H           -1.793390393881    -0.271348054270     2.026579841968
    H           -2.926227038094     0.170929718175    -0.111647088389

  Mulliken Charges: (a.u.)
   Center  Symbol    Alpha    Beta     Spin     Total
       1     H     0.38801  0.38801  0.00000  0.22397
       2     O     4.19213  4.19213  0.00000 -0.38427
       3     C     2.87265  2.87265  0.00000  0.25469
       4     C     3.11312  3.11312  0.00000 -0.22623
       5     C     3.10775  3.10775  0.00000 -0.21551
       6     H     0.41835  0.41835  0.00000  0.16330
       7     C     3.06945  3.06945  0.00000 -0.13890
       8     H     0.41656  0.41656  0.00000  0.16689
       9     C     3.06866  3.06866  0.00000 -0.13732
      10     H     0.42170  0.42170  0.00000  0.15660
      11     C     3.08695  3.08695  0.00000 -0.17390
      12     H     0.42160  0.42160  0.00000  0.15680
      13     H     0.42306  0.42306  0.00000  0.15389

   Total alpha = 25.00000, Total beta = 25.00000, Total charge =  0.00000
