  ==> Input File <==

--------------------------------------------------------------------------
set {
	reference rhf
	basis 6-31G*
}

set_num_threads( 4 )
memory 2 gb

molecule MOL {
0 1

H	 -2.540805	 -2.582643	 -4.542849
O	 -2.942398	 -3.438840	 -4.569707
C	 -2.189168	 -4.339612	 -3.798146
C	 -2.333477	 -4.112421	 -2.297384
H	 -2.555277	 -5.325219	 -4.055474
H	 -1.138665	 -4.300349	 -4.083946
C	 -1.799298	 -2.760345	 -1.818415
H	 -3.384092	 -4.203718	 -2.034251
H	 -1.806356	 -4.912991	 -1.781054
C	 -1.908990	 -2.585073	 -0.301159
H	 -2.345625	 -1.963968	 -2.316086
H	 -0.755414	 -2.657705	 -2.115249
C	 -1.309753	 -1.282496	 0.241564
H	 -2.955329	 -2.649340	 -0.008087
H	 -1.407712	 -3.421701	 0.180998
C	 -2.037799	 -0.007733	 -0.193645
H	 -1.315037	 -1.330774	 1.328513
H	 -0.263186	 -1.218464	 -0.052435
C	 -3.489788	 0.042957	 0.286558
H	 -2.017067	 0.064384	 -1.280144
H	 -1.513726	 0.868678	 0.179924
C	 -4.216917	 1.317354	 -0.141063
H	 -4.025645	 -0.823308	 -0.095450
H	 -3.513059	 -0.038752	 1.371301
H	 -4.239342	 1.411634	 -1.223113
H	 -5.243387	 1.322503	 0.212445
H	 -3.726170	 2.201406	 0.256408

	symmetry c1
}
set optking {
	frozen_dihedral = ("
		10 13 16 20
	")
}

ee = optimize('scf')
oeprop('DIPOLE', 'QUADRUPOLE', 'MULLIKEN_CHARGES')
f=open( 'psi4out.xyz', 'w' )
f.write( "27  " )
f.write( str(ee) + "\n" )
f.write( MOL.save_string_xyz() )
f.close()
--------------------------------------------------------------------------

    Molecular point group: c1
  Charge       = 0
  Multiplicity = 1
  Basis Set: 6-31G*
  Basis Set:
  @DF-RHF Final Energy:  -388.27940723154768
    Total Energy =                       -388.2794072315473386
    Molecular point group: c1
  Basis Set: 6-31G*
  Basis Set:
  Basis Set: 6-31G*
  Basis Set:
  @DF-RHF Final Energy:  -388.27990192973147
    Total Energy =                       -388.2799019297316363
  Basis Set: 6-31G*
  Basis Set:
  Basis Set: 6-31G*
  Basis Set:
  @DF-RHF Final Energy:  -388.28020739563425
    Total Energy =                       -388.2802073956347613
  Basis Set: 6-31G*
  Basis Set:
  Basis Set: 6-31G*
  Basis Set:
  @DF-RHF Final Energy:  -388.28023164798020
    Total Energy =                       -388.2802316479798037
  Basis Set: 6-31G*
  Basis Set:
  Basis Set: 6-31G*
  Basis Set:
  @DF-RHF Final Energy:  -388.28023401321730
    Total Energy =                       -388.2802340132169547
  Basis Set: 6-31G*
  Basis Set:
  Basis Set: 6-31G*
  Basis Set:
  @DF-RHF Final Energy:  -388.28023780122453
    Total Energy =                       -388.2802378012244162
  Basis Set: 6-31G*
  Basis Set:
  Charge       = 0
  Multiplicity = 1
  Basis Set: 6-31G*
  Basis Set:

    Orbital Energies (a.u.)
    -----------------------

    Doubly Occupied:

       1A    -20.552538     2A    -11.267241     3A    -11.220019
       4A    -11.216795     5A    -11.215982     6A    -11.215549
       7A    -11.215436     8A    -11.214457     9A    -11.209192
      10A     -1.359283    11A     -1.095438    12A     -1.060175
      13A     -1.010222    14A     -0.949330    15A     -0.887791
      16A     -0.830158    17A     -0.803037    18A     -0.764933
      19A     -0.693841    20A     -0.651506    21A     -0.638582
      22A     -0.612814    23A     -0.600221    24A     -0.588816
      25A     -0.576365    26A     -0.565350    27A     -0.532752
      28A     -0.523158    29A     -0.511935    30A     -0.494053
      31A     -0.489100    32A     -0.479108    33A     -0.468225
      34A     -0.453165    35A     -0.446687    36A     -0.445178
      37A     -0.423573

  @DF-RHF Final Energy:  -388.28023856918605

   => Energetics <=

    Nuclear Repulsion Energy =            468.0395537730651085
    One-Electron Energy =               -1454.0755718022558085
    Two-Electron Energy =                 597.7557794600044190
    DFT Exchange-Correlation Energy =       0.0000000000000000
    Empirical Dispersion Energy =           0.0000000000000000
    PCM Polarization Energy =               0.0000000000000000
    EFP Energy =                            0.0000000000000000
    Total Energy =                       -388.2802385691862810
    Molecular point group: c1
  Basis Set: 6-31G*
  Basis Set:

  -Total Gradient:
     Atom            X                  Y                   Z
    ------   -----------------  -----------------  -----------------
       1        0.000001243249     0.000014561754     0.000010025754
       2        0.000011706970     0.000011463075     0.000009114419
       3       -0.000036589950    -0.000023255358     0.000006535998
       4        0.000020348726    -0.000007245367    -0.000010661134
       5       -0.000000723668    -0.000004689204    -0.000000640555
       6       -0.000002454543     0.000000931360     0.000007845457
       7       -0.000009481080     0.000020480440     0.000012887364
       8        0.000007144794    -0.000009028465    -0.000001784585
       9        0.000010007574    -0.000005416367    -0.000009629979
      10        0.000164430543     0.000024191925    -0.000219986175
      11       -0.000001278947     0.000017563174    -0.000034404381
      12        0.000003988886     0.000005887278     0.000016096854
      13       -0.000345356021    -0.000078153132     0.000317423668
      14       -0.000004260863     0.000008258523    -0.000002313412
      15       -0.000001548413     0.000004478315     0.000005494073
      16        0.000471247227     0.000237480731    -0.000054053167
      17        0.000001063047     0.000003466494     0.000003392097
      18       -0.000001722119     0.000017849723    -0.000008111455
      19       -0.000027216596    -0.000021286294     0.000021880467
      20       -0.000310458496    -0.000201759938    -0.000049393720
      21        0.000004950837    -0.000010068842    -0.000006327858
      22        0.000022388677    -0.000003613627    -0.000024484509
      23       -0.000004814400    -0.000001628814     0.000004142362
      24        0.000018419415    -0.000003067871     0.000001511592
      25        0.000001037514     0.000011365449    -0.000003905353
      26        0.000012943605    -0.000017639496    -0.000000790429
      27       -0.000005015967     0.000008874531     0.000010136614

  **** Optimization is complete! (in 7 steps) ****
    Final optimized geometry and variables:
    Molecular point group: c1

    Geometry (in Angstrom), charge = 0, multiplicity = 1:

    H           -0.160640359046    -0.683580275333    -3.060627537819
    O           -0.507936429766    -1.563272040030    -3.085131250667
    C            0.329569190364    -2.423183058466    -2.354879319368
    C            0.221039011441    -2.229417120414    -0.846463763895
    H            0.021607305357    -3.427091406053    -2.617525199583
    H            1.364786761340    -2.308788527420    -2.674174309456
    C            0.675035437489    -0.850266341859    -0.362009551394
    H           -0.811024799978    -2.398664954496    -0.550477325300
    H            0.820172382183    -2.998443986155    -0.361777093005
    C            0.596479377746    -0.702782027699     1.159905033964
    H            0.060991915016    -0.087214047391    -0.832770679669
    H            1.700057457076    -0.671178281031    -0.686919597434
    C            1.143213785175     0.623393365056     1.704793847708
    H           -0.432632880568    -0.843338442320     1.480394438346
    H            1.163251328152    -1.511594292043     1.616375560898
    C            0.417673721810     1.897750980962     1.253447825996
    H            1.125655173414     0.581620809107     2.791997193971
    H            2.191679965786     0.705898319117     1.424576100750
    C           -1.040189913052     1.999074605309     1.710263384277
    H            0.459711967093     1.989182347752     0.170548797940
    H            0.964705591014     2.752756919489     1.645528784321
    C           -1.683590751175     3.333486743503     1.333184854755
    H           -1.623631482270     1.190542244245     1.278288888913
    H           -1.088126600335     1.867688720510     2.789497382395
    H           -1.674060248492     3.483266708231     0.257085052564
    H           -2.716743644357     3.379406204232     1.663297269500
    H           -1.153777094388     4.166659550358     1.786299273412

  Mulliken Charges: (a.u.)
   Center  Symbol    Alpha    Beta     Spin     Total
       1     H     0.27990  0.27990  0.00000  0.44020
       2     O     4.37093  4.37093  0.00000 -0.74187
       3     C     2.99752  2.99752  0.00000  0.00497
       4     C     3.16067  3.16067  0.00000 -0.32133
       5     H     0.41440  0.41440  0.00000  0.17119
       6     H     0.43196  0.43196  0.00000  0.13607
       7     C     3.16311  3.16311  0.00000 -0.32623
       8     H     0.41521  0.41521  0.00000  0.16959
       9     H     0.42421  0.42421  0.00000  0.15158
      10     C     3.15419  3.15419  0.00000 -0.30838
      11     H     0.42358  0.42358  0.00000  0.15285
      12     H     0.42528  0.42528  0.00000  0.14944
      13     C     3.15465  3.15465  0.00000 -0.30930
      14     H     0.41963  0.41963  0.00000  0.16075
      15     H     0.42136  0.42136  0.00000  0.15729
      16     C     3.15365  3.15365  0.00000 -0.30729
      17     H     0.42144  0.42144  0.00000  0.15711
      18     H     0.42273  0.42273  0.00000  0.15455
      19     C     3.15360  3.15360  0.00000 -0.30720
      20     H     0.42436  0.42436  0.00000  0.15127
      21     H     0.42170  0.42170  0.00000  0.15661
      22     C     3.23890  3.23890  0.00000 -0.47781
      23     H     0.42085  0.42085  0.00000  0.15829
      24     H     0.42318  0.42318  0.00000  0.15364
      25     H     0.42229  0.42229  0.00000  0.15542
      26     H     0.41887  0.41887  0.00000  0.16225
      27     H     0.42183  0.42183  0.00000  0.15634

   Total alpha = 37.00000, Total beta = 37.00000, Total charge =  0.00000
