  ==> Input File <==

--------------------------------------------------------------------------
set {
	reference rhf
	basis cc-pvtz
}

set_num_threads( 4 )
memory 2 gb

molecule MOL {
0 1

H	 2.614283	 2.028610	 0.296620
O	 3.358864	 1.662087	 -0.142800
C	 3.565468	 0.338079	 0.273842
C	 2.533667	 -0.637565	 -0.272227
H	 4.548038	 0.064914	 -0.086598
H	 3.593945	 0.282242	 1.360360
C	 1.114816	 -0.402372	 0.240993
H	 2.544552	 -0.580764	 -1.356576
H	 2.850574	 -1.642962	 -0.005497
C	 0.113298	 -1.420414	 -0.302504
H	 0.796373	 0.598427	 -0.031033
H	 1.113377	 -0.446476	 1.328807
C	 -0.178269	 -2.599896	 0.627048
H	 -0.818137	 -0.912587	 -0.540763
H	 0.493463	 -1.810267	 -1.242694
C	 -0.915376	 -2.240520	 1.915949
H	 -0.773247	 -3.326025	 0.079998
H	 0.755116	 -3.100704	 0.874312
C	 -1.270566	 -3.461147	 2.761124
H	 -1.826416	 -1.699998	 1.668341
H	 -0.313206	 -1.563679	 2.514515
C	 -2.003286	 -3.105620	 4.050548
H	 -1.884522	 -4.138051	 2.173386
H	 -0.362270	 -4.006967	 3.002252
H	 -2.932966	 -2.586542	 3.842006
H	 -2.242451	 -3.993637	 4.624422
H	 -1.399448	 -2.459086	 4.678821

	symmetry c1
}
set optking {
	frozen_dihedral = ("
		14 10 7 4
	")
}

ee = optimize('scf')
oeprop('DIPOLE', 'QUADRUPOLE', 'MULLIKEN_CHARGES')
f=open( 'psi4out.xyz', 'w' )
f.write( "27  " )
f.write( str(ee) + "\n" )
f.write( MOL.save_string_xyz() )
f.close()
--------------------------------------------------------------------------

    Molecular point group: c1
  Charge       = 0
  Multiplicity = 1
  Basis Set: CC-PVTZ
  Basis Set:
  @DF-RHF Final Energy:  -388.42327772872363
    Total Energy =                       -388.4232777287237468
    Molecular point group: c1
  Basis Set: CC-PVTZ
  Basis Set:
  Basis Set: CC-PVTZ
  Basis Set:
  @DF-RHF Final Energy:  -388.42360354238787
    Total Energy =                       -388.4236035423875819
  Basis Set: CC-PVTZ
  Basis Set:
  Basis Set: CC-PVTZ
  Basis Set:
  @DF-RHF Final Energy:  -388.42385410125314
    Total Energy =                       -388.4238541012525729
  Basis Set: CC-PVTZ
  Basis Set:
  Basis Set: CC-PVTZ
  Basis Set:
  @DF-RHF Final Energy:  -388.42387278837055
    Total Energy =                       -388.4238727883705451
  Basis Set: CC-PVTZ
  Basis Set:
  Basis Set: CC-PVTZ
  Basis Set:
  @DF-RHF Final Energy:  -388.42387888064832
    Total Energy =                       -388.4238788806482034
  Basis Set: CC-PVTZ
  Basis Set:
  Charge       = 0
  Multiplicity = 1
  Basis Set: CC-PVTZ
  Basis Set:

    Orbital Energies (a.u.)
    -----------------------

    Doubly Occupied:

       1A    -20.545258     2A    -11.264909     3A    -11.216990
       4A    -11.214591     5A    -11.214305     6A    -11.213801
       7A    -11.213588     8A    -11.212242     9A    -11.207751
      10A     -1.363167    11A     -1.095839    12A     -1.062041
      13A     -1.011633    14A     -0.949791    15A     -0.888242
      16A     -0.825826    17A     -0.802298    18A     -0.774532
      19A     -0.696016    20A     -0.656827    21A     -0.631025
      22A     -0.617800    23A     -0.603057    24A     -0.585342
      25A     -0.580205    26A     -0.553062    27A     -0.544663
      28A     -0.528211    29A     -0.508361    30A     -0.504281
      31A     -0.482424    32A     -0.475808    33A     -0.464925
      34A     -0.457617    35A     -0.450903    36A     -0.443180
      37A     -0.427276

  @DF-RHF Final Energy:  -388.42387941716197

   => Energetics <=

    Nuclear Repulsion Energy =            461.1483269636536306
    One-Electron Energy =               -1440.5688412645054086
    Two-Electron Energy =                 590.9966348836899215
    DFT Exchange-Correlation Energy =       0.0000000000000000
    Empirical Dispersion Energy =           0.0000000000000000
    PCM Polarization Energy =               0.0000000000000000
    EFP Energy =                            0.0000000000000000
    Total Energy =                       -388.4238794171618565
    Molecular point group: c1
  Basis Set: CC-PVTZ
  Basis Set:

  -Total Gradient:
     Atom            X                  Y                   Z
    ------   -----------------  -----------------  -----------------
       1        0.000001429995     0.000011229020     0.000001620622
       2       -0.000022460616     0.000016949652     0.000004450462
       3        0.000008255829    -0.000009977791    -0.000013235670
       4       -0.000432488676     0.001296288468    -0.001629833309
       5       -0.000000377243    -0.000015230293     0.000000095933
       6       -0.000005313228    -0.000004529825    -0.000004603339
       7        0.000809633654    -0.001676839971     0.001575765904
       8        0.000000916243    -0.000010976805    -0.000000010941
       9        0.000009220084     0.000002822858     0.000010347407
      10       -0.001219768715    -0.000134910817     0.002802703774
      11        0.000007042569     0.000004736426     0.000008034984
      12       -0.000009576969    -0.000014051309     0.000006020034
      13       -0.000005906864    -0.000000648615    -0.000011443990
      14        0.000858122716     0.000526756917    -0.002750630972
      15       -0.000006458126     0.000005670401    -0.000016093726
      16       -0.000017046013    -0.000009450838    -0.000007908488
      17        0.000015977210    -0.000002055035     0.000001988244
      18        0.000002115119     0.000007836155     0.000006943579
      19       -0.000009717260    -0.000001176491     0.000012878332
      20        0.000001448567     0.000008340936     0.000012041341
      21        0.000008763078    -0.000004565568    -0.000002961077
      22       -0.000002777645    -0.000002802708    -0.000007351240
      23        0.000008147341    -0.000000040037    -0.000005354596
      24        0.000000298068     0.000006890094     0.000007636323
      25       -0.000000595420     0.000000166477     0.000000175433
      26        0.000000571413    -0.000000515228    -0.000000853436
      27        0.000000544898     0.000000083924    -0.000000421590

  **** Optimization is complete! (in 6 steps) ****
    Final optimized geometry and variables:
    Molecular point group: c1

    Geometry (in Angstrom), charge = 0, multiplicity = 1:

    H            1.954710331011     3.262528742802    -0.635320951920
    O            2.678411816391     2.909560924963    -1.118442602986
    C            2.867866353126     1.558116398281    -0.791560268957
    C            1.788620626776     0.642696081887    -1.349243169486
    H            3.826987937007     1.284698665736    -1.210313477378
    H            2.940695906533     1.435425779979     0.287376816643
    C            0.394149294345     0.893749683839    -0.775991219319
    H            1.759812795637     0.756716849999    -2.428273796843
    H            2.086453022615    -0.383933593394    -1.148244675221
    C           -0.658488800976    -0.105262555424    -1.289127292829
    H            0.085620717468     1.899278457735    -1.043198906259
    H            0.438396636068     0.867114511452     0.308923417349
    C           -0.913346965348    -1.302171151596    -0.370061860623
    H           -1.593651537037     0.409832612536    -1.485109767138
    H           -0.332489523217    -0.475273125127    -2.256553662821
    C           -1.733100988444    -0.976447462465     0.877003236886
    H           -1.434692894617    -2.070698849806    -0.933522799968
    H            0.037681812529    -1.739678861694    -0.074626513986
    C           -1.959920168412    -2.185478579801     1.780665208405
    H           -2.695733548932    -0.573071352306     0.571316215406
    H           -1.246291662943    -0.193643999063     1.451644787591
    C           -2.796992701994    -1.864163783284     3.014290313811
    H           -2.446112524550    -2.972875346820     1.211203144021
    H           -0.998872533196    -2.585568202468     2.092398295794
    H           -3.778391290079    -1.494680882800     2.735920028614
    H           -2.938336245496    -2.742753114635     3.633241918346
    H           -2.320125100955    -1.103820590682     3.624049724838

  Mulliken Charges: (a.u.)
   Center  Symbol    Alpha    Beta     Spin     Total
       1     H     0.39231  0.39231  0.00000  0.21539
       2     O     4.20558  4.20558  0.00000 -0.41117
       3     C     2.97986  2.97986  0.00000  0.04028
       4     C     3.08563  3.08563  0.00000 -0.17125
       5     H     0.44874  0.44874  0.00000  0.10251
       6     H     0.46990  0.46990  0.00000  0.06020
       7     C     3.11334  3.11334  0.00000 -0.22668
       8     H     0.44984  0.44984  0.00000  0.10033
       9     H     0.45619  0.45619  0.00000  0.08762
      10     C     3.11124  3.11124  0.00000 -0.22249
      11     H     0.44923  0.44923  0.00000  0.10154
      12     H     0.45127  0.45127  0.00000  0.09746
      13     C     3.09697  3.09697  0.00000 -0.19395
      14     H     0.44461  0.44461  0.00000  0.11079
      15     H     0.44745  0.44745  0.00000  0.10510
      16     C     3.08664  3.08664  0.00000 -0.17327
      17     H     0.44724  0.44724  0.00000  0.10552
      18     H     0.45374  0.45374  0.00000  0.09252
      19     C     3.08441  3.08441  0.00000 -0.16883
      20     H     0.45432  0.45432  0.00000  0.09136
      21     H     0.45445  0.45445  0.00000  0.09110
      22     C     3.14980  3.14980  0.00000 -0.29959
      23     H     0.45389  0.45389  0.00000  0.09222
      24     H     0.45462  0.45462  0.00000  0.09076
      25     H     0.45499  0.45499  0.00000  0.09001
      26     H     0.44817  0.44817  0.00000  0.10367
      27     H     0.45559  0.45559  0.00000  0.08882

   Total alpha = 37.00000, Total beta = 37.00000, Total charge = -0.00000
