  ==> Input File <==

--------------------------------------------------------------------------
set {
	reference rhf
	basis 6-31G*
}

set_num_threads( 4 )
memory 2 gb

molecule MOL {
0 1

O	 -2.821601	 1.309235	 -0.001213
C	 -2.668563	 0.129746	 -0.000350
C	 -3.801572	 -0.864014	 -0.000442
O	 -1.481751	 -0.454642	 0.000584
H	 -4.417280	 -0.689587	 -0.874708
H	 -3.443784	 -1.883046	 -0.000565
H	 -4.417179	 -0.689832	 0.873954
C	 -0.334255	 0.388708	 0.000906
C	 0.891947	 -0.504646	 0.000751
H	 -0.365390	 1.025305	 -0.873475
H	 -0.365484	 1.024911	 0.875569
C	 1.051021	 -1.264525	 1.318989
H	 1.771165	 0.105906	 -0.185371
H	 0.815748	 -1.205423	 -0.826029
C	 2.283014	 -2.171227	 1.339252
H	 1.115259	 -0.555220	 2.142303
H	 0.161747	 -1.865084	 1.502300
C	 2.442591	 -2.929151	 2.656429
H	 3.172622	 -1.572641	 1.156582
H	 2.219345	 -2.882178	 0.518542
H	 2.542822	 -2.244121	 3.493508
H	 3.323897	 -3.562615	 2.640341
H	 1.582568	 -3.563740	 2.850507

	symmetry c1
}
set optking {
	frozen_dihedral = ("
		13 9 8 10
	")
}

ee = optimize('scf')
oeprop('DIPOLE', 'QUADRUPOLE', 'MULLIKEN_CHARGES')
f=open( 'psi4out.xyz', 'w' )
f.write( "23  " )
f.write( str(ee) + "\n" )
f.write( MOL.save_string_xyz() )
f.close()
--------------------------------------------------------------------------

    Molecular point group: c1
  Charge       = 0
  Multiplicity = 1
  Basis Set: 6-31G*
  Basis Set:
  @DF-RHF Final Energy:  -422.97929766587913
    Total Energy =                       -422.9792976658791304
    Molecular point group: c1
  Basis Set: 6-31G*
  Basis Set:
  Basis Set: 6-31G*
  Basis Set:
  @DF-RHF Final Energy:  -422.97947374532339
    Total Energy =                       -422.9794737453236166
  Basis Set: 6-31G*
  Basis Set:
  Basis Set: 6-31G*
  Basis Set:
  @DF-RHF Final Energy:  -422.97948249597806
    Total Energy =                       -422.9794824959781181
  Basis Set: 6-31G*
  Basis Set:
  Basis Set: 6-31G*
  Basis Set:
  @DF-RHF Final Energy:  -422.97948719929661
    Total Energy =                       -422.9794871992965000
  Basis Set: 6-31G*
  Basis Set:
  Basis Set: 6-31G*
  Basis Set:
  @DF-RHF Final Energy:  -422.97949407076106
    Total Energy =                       -422.9794940707605519
  Basis Set: 6-31G*
  Basis Set:
  Basis Set: 6-31G*
  Basis Set:
  @DF-RHF Final Energy:  -422.97949797275754
    Total Energy =                       -422.9794979727571445
  Basis Set: 6-31G*
  Basis Set:
  Basis Set: 6-31G*
  Basis Set:
  @DF-RHF Final Energy:  -422.97949946740044
    Total Energy =                       -422.9794994674000463
  Basis Set: 6-31G*
  Basis Set:
  Charge       = 0
  Multiplicity = 1
  Basis Set: 6-31G*
  Basis Set:

    Orbital Energies (a.u.)
    -----------------------

    Doubly Occupied:

       1A    -20.603795     2A    -20.541168     3A    -11.374766
       4A    -11.282124     5A    -11.233036     6A    -11.225224
       7A    -11.219460     8A    -11.218450     9A    -11.211476
      10A     -1.468564    11A     -1.361401    12A     -1.091869
      13A     -1.041506    14A     -1.002967    15A     -0.930822
      16A     -0.842707    17A     -0.801307    18A     -0.776816
      19A     -0.688399    20A     -0.682960    21A     -0.666814
      22A     -0.643399    23A     -0.607572    24A     -0.584970
      25A     -0.578453    26A     -0.572583    27A     -0.559174
      28A     -0.532578    29A     -0.529025    30A     -0.508515
      31A     -0.494996    32A     -0.473903    33A     -0.468811
      34A     -0.460602    35A     -0.446706    36A     -0.437583

  @DF-RHF Final Energy:  -422.97949957241423

   => Energetics <=

    Nuclear Repulsion Energy =            457.9429609184581409
    One-Electron Energy =               -1483.5159140876533002
    Two-Electron Energy =                 602.5934535967810461
    DFT Exchange-Correlation Energy =       0.0000000000000000
    Empirical Dispersion Energy =           0.0000000000000000
    PCM Polarization Energy =               0.0000000000000000
    EFP Energy =                            0.0000000000000000
    Total Energy =                       -422.9794995724141700
    Molecular point group: c1
  Basis Set: 6-31G*
  Basis Set:

  -Total Gradient:
     Atom            X                  Y                   Z
    ------   -----------------  -----------------  -----------------
       1        0.000005066795    -0.000002413150    -0.000000858349
       2       -0.000002622156     0.000000618615     0.000017596748
       3       -0.000000001619    -0.000001001894     0.000011208101
       4        0.000000360424    -0.000001814109    -0.000018619861
       5        0.000003455565    -0.000001649701    -0.000004311199
       6       -0.000000747666    -0.000000535206    -0.000000825180
       7       -0.000003177397     0.000001603665    -0.000004614453
       8       -0.000704276452    -0.000990694578    -0.000902831036
       9        0.000260154571     0.000403496211     0.001395763954
      10        0.000547551463     0.000761515161     0.000533071867
      11       -0.000000486569     0.000006647295     0.000003235829
      12       -0.000004365546    -0.000014419721     0.000002276221
      13       -0.000099445068    -0.000162604844    -0.001027027817
      14       -0.000001177054    -0.000000182003     0.000001291804
      15       -0.000004938828    -0.000006540220    -0.000002632070
      16        0.000000007305    -0.000001079625     0.000003023961
      17        0.000001567776    -0.000000100834    -0.000007974823
      18        0.000004934929     0.000011016830     0.000004825626
      19        0.000000071619    -0.000000734862    -0.000005056195
      20       -0.000004046639    -0.000003902305     0.000001529937
      21       -0.000001600721    -0.000001138326     0.000004179717
      22        0.000002238651     0.000003511727     0.000000663120
      23        0.000001476617     0.000000401873    -0.000003915903

  **** Optimization is complete! (in 8 steps) ****
    Final optimized geometry and variables:
    Molecular point group: c1

    Geometry (in Angstrom), charge = 0, multiplicity = 1:

    O           -2.309571829962     2.024300261360    -0.608716024641
    C           -2.166306825333     0.843689024436    -0.604057228245
    C           -3.307668831738    -0.140472617646    -0.602635381300
    O           -0.984154931639     0.249576015336    -0.600487056123
    H           -3.922131974932     0.038099613226    -1.476906914666
    H           -2.958793177796    -1.162618002184    -0.601613192365
    H           -3.921481845284     0.040001232125     0.271749903586
    C            0.171035328612     1.083499114432    -0.599578770722
    C            1.397083375000     0.189803161545    -0.567006156736
    H            0.157924737041     1.705696334971    -1.484279875919
    H            0.130828854803     1.737003558711     0.262117027288
    C            1.570663272286    -0.577440767713     0.744402942809
    H            2.266917850861     0.817215958902    -0.749526319098
    H            1.339871069557    -0.506486043437    -1.399586011977
    C            2.813787312473    -1.468624425969     0.753045754218
    H            1.630866653286     0.131227287666     1.569001242750
    H            0.688455100265    -1.185366897973     0.923810735515
    C            2.990505059142    -2.230626734294     2.065825543006
    H            3.696387753739    -0.859887130277     0.567685638728
    H            2.753744434145    -2.177416985969    -0.070048494805
    H            3.088050164313    -1.548165002855     2.905373957767
    H            3.878681259011    -2.854283233887     2.041886373077
    H            2.138549232287    -2.875318538022     2.262179441765

  Mulliken Charges: (a.u.)
   Center  Symbol    Alpha    Beta     Spin     Total
       1     O     4.28369  4.28369  0.00000 -0.56739
       2     C     2.61459  2.61459  0.00000  0.77083
       3     C     3.28770  3.28770  0.00000 -0.57540
       4     O     4.31002  4.31002  0.00000 -0.62003
       5     H     0.39729  0.39729  0.00000  0.20542
       6     H     0.40024  0.40024  0.00000  0.19953
       7     H     0.39736  0.39736  0.00000  0.20528
       8     C     3.00391  3.00391  0.00000 -0.00781
       9     C     3.16630  3.16630  0.00000 -0.33259
      10     H     0.40801  0.40801  0.00000  0.18398
      11     H     0.41014  0.41014  0.00000  0.17971
      12     C     3.15444  3.15444  0.00000 -0.30888
      13     H     0.41783  0.41783  0.00000  0.16435
      14     H     0.41385  0.41385  0.00000  0.17230
      15     C     3.15235  3.15235  0.00000 -0.30470
      16     H     0.42359  0.42359  0.00000  0.15283
      17     H     0.41334  0.41334  0.00000  0.17332
      18     C     3.23937  3.23937  0.00000 -0.47874
      19     H     0.42307  0.42307  0.00000  0.15385
      20     H     0.42191  0.42191  0.00000  0.15618
      21     H     0.42125  0.42125  0.00000  0.15750
      22     H     0.41866  0.41866  0.00000  0.16268
      23     H     0.42110  0.42110  0.00000  0.15780

   Total alpha = 36.00000, Total beta = 36.00000, Total charge = -0.00000
