                              Psi4 1.0.54 Driver

  ==> Input File <==

--------------------------------------------------------------------------
set {
	reference rhf
	basis cc-pvtz
}

set_num_threads( 4 )
memory 2 gb

molecule MOL {
0 1

H	 3.460096	 0.985663	 -1.163571
N	 2.690330	 0.350780	 -1.165026
C	 1.860978	 0.530248	 0.016256
H	 3.070031	 -0.572344	 -1.196919
C	 0.644130	 -0.381765	 -0.031064
H	 1.532582	 1.564003	 0.036579
H	 2.403907	 0.356118	 0.946236
C	 -0.678115	 0.376691	 0.025731
H	 0.693998	 -0.977147	 -0.936845
H	 0.693309	 -1.082142	 0.800523
C	 -1.900706	 -0.535531	 -0.022488
H	 -0.725296	 1.079516	 -0.802982
H	 -0.715474	 0.974884	 0.933278
C	 -3.220513	 0.226854	 0.028039
H	 -1.865036	 -1.134397	 -0.928236
H	 -1.857948	 -1.236381	 0.806820
H	 -3.309098	 0.911849	 -0.808725
H	 -4.066838	 -0.449485	 -0.008086
H	 -3.301685	 0.809374	 0.939860

	symmetry c1
}
set optking {
	frozen_dihedral = ("
		6 3 5 9
	")
}

ee,wfn = optimize('scf', return_wfn=True)
oeprop( wfn, 'DIPOLE', 'QUADRUPOLE', 'MULLIKEN_CHARGES')
f=open( 'psi4out.xyz', 'w' )
f.write( "19  " )
f.write( str(ee) + "\n" )
f.write( MOL.save_string_xyz() )
f.close()
--------------------------------------------------------------------------

    Molecular point group: c1
  Charge       = 0
  Multiplicity = 1
  Basis Set: CC-PVTZ
  Basis Set:
  @DF-RHF Final Energy:  -251.44205916064539
    Total Energy =                       -251.4420591606454991
    Molecular point group: c1
  Basis Set: CC-PVTZ
  Basis Set:
  Basis Set: CC-PVTZ
  Basis Set:
  @DF-RHF Final Energy:  -251.44233338649641
    Total Energy =                       -251.4423333864966708
  Basis Set: CC-PVTZ
  Basis Set:
  Basis Set: CC-PVTZ
  Basis Set:
  @DF-RHF Final Energy:  -251.44241797567372
    Total Energy =                       -251.4424179756737772
  Basis Set: CC-PVTZ
  Basis Set:
  Charge       = 0
  Multiplicity = 1
  Basis Set: CC-PVTZ
  Basis Set:

    Orbital Energies (a.u.)
    -----------------------

    Doubly Occupied:

       1A    -15.527031     2A    -11.238006     3A    -11.210216
       4A    -11.208778     5A    -11.207455     6A    -11.204182
       7A     -1.177233     8A     -1.072230     9A     -0.996874
      10A     -0.899944    11A     -0.814202    12A     -0.788855
      13A     -0.657655    14A     -0.649798    15A     -0.614246
      16A     -0.591712    17A     -0.552597    18A     -0.550419
      19A     -0.539773    20A     -0.488959    21A     -0.484093
      22A     -0.461993    23A     -0.459089    24A     -0.453341
      25A     -0.381538

  @DF-RHF Final Energy:  -251.44241876290440

   => Energetics <=

    Nuclear Repulsion Energy =            246.4768369326702384
    One-Electron Energy =                -827.3780674271702082
    Two-Electron Energy =                 329.4588117315955742
    DFT Exchange-Correlation Energy =       0.0000000000000000
    Empirical Dispersion Energy =           0.0000000000000000
    PCM Polarization Energy =               0.0000000000000000
    EFP Energy =                            0.0000000000000000
    Total Energy =                       -251.4424187629043672
    Molecular point group: c1
  Basis Set: CC-PVTZ
  Basis Set:

  -Total Gradient:
     Atom            X                  Y                   Z
    ------   -----------------  -----------------  -----------------
       1        0.000012843529     0.000006479321    -0.000016132486
       2       -0.000011729591     0.000049735734     0.000064790429
       3        0.000088806869    -0.000140721493    -0.000457359601
       4       -0.000031195755     0.000017800930     0.000028196234
       5       -0.000247869420     0.000327722294    -0.000106003719
       6        0.000010329108    -0.000006554994     0.000287971530
       7        0.000007067023     0.000015428267     0.000023857071
       8        0.000035609347    -0.000035935921     0.000033867539
       9        0.000171514783    -0.000238327794     0.000140293485
      10       -0.000000167526    -0.000001178042    -0.000003170794
      11       -0.000007473346     0.000009375658    -0.000003205683
      12        0.000008255001    -0.000001613991     0.000010838814
      13       -0.000007357280     0.000007776166     0.000007841211
      14       -0.000011257157    -0.000012368433    -0.000006358284
      15       -0.000001764907    -0.000004266703     0.000001922929
      16       -0.000002078446     0.000005955326    -0.000005775824
      17       -0.000000600218    -0.000001844067     0.000003547129
      18       -0.000016476299     0.000006417888    -0.000000784718
      19        0.000003544277    -0.000003880144    -0.000004335260

  **** Optimization is complete! (in 4 steps) ****
    Final optimized geometry and variables:
    Molecular point group: c1

    Geometry (in Angstrom), charge = 0, multiplicity = 1:

    H            3.545932162661     0.913708604116    -0.922030517955
    N            2.773813768591     0.281121095990    -0.941925561504
    C            1.937392306275     0.444017940932     0.239730595809
    H            3.153515849483    -0.641884513027    -0.982420954667
    C            0.708583131511    -0.480288916504     0.188716206501
    H            1.613708066855     1.477899352506     0.265182046578
    H            2.485697393184     0.272664751102     1.165103219421
    C           -0.621583229816     0.267810755010     0.220713075639
    H            0.760583580591    -1.070273022126    -0.719977581728
    H            0.739798764831    -1.183716857360     1.015389076023
    C           -1.836855344714    -0.652285225938     0.161905745598
    H           -0.654887936106     0.963210505822    -0.614153495249
    H           -0.673515229224     0.872001611186     1.124007263830
    C           -3.162171601761     0.101920737254     0.189297914919
    H           -1.784802489358    -1.256039560698    -0.739982679612
    H           -1.801585417633    -1.348113076350     0.996004347530
    H           -3.242730816789     0.781459894415    -0.652592088586
    H           -4.003870104644    -0.579819645694     0.145236257989
    H           -3.259717675842     0.689098173722     1.096521510713

  Mulliken Charges: (a.u.)
   Center  Symbol    Alpha    Beta     Spin     Total
       1     H     0.42995  0.42995  0.00000  0.14010
       2     N     3.68762  3.68762  0.00000 -0.37523
       3     C     3.03377  3.03377  0.00000 -0.06754
       4     H     0.43084  0.43084  0.00000  0.13832
       5     C     3.08609  3.08609  0.00000 -0.17219
       6     H     0.45879  0.45879  0.00000  0.08243
       7     H     0.46365  0.46365  0.00000  0.07270
       8     C     3.08996  3.08996  0.00000 -0.17991
       9     H     0.45441  0.45441  0.00000  0.09117
      10     H     0.45370  0.45370  0.00000  0.09261
      11     C     3.08523  3.08523  0.00000 -0.17045
      12     H     0.45093  0.45093  0.00000  0.09813
      13     H     0.45581  0.45581  0.00000  0.08838
      14     C     3.15003  3.15003  0.00000 -0.30006
      15     H     0.45391  0.45391  0.00000  0.09217
      16     H     0.45575  0.45575  0.00000  0.08851
      17     H     0.45475  0.45475  0.00000  0.09050
      18     H     0.44898  0.44898  0.00000  0.10203
      19     H     0.45583  0.45583  0.00000  0.08834

   Total alpha = 25.00000, Total beta = 25.00000, Total charge =  0.00000

*** Psi4 exiting successfully. Buy a developer a beer!
