                              Psi4 1.0.54 Driver

  ==> Input File <==

--------------------------------------------------------------------------
set {
	reference rhf
	basis cc-pvtz
}

set_num_threads( 4 )
memory 2 gb

molecule MOL {
0 1

H	 -1.752232	 -2.214755	 -0.011938
C	 -1.343852	 -1.221619	 -0.018179
N	 -0.058800	 -1.097635	 -0.261688
C	 -2.148159	 -0.124236	 0.219734
C	 0.449026	 0.119242	 -0.273393
H	 -3.196988	 -0.237571	 0.417076
N	 -1.655094	 1.094230	 0.209506
C	 -0.370318	 1.215445	 -0.035100
C	 1.924033	 0.265863	 -0.538106
H	 0.033214	 2.210441	 -0.046812
C	 2.228208	 0.634675	 -1.991001
H	 2.309634	 1.037619	 0.117232
H	 2.429062	 -0.657347	 -0.279567
H	 3.294327	 0.764556	 -2.134028
H	 1.733509	 1.558418	 -2.261094
H	 1.890183	 -0.140586	 -2.669423

	symmetry c1
}
set optking {
	frozen_dihedral = ("
		12 9 5 3
	")
}

ee,wfn = optimize('scf', return_wfn=True)
oeprop( wfn, 'DIPOLE', 'QUADRUPOLE', 'MULLIKEN_CHARGES')
f=open( 'psi4out.xyz', 'w' )
f.write( "16  " )
f.write( str(ee) + "\n" )
f.write( MOL.save_string_xyz() )
f.close()
--------------------------------------------------------------------------

    Molecular point group: c1
  Charge       = 0
  Multiplicity = 1
  Basis Set: CC-PVTZ
  Basis Set:
  @DF-RHF Final Energy:  -340.87152570910780
    Total Energy =                       -340.8715257091076865
    Molecular point group: c1
  Basis Set: CC-PVTZ
  Basis Set:
  Basis Set: CC-PVTZ
  Basis Set:
  @DF-RHF Final Energy:  -340.87109329655800
    Total Energy =                       -340.8710932965578309
  Basis Set: CC-PVTZ
  Basis Set:
  Basis Set: CC-PVTZ
  Basis Set:
  @DF-RHF Final Energy:  -340.87178261485735
    Total Energy =                       -340.8717826148574090
  Basis Set: CC-PVTZ
  Basis Set:
  Basis Set: CC-PVTZ
  Basis Set:
  @DF-RHF Final Energy:  -340.87179565821316
    Total Energy =                       -340.8717956582136139
  Basis Set: CC-PVTZ
  Basis Set:
  Basis Set: CC-PVTZ
  Basis Set:
  @DF-RHF Final Energy:  -340.87181116526494
    Total Energy =                       -340.8718111652649441
  Basis Set: CC-PVTZ
  Basis Set:
  Basis Set: CC-PVTZ
  Basis Set:
  @DF-RHF Final Energy:  -340.87181451222506
    Total Energy =                       -340.8718145122250007
  Basis Set: CC-PVTZ
  Basis Set:
  Charge       = 0
  Multiplicity = 1
  Basis Set: CC-PVTZ
  Basis Set:

    Orbital Energies (a.u.)
    -----------------------

    Doubly Occupied:

       1A    -15.580609     2A    -15.575981     3A    -11.278655
       4A    -11.271383     5A    -11.269181     6A    -11.267197
       7A    -11.231345     8A    -11.220172     9A     -1.315834
      10A     -1.223902    11A     -1.086685    12A     -1.016150
      13A     -0.905502    14A     -0.896969    15A     -0.830987
      16A     -0.718164    17A     -0.713591    18A     -0.659113
      19A     -0.611669    20A     -0.606521    21A     -0.586228
      22A     -0.564249    23A     -0.524790    24A     -0.509542
      25A     -0.504119    26A     -0.486135    27A     -0.433759
      28A     -0.397788    29A     -0.346561

  @DF-RHF Final Energy:  -340.87181542981909

   => Energetics <=

    Nuclear Repulsion Energy =            350.4109417857587232
    One-Electron Energy =               -1155.2999447938873345
    Two-Electron Energy =                 464.0171875783096880
    DFT Exchange-Correlation Energy =       0.0000000000000000
    Empirical Dispersion Energy =           0.0000000000000000
    PCM Polarization Energy =               0.0000000000000000
    EFP Energy =                            0.0000000000000000
    Total Energy =                       -340.8718154298189233
    Molecular point group: c1
  Basis Set: CC-PVTZ
  Basis Set:

  -Total Gradient:
     Atom            X                  Y                   Z
    ------   -----------------  -----------------  -----------------
       1       -0.000027505365    -0.000014844975    -0.000063538845
       2       -0.000011531490    -0.000045016183     0.000155619545
       3        0.000228080543    -0.000175868709     0.000883181296
       4       -0.000007429371    -0.000017681361     0.000007684811
       5       -0.000233264352    -0.000038074990    -0.001253349939
       6       -0.000029386120     0.000003983324    -0.000007818541
       7        0.000023697766     0.000043180212    -0.000017499266
       8       -0.000028502487     0.000041484011    -0.000024937754
       9       -0.000124261923     0.000952663860    -0.000440529296
      10        0.000019121307     0.000015980049     0.000050894313
      11       -0.000007359354     0.000005532128    -0.000088921820
      12        0.000234543420    -0.000740427208     0.000709950850
      13       -0.000022711502    -0.000024709782     0.000008884821
      14       -0.000130217020     0.000004594869     0.000008708373
      15        0.000059229199    -0.000113142785    -0.000002153298
      16        0.000057496753     0.000102347541     0.000073824751

  **** Optimization is complete! (in 7 steps) ****
    Final optimized geometry and variables:
    Molecular point group: c1

    Geometry (in Angstrom), charge = 0, multiplicity = 1:

    H           -1.820199576479    -2.229376240190     0.290921698188
    C           -1.345479051535    -1.266918144977     0.321185037333
    N           -0.056922246795    -1.219849005857     0.047072298865
    C           -2.061949260651    -0.134439693859     0.637697338548
    C            0.532413171425    -0.044868113608     0.081723675278
    H           -3.110470129659    -0.183869942304     0.860269608543
    N           -1.481853662245     1.048834927118     0.682693910865
    C           -0.202008992183     1.092778229757     0.409632215259
    C            2.000354097977     0.030797221535    -0.247290466805
    H            0.275420328352     2.054281934854     0.452154982670
    C            2.263139348746     0.435301965291    -1.699469115041
    H            2.485028296703     0.731321506626     0.424136687461
    H            2.429417665148    -0.943548485248    -0.057847296667
    H            3.327432415384     0.461315916516    -1.899440199076
    H            1.858027766707     1.416990337628    -1.915983580927
    H            1.808547840884    -0.272307201552    -2.381844991568

  Mulliken Charges: (a.u.)
   Center  Symbol    Alpha    Beta     Spin     Total
       1     H     0.41361  0.41361  0.00000  0.17277
       2     C     3.04298  3.04298  0.00000 -0.08595
       3     N     3.59587  3.59587  0.00000 -0.19173
       4     C     3.04801  3.04801  0.00000 -0.09601
       5     C     2.93804  2.93804  0.00000  0.12392
       6     H     0.41351  0.41351  0.00000  0.17298
       7     N     3.58695  3.58695  0.00000 -0.17390
       8     C     3.07873  3.07873  0.00000 -0.15746
       9     C     3.08587  3.08587  0.00000 -0.17173
      10     H     0.41473  0.41473  0.00000  0.17054
      11     C     3.14412  3.14412  0.00000 -0.28824
      12     H     0.44690  0.44690  0.00000  0.10620
      13     H     0.44149  0.44149  0.00000  0.11701
      14     H     0.44805  0.44805  0.00000  0.10390
      15     H     0.45334  0.45334  0.00000  0.09332
      16     H     0.44781  0.44781  0.00000  0.10439

   Total alpha = 29.00000, Total beta = 29.00000, Total charge = -0.00000

*** Psi4 exiting successfully. Buy a developer a beer!
