  ==> Input File <==

--------------------------------------------------------------------------
set {
	reference rhf
	basis 6-31G*
}

set_num_threads( 4 )
memory 2 gb

molecule MOL {
0 1

H	 -3.146357	 1.763097	 -0.414541
C	 -2.414906	 1.161333	 0.088967
C	 -2.076860	 -0.007332	 -0.404944
H	 -1.975236	 1.537442	 0.993480
O	 -1.180634	 -0.819263	 0.215062
H	 -2.500038	 -0.398831	 -1.313153
C	 0.051604	 -1.018856	 -0.387932
C	 1.043764	 0.054862	 -0.001873
H	 -0.017620	 -1.041351	 -1.469781
H	 0.437898	 -1.966374	 -0.042284
F	 2.212596	 -0.199467	 -0.571921
F	 0.652529	 1.252447	 -0.405055
F	 1.230877	 0.110694	 1.300533

	symmetry c1
}
set optking {
	frozen_dihedral = ("
		6 3 5 7
	")
}

ee = optimize('scf')
oeprop('DIPOLE', 'QUADRUPOLE', 'MULLIKEN_CHARGES')
f=open( 'psi4out.xyz', 'w' )
f.write( "13  " )
f.write( str(ee) + "\n" )
f.write( MOL.save_string_xyz() )
f.close()
--------------------------------------------------------------------------

    Molecular point group: c1
  Charge       = 0
  Multiplicity = 1
  Basis Set: 6-31G*
  Basis Set:
  @DF-RHF Final Energy:  -527.53209474431901
    Total Energy =                       -527.5320947443188970
    Molecular point group: c1
  Basis Set: 6-31G*
  Basis Set:
  Basis Set: 6-31G*
  Basis Set:
  @DF-RHF Final Energy:  -527.53262814836216
    Total Energy =                       -527.5326281483621642
  Basis Set: 6-31G*
  Basis Set:
  Basis Set: 6-31G*
  Basis Set:
  @DF-RHF Final Energy:  -527.53279316817930
    Total Energy =                       -527.5327931681790687
  Basis Set: 6-31G*
  Basis Set:
  Basis Set: 6-31G*
  Basis Set:
  @DF-RHF Final Energy:  -527.53287855537337
    Total Energy =                       -527.5328785553733724
  Basis Set: 6-31G*
  Basis Set:
  Basis Set: 6-31G*
  Basis Set:
  @DF-RHF Final Energy:  -527.53291340081171
    Total Energy =                       -527.5329134008118217
  Basis Set: 6-31G*
  Basis Set:
  Basis Set: 6-31G*
  Basis Set:
  @DF-RHF Final Energy:  -527.53291913977091
    Total Energy =                       -527.5329191397706836
  Basis Set: 6-31G*
  Basis Set:
  Basis Set: 6-31G*
  Basis Set:
  @DF-RHF Final Energy:  -527.53292034993206
    Total Energy =                       -527.5329203499322830
  Basis Set: 6-31G*
  Basis Set:
  Charge       = 0
  Multiplicity = 1
  Basis Set: 6-31G*
  Basis Set:

    Orbital Energies (a.u.)
    -----------------------

    Doubly Occupied:

       1A    -26.340079     2A    -26.338183     3A    -26.336610
       4A    -20.599728     5A    -11.498915     6A    -11.314305
       7A    -11.295204     8A    -11.226229     9A     -1.737271
      10A     -1.635052    11A     -1.633733    12A     -1.428040
      13A     -1.079039    14A     -1.017935    15A     -0.922075
      16A     -0.832882    17A     -0.826591    18A     -0.811430
      19A     -0.789068    20A     -0.711885    21A     -0.710080
      22A     -0.687460    23A     -0.670518    24A     -0.663699
      25A     -0.650422    26A     -0.644094    27A     -0.638597
      28A     -0.584132    29A     -0.565954    30A     -0.527343
      31A     -0.472365    32A     -0.371171

  @DF-RHF Final Energy:  -527.53292078178015

   => Energetics <=

    Nuclear Repulsion Energy =            416.5605182890797096
    One-Electron Energy =               -1557.0667032704579924
    Two-Electron Energy =                 612.9732641995980202
    DFT Exchange-Correlation Energy =       0.0000000000000000
    Empirical Dispersion Energy =           0.0000000000000000
    PCM Polarization Energy =               0.0000000000000000
    EFP Energy =                            0.0000000000000000
    Total Energy =                       -527.5329207817802626
    Molecular point group: c1
  Basis Set: 6-31G*
  Basis Set:

  -Total Gradient:
     Atom            X                  Y                   Z
    ------   -----------------  -----------------  -----------------
       1        0.000015156879    -0.000006309997     0.000005274634
       2       -0.000073014640    -0.000020702723    -0.000001843825
       3        0.003064437695     0.002202129567    -0.001658277188
       4        0.000010421594     0.000008110078     0.000011987709
       5       -0.001828569783    -0.002916634045    -0.000855147578
       6       -0.001971489094    -0.001042447808     0.001573037837
       7        0.000741082710     0.001788005224     0.000934825486
       8        0.000040245863    -0.000048379611     0.000074771225
       9        0.000009694825    -0.000004379765    -0.000009488061
      10        0.000011343352     0.000000427270     0.000000533807
      11       -0.000000083965    -0.000004093953    -0.000017127847
      12       -0.000000187012     0.000036259177    -0.000016313110
      13       -0.000019038414     0.000008016588    -0.000042233093

  **** Optimization is complete! (in 8 steps) ****
    Final optimized geometry and variables:
    Molecular point group: c1

    Geometry (in Angstrom), charge = 0, multiplicity = 1:

    H           -3.395914739136     1.623470945220    -0.448284499376
    C           -2.609159601429     1.093459124728     0.054160316995
    C           -2.207672367274    -0.071839262973    -0.394929001592
    H           -2.171556439605     1.538169328109     0.928208602159
    O           -1.276206249018    -0.834850167966     0.253452297653
    H           -2.649428289895    -0.550818693765    -1.253184709117
    C           -0.069326847797    -1.058370788899    -0.401010656904
    C            0.979719548370    -0.048760035750     0.006349860439
    H           -0.170981428379    -1.023930254187    -1.479747347350
    H            0.292719711724    -2.034813864199    -0.112325799278
    F            2.127989734815    -0.350337363620    -0.584874720973
    F            0.659858147442     1.182687197585    -0.347441067019
    F            1.183464148505    -0.051709688388     1.308928937673

  Mulliken Charges: (a.u.)
   Center  Symbol    Alpha    Beta     Spin     Total
       1     H     0.40606  0.40606  0.00000  0.18788
       2     C     3.21006  3.21006  0.00000 -0.42013
       3     C     2.91837  2.91837  0.00000  0.16325
       4     H     0.39882  0.39882  0.00000  0.20236
       5     O     4.30625  4.30625  0.00000 -0.61251
       6     H     0.40819  0.40819  0.00000  0.18361
       7     C     3.05550  3.05550  0.00000 -0.11100
       8     C     2.45655  2.45655  0.00000  1.08690
       9     H     0.40715  0.40715  0.00000  0.18570
      10     H     0.39483  0.39483  0.00000  0.21034
      11     F     4.68401  4.68401  0.00000 -0.36802
      12     F     4.67766  4.67766  0.00000 -0.35531
      13     F     4.67654  4.67654  0.00000 -0.35308

   Total alpha = 32.00000, Total beta = 32.00000, Total charge =  0.00000
