  ==> Input File <==

--------------------------------------------------------------------------
set {
	reference rhf
	basis 6-31G*
}

set_num_threads( 1 )
memory 2 gb

molecule MOL {
0 1

H	 -4.031818	 -0.453427	 -0.000094
C	 -2.967712	 -0.297022	 -0.000064
C	 -2.458620	 0.992929	 0.000032
C	 -2.109895	 -1.385637	 -0.000122
H	 -3.124998	 1.836319	 0.000077
C	 -1.090278	 1.193236	 0.000070
H	 -2.506361	 -2.384847	 -0.000198
C	 -0.739812	 -1.187531	 -0.000085
H	 -0.678594	 2.184290	 0.000146
C	 -0.226438	 0.104061	 0.000012
H	 -0.072310	 -2.027032	 -0.000131
C	 1.239129	 0.373821	 0.000060
O	 1.711393	 0.675999	 -1.200048
O	 1.924721	 0.325523	 0.972938
C	 3.098578	 0.947942	 -1.291903
H	 3.359663	 1.795196	 -0.674820
H	 3.286462	 1.168554	 -2.331077
H	 3.674068	 0.088543	 -0.980192

	symmetry c1
}
set optking {
	frozen_dihedral = ("
		12 13 15 16,
		10 12 13 15
	")
}

ee = energy('scf')
oeprop('DIPOLE', 'QUADRUPOLE', 'MULLIKEN_CHARGES')
f=open( 'psi4out.xyz', 'w' )
f.write( "18  " )
f.write( str(ee) + "\n" )
f.write( MOL.save_string_xyz() )
f.close()
--------------------------------------------------------------------------

    Molecular point group: c1

    Geometry (in Angstrom), charge = 0, multiplicity = 1:

       Center              X                  Y                   Z               Mass
    ------------   -----------------  -----------------  -----------------  -----------------
           H         -3.995097849407    -0.652950944480     0.170091030759     1.007825032070
           C         -2.930991849407    -0.496545944480     0.170121030759    12.000000000000
           C         -2.421899849407     0.793405055520     0.170217030759    12.000000000000
           C         -2.073174849407    -1.585160944480     0.170063030759    12.000000000000
           H         -3.088277849407     1.636795055520     0.170262030759     1.007825032070
           C         -1.053557849407     0.993712055520     0.170255030759    12.000000000000
           H         -2.469640849407    -2.584370944480     0.169987030759     1.007825032070
           C         -0.703091849407    -1.387054944480     0.170100030759    12.000000000000
           H         -0.641873849407     1.984766055520     0.170331030759     1.007825032070
           C         -0.189717849407    -0.095462944480     0.170197030759    12.000000000000
           H         -0.035589849407    -2.226555944480     0.170054030759     1.007825032070
           C          1.275849150593     0.174297055520     0.170245030759    12.000000000000
           O          1.748113150593     0.476475055520    -1.029862969241    15.994914619560
           O          1.961441150593     0.125999055520     1.143123030759    15.994914619560
           C          3.135298150593     0.748418055520    -1.121717969241    12.000000000000
           H          3.396383150593     1.595672055520    -0.504634969241     1.007825032070
           H          3.323182150593     0.969030055520    -2.160891969241     1.007825032070
           H          3.710788150593    -0.110980944480    -0.810006969241     1.007825032070

  Charge       = 0
  Multiplicity = 1
  Basis Set: 6-31G*
  Basis Set:

    Orbital Energies (a.u.)
    -----------------------

    Doubly Occupied:

       1A    -20.609860     2A    -20.550116     3A    -11.380671
       4A    -11.283368     5A    -11.252146     6A    -11.244971
       7A    -11.244013     8A    -11.241169     9A    -11.240216
      10A    -11.239441    11A     -1.474853    12A     -1.365965
      13A     -1.166679    14A     -1.049528    15A     -1.026567
      16A     -0.979541    17A     -0.861317    18A     -0.839025
      19A     -0.780197    20A     -0.738099    21A     -0.686466
      22A     -0.679903    23A     -0.675980    24A     -0.631532
      25A     -0.629884    26A     -0.598499    27A     -0.591332
      28A     -0.546868    29A     -0.536461    30A     -0.517318
      31A     -0.508307    32A     -0.501759    33A     -0.458763
      34A     -0.445309    35A     -0.343527    36A     -0.341563

  @DF-RHF Final Energy:  -457.33803233205214

   => Energetics <=

    Nuclear Repulsion Energy =            491.5968401025535854
    One-Electron Energy =               -1597.3477119773801860
    Two-Electron Energy =                 648.4128395427751457
    DFT Exchange-Correlation Energy =       0.0000000000000000
    Empirical Dispersion Energy =           0.0000000000000000
    PCM Polarization Energy =               0.0000000000000000
    EFP Energy =                            0.0000000000000000
    Total Energy =                       -457.3380323320513980

  Mulliken Charges: (a.u.)
   Center  Symbol    Alpha    Beta     Spin     Total
       1     H     0.39661  0.39661  0.00000  0.20677
       2     C     3.09765  3.09765  0.00000 -0.19531
       3     C     3.09922  3.09922  0.00000 -0.19844
       4     C     3.10026  3.10026  0.00000 -0.20051
       5     H     0.39555  0.39555  0.00000  0.20890
       6     C     3.09699  3.09699  0.00000 -0.19399
       7     H     0.39530  0.39530  0.00000  0.20940
       8     C     3.09783  3.09783  0.00000 -0.19567
       9     H     0.39133  0.39133  0.00000  0.21733
      10     C     3.00824  3.00824  0.00000 -0.01648
      11     H     0.39043  0.39043  0.00000  0.21914
      12     C     2.64255  2.64255  0.00000  0.71490
      13     O     4.29594  4.29594  0.00000 -0.59188
      14     O     4.27544  4.27544  0.00000 -0.55088
      15     C     3.09375  3.09375  0.00000 -0.18750
      16     H     0.40830  0.40830  0.00000  0.18341
      17     H     0.40660  0.40660  0.00000  0.18680
      18     H     0.40800  0.40800  0.00000  0.18400

   Total alpha = 36.00000, Total beta = 36.00000, Total charge =  0.00000
