                              Psi4 1.0.54 Driver

  ==> Input File <==

--------------------------------------------------------------------------
set {
	reference rhf
	basis cc-pvtz
}

set_num_threads( 4 )
memory 2 gb

molecule MOL {
0 1

H	 -3.258660	 -0.290394	 1.471450
C	 -3.307964	 -0.275695	 0.374072
C	 -2.653809	 0.914422	 -0.273689
O	 -3.855140	 -1.148880	 -0.205112
C	 -3.637405	 2.056455	 -0.545668
H	 -1.830469	 1.236970	 0.350338
H	 -2.241085	 0.565870	 -1.217868
C	 -4.174962	 2.717123	 0.721901
H	 -3.138006	 2.800963	 -1.156118
H	 -4.465939	 1.683259	 -1.142702
C	 -5.145076	 3.860033	 0.434816
H	 -3.339911	 3.090339	 1.308848
H	 -4.669717	 1.974564	 1.342588
C	 -5.671739	 4.526704	 1.704235
H	 -4.648222	 4.593873	 -0.192049
H	 -5.984384	 3.481209	 -0.144281
C	 -6.710455	 5.624787	 1.469324
H	 -4.836603	 4.938988	 2.265798
H	 -6.114755	 3.763917	 2.338427
C	 -6.179457	 6.863154	 0.751290
H	 -7.112151	 5.926847	 2.431504
H	 -7.546115	 5.213774	 0.908926
H	 -5.338036	 7.292313	 1.285921
H	 -5.851281	 6.639089	 -0.256569
H	 -6.947426	 7.624860	 0.680627

	symmetry c1
}
set optking {
	frozen_dihedral = ("
		6 3 2 4
	")
}

ee,wfn = optimize('scf', return_wfn=True)
oeprop( wfn, 'DIPOLE', 'QUADRUPOLE', 'MULLIKEN_CHARGES')
f=open( 'psi4out.xyz', 'w' )
f.write( "25  " )
f.write( str(ee) + "\n" )
f.write( MOL.save_string_xyz() )
f.close()
--------------------------------------------------------------------------

    Molecular point group: c1
  Charge       = 0
  Multiplicity = 1
  Basis Set: CC-PVTZ
  Basis Set:
  @DF-RHF Final Energy:  -387.25805494018778
    Total Energy =                       -387.2580549401872076
    Molecular point group: c1
  Basis Set: CC-PVTZ
  Basis Set:
  Basis Set: CC-PVTZ
  Basis Set:
  @DF-RHF Final Energy:  -387.25845901102616
    Total Energy =                       -387.2584590110262752
  Basis Set: CC-PVTZ
  Basis Set:
  Basis Set: CC-PVTZ
  Basis Set:
  @DF-RHF Final Energy:  -387.25832712539892
    Total Energy =                       -387.2583271253987505
  Basis Set: CC-PVTZ
  Basis Set:
  Basis Set: CC-PVTZ
  Basis Set:
  @DF-RHF Final Energy:  -387.25847610686952
    Total Energy =                       -387.2584761068695798
  Basis Set: CC-PVTZ
  Basis Set:
  Basis Set: CC-PVTZ
  Basis Set:
  @DF-RHF Final Energy:  -387.25848604468013
    Total Energy =                       -387.2584860446798984
  Basis Set: CC-PVTZ
  Basis Set:
  Basis Set: CC-PVTZ
  Basis Set:
  @DF-RHF Final Energy:  -387.25849853461028
    Total Energy =                       -387.2584985346104531
  Basis Set: CC-PVTZ
  Basis Set:
  Charge       = 0
  Multiplicity = 1
  Basis Set: CC-PVTZ
  Basis Set:

    Orbital Energies (a.u.)
    -----------------------

    Doubly Occupied:

       1A    -20.551236     2A    -11.320261     3A    -11.232757
       4A    -11.231568     5A    -11.223849     6A    -11.218138
       7A    -11.216915     8A    -11.216170     9A    -11.209280
      10A     -1.405973    11A     -1.104643    12A     -1.069857
      13A     -1.013968    14A     -0.943484    15A     -0.877510
      16A     -0.827366    17A     -0.783323    18A     -0.774380
      19A     -0.685968    20A     -0.658036    21A     -0.634639
      22A     -0.622220    23A     -0.598725    24A     -0.592565
      25A     -0.582071    26A     -0.552162    27A     -0.540414
      28A     -0.524049    29A     -0.509687    30A     -0.498757
      31A     -0.490187    32A     -0.479930    33A     -0.466035
      34A     -0.460221    35A     -0.443164    36A     -0.410216

  @DF-RHF Final Energy:  -387.25849925443362

   => Energetics <=

    Nuclear Repulsion Energy =            439.8463946640826521
    One-Electron Energy =               -1396.2703422658951240
    Two-Electron Energy =                 569.1654483473793107
    DFT Exchange-Correlation Energy =       0.0000000000000000
    Empirical Dispersion Energy =           0.0000000000000000
    PCM Polarization Energy =               0.0000000000000000
    EFP Energy =                            0.0000000000000000
    Total Energy =                       -387.2584992544331044
    Molecular point group: c1
  Basis Set: CC-PVTZ
  Basis Set:

  -Total Gradient:
     Atom            X                  Y                   Z
    ------   -----------------  -----------------  -----------------
       1       -0.000015688655    -0.000009243794    -0.000037889993
       2        0.000525155740    -0.000262978380     0.000038035930
       3        0.000132458766    -0.000210930196    -0.000240472607
       4       -0.000376624481     0.000246794188     0.000036456945
       5        0.000010205101    -0.000020748600    -0.000012470503
       6       -0.000270694515     0.000243529506     0.000182642042
       7       -0.000006563663     0.000004137716     0.000029478458
       8       -0.000000733964     0.000004325645     0.000005069346
       9       -0.000014499033    -0.000000645707     0.000008730547
      10        0.000007752748     0.000000359384    -0.000005888427
      11        0.000015051631     0.000013697793     0.000003400273
      12       -0.000001167404    -0.000004633050    -0.000002076498
      13       -0.000000079982     0.000001954920     0.000001385771
      14       -0.000007385029    -0.000006955063    -0.000000386966
      15        0.000002797923     0.000008758433    -0.000004963663
      16        0.000000196430     0.000003641172     0.000003810267
      17       -0.000002553756    -0.000003355291    -0.000000448062
      18        0.000000622474    -0.000000559730    -0.000004749622
      19        0.000001827608    -0.000006764377     0.000003299231
      20        0.000000572583    -0.000001900066    -0.000001505084
      21        0.000002905180     0.000000894235    -0.000001781696
      22       -0.000003354371     0.000003027829     0.000001423655
      23       -0.000001874584    -0.000001034675     0.000000524499
      24        0.000002452436    -0.000000551884     0.000000075882
      25       -0.000000779185    -0.000000820007    -0.000001699729

  **** Optimization is complete! (in 7 steps) ****
    Final optimized geometry and variables:
    Molecular point group: c1

    Geometry (in Angstrom), charge = 0, multiplicity = 1:

    H            1.372698884076    -3.019057854825     1.055552553133
    C            1.342506267325    -3.043854388865    -0.039656125205
    C            1.969217074084    -1.874277233368    -0.756339515929
    O            0.818575288791    -3.948504918822    -0.593577880228
    C            0.955426548370    -0.751457643976    -1.025603192278
    H            2.791646607557    -1.490078105955    -0.160981076072
    H            2.363108840141    -2.238914184435    -1.696085955255
    C            0.392841408779    -0.089519719122     0.231047422229
    H            1.445300541655     0.000492351406    -1.635212090306
    H            0.144060480246    -1.153835608862    -1.623019833218
    C           -0.559354211664     1.061887082421    -0.082205621222
    H            1.213776735810     0.279187207514     0.841708212582
    H           -0.131157058942    -0.825299171444     0.835261657591
    C           -1.124286543546     1.726247936933     1.171813106730
    H           -0.036135944133     1.794717943565    -0.688261121914
    H           -1.380264314166     0.690569047634    -0.690992210822
    C           -2.147519285675     2.831969949945     0.906716446122
    H           -0.306229330850     2.131182283254     1.763456995090
    H           -1.594023652133     0.963639739392     1.786918243185
    C           -1.584707392213     4.069321794375     0.211574403051
    H           -2.579296911440     3.133114605748     1.856103469774
    H           -2.966258286903     2.428224860826     0.317078004392
    H           -0.758507797119     4.490771145935     0.775379197668
    H           -1.225168262800     3.846859380624    -0.785831094400
    H           -2.344846749498     4.836444321553     0.118792700156

  Mulliken Charges: (a.u.)
   Center  Symbol    Alpha    Beta     Spin     Total
       1     H     0.45893  0.45893  0.00000  0.08214
       2     C     2.90897  2.90897  0.00000  0.18206
       3     C     3.09115  3.09115  0.00000 -0.18230
       4     O     4.16838  4.16838  0.00000 -0.33676
       5     C     3.10223  3.10223  0.00000 -0.20447
       6     H     0.44977  0.44977  0.00000  0.10045
       7     H     0.43711  0.43711  0.00000  0.12579
       8     C     3.09537  3.09537  0.00000 -0.19074
       9     H     0.44683  0.44683  0.00000  0.10634
      10     H     0.44351  0.44351  0.00000  0.11297
      11     C     3.09285  3.09285  0.00000 -0.18570
      12     H     0.45346  0.45346  0.00000  0.09308
      13     H     0.45052  0.45052  0.00000  0.09895
      14     C     3.09545  3.09545  0.00000 -0.19091
      15     H     0.45110  0.45110  0.00000  0.09779
      16     H     0.45176  0.45176  0.00000  0.09648
      17     C     3.09076  3.09076  0.00000 -0.18151
      18     H     0.45411  0.45411  0.00000  0.09178
      19     H     0.44869  0.44869  0.00000  0.10263
      20     C     3.15276  3.15276  0.00000 -0.30552
      21     H     0.44791  0.44791  0.00000  0.10417
      22     H     0.45383  0.45383  0.00000  0.09235
      23     H     0.45499  0.45499  0.00000  0.09002
      24     H     0.45388  0.45388  0.00000  0.09224
      25     H     0.44567  0.44567  0.00000  0.10865

   Total alpha = 36.00000, Total beta = 36.00000, Total charge = -0.00000

*** Psi4 exiting successfully. Buy a developer a beer!
