  ==> Input File <==

--------------------------------------------------------------------------
set {
	reference rhf
	basis 6-31G*
}

set_num_threads( 4 )
memory 2 gb

molecule MOL {
0 1

O	 1.214711	 1.306902	 -0.000018
C	 1.122059	 0.121804	 -0.000188
C	 -0.170150	 -0.657997	 -0.000612
O	 2.172624	 -0.688929	 0.000216
C	 -1.412532	 0.227344	 -0.000452
H	 -0.153702	 -1.313099	 -0.867402
H	 -0.153924	 -1.313811	 0.865644
C	 -1.697040	 0.829660	 1.376369
H	 -2.267221	 -0.354426	 -0.331442
H	 -1.287141	 1.020921	 -0.730532
C	 -2.939475	 1.719199	 1.385249
H	 -1.821039	 0.030306	 2.104197
H	 -0.836539	 1.409350	 1.704347
H	 -3.823744	 1.159484	 1.094663
H	 -3.118822	 2.133126	 2.372556
H	 -2.831958	 2.548706	 0.692429
C	 3.452279	 -0.082609	 0.000533
H	 3.583069	 0.529321	 -0.880332
H	 4.163299	 -0.894027	 0.001117
H	 3.582335	 0.529955	 0.881077

	symmetry c1
}
set optking {
	frozen_dihedral = ("
		9 5 3 6
	")
}

ee = optimize('scf')
oeprop('DIPOLE', 'QUADRUPOLE', 'MULLIKEN_CHARGES')
f=open( 'psi4out.xyz', 'w' )
f.write( "20  " )
f.write( str(ee) + "\n" )
f.write( MOL.save_string_xyz() )
f.close()
--------------------------------------------------------------------------

    Molecular point group: c1
  Charge       = 0
  Multiplicity = 1
  Basis Set: 6-31G*
  Basis Set:
  @DF-RHF Final Energy:  -383.94078227238566
    Total Energy =                       -383.9407822723857180
    Molecular point group: c1
  Basis Set: 6-31G*
  Basis Set:
  Basis Set: 6-31G*
  Basis Set:
  @DF-RHF Final Energy:  -383.94096832857883
    Total Energy =                       -383.9409683285790607
  Basis Set: 6-31G*
  Basis Set:
  Basis Set: 6-31G*
  Basis Set:
  @DF-RHF Final Energy:  -383.94019068299906
    Total Energy =                       -383.9401906829994005
  Basis Set: 6-31G*
  Basis Set:
  Basis Set: 6-31G*
  Basis Set:
  @DF-RHF Final Energy:  -383.94103525770993
    Total Energy =                       -383.9410352577094727
  Basis Set: 6-31G*
  Basis Set:
  Basis Set: 6-31G*
  Basis Set:
  @DF-RHF Final Energy:  -383.94104829849846
    Total Energy =                       -383.9410482984987993
  Basis Set: 6-31G*
  Basis Set:
  Basis Set: 6-31G*
  Basis Set:
  @DF-RHF Final Energy:  -383.94105552447184
    Total Energy =                       -383.9410555244721763
  Basis Set: 6-31G*
  Basis Set:
  Basis Set: 6-31G*
  Basis Set:
  @DF-RHF Final Energy:  -383.94105657971022
    Total Energy =                       -383.9410565797104482
  Basis Set: 6-31G*
  Basis Set:
  Charge       = 0
  Multiplicity = 1
  Basis Set: 6-31G*
  Basis Set:

    Orbital Energies (a.u.)
    -----------------------

    Doubly Occupied:

       1A    -20.604702     2A    -20.546517     3A    -11.373369
       4A    -11.281540     5A    -11.235773     6A    -11.219384
       7A    -11.214197     8A    -11.206964     9A     -1.470457
      10A     -1.363696    11A     -1.086525    12A     -1.022102
      13A     -0.968831    14A     -0.884087    15A     -0.805137
      16A     -0.766300    17A     -0.702674    18A     -0.680847
      19A     -0.672444    20A     -0.630007    21A     -0.607207
      22A     -0.587370    23A     -0.579327    24A     -0.542792
      25A     -0.531761    26A     -0.516422    27A     -0.511942
      28A     -0.475977    29A     -0.470846    30A     -0.462420
      31A     -0.455871    32A     -0.437352

  @DF-RHF Final Energy:  -383.94105695017106

   => Energetics <=

    Nuclear Repulsion Energy =            388.1457234157654739
    One-Electron Energy =               -1292.3438819837269875
    Two-Electron Energy =                 520.2571016177904539
    DFT Exchange-Correlation Energy =       0.0000000000000000
    Empirical Dispersion Energy =           0.0000000000000000
    PCM Polarization Energy =               0.0000000000000000
    EFP Energy =                            0.0000000000000000
    Total Energy =                       -383.9410569501710597
    Molecular point group: c1
  Basis Set: 6-31G*
  Basis Set:

  -Total Gradient:
     Atom            X                  Y                   Z
    ------   -----------------  -----------------  -----------------
       1       -0.000003214579    -0.000001215979    -0.000001153805
       2       -0.000007353500     0.000022314679     0.000000698379
       3        0.000995617739     0.001507937205    -0.001344282162
       4        0.000013039813    -0.000018420314    -0.000003108106
       5       -0.000510344040    -0.000830863147     0.001990833330
       6       -0.000760043924    -0.001117080798     0.000812810250
       7        0.000005576625    -0.000001060836     0.000001738584
       8        0.000008429453     0.000018252275     0.000004731880
       9        0.000257835085     0.000431130305    -0.001468199418
      10       -0.000002047507     0.000004297698     0.000003495732
      11        0.000002571040    -0.000009250106    -0.000003831244
      12       -0.000002916309    -0.000001020765    -0.000000775808
      13        0.000003250400    -0.000000299740     0.000004689326
      14       -0.000002841416     0.000001361178    -0.000001377048
      15        0.000003435022    -0.000003226874    -0.000001296747
      16        0.000000832828    -0.000001818627     0.000000862419
      17        0.000001294894     0.000000602075     0.000005276051
      18       -0.000002663754    -0.000000964214    -0.000000171813
      19       -0.000001255972    -0.000000900630    -0.000000533259
      20        0.000000798103     0.000000226614    -0.000000406539

  **** Optimization is complete! (in 8 steps) ****
    Final optimized geometry and variables:
    Molecular point group: c1

    Geometry (in Angstrom), charge = 0, multiplicity = 1:

    O            0.978175909350     0.950687537738    -0.482613661002
    C            0.873998871884    -0.229468253297    -0.380094059044
    C           -0.423629675299    -1.002087967254    -0.364898336823
    O            1.916828863929    -1.042987252807    -0.278994770363
    C           -1.671540284320    -0.120948407450    -0.321437365184
    H           -0.425165080937    -1.638127971105    -1.246010083815
    H           -0.391559258052    -1.682897108715     0.480748943771
    C           -1.957936047035     0.470556975617     1.059767652493
    H           -2.521809647618    -0.713791634957    -0.649475673881
    H           -1.560774198022     0.682066075808    -1.042483851114
    C           -3.203667298754     1.355017328021     1.072869779195
    H           -2.081906556646    -0.337812664410     1.778213468156
    H           -1.100683383930     1.051215761784     1.386039644410
    H           -4.086070546639     0.796876974867     0.771801184395
    H           -3.388887285524     1.756465461711     2.064258792812
    H           -3.093492734153     2.193505075847     0.391618671782
    C            3.201770389577    -0.448092431941    -0.303773384997
    H            3.358142608150     0.080139589430    -1.233279416150
    H            3.904969458128    -1.261167861888    -0.212734515192
    H            3.317080213511     0.240991998358     0.520406904516

  Mulliken Charges: (a.u.)
   Center  Symbol    Alpha    Beta     Spin     Total
       1     O     4.28687  4.28687  0.00000 -0.57375
       2     C     2.60644  2.60644  0.00000  0.78713
       3     C     3.20959  3.20959  0.00000 -0.41917
       4     O     4.30621  4.30621  0.00000 -0.61243
       5     C     3.15464  3.15464  0.00000 -0.30928
       6     H     0.39763  0.39763  0.00000  0.20474
       7     H     0.40066  0.40066  0.00000  0.19869
       8     C     3.15610  3.15610  0.00000 -0.31220
       9     H     0.41971  0.41971  0.00000  0.16057
      10     H     0.40668  0.40668  0.00000  0.18664
      11     C     3.24040  3.24040  0.00000 -0.48080
      12     H     0.42585  0.42585  0.00000  0.14831
      13     H     0.41040  0.41040  0.00000  0.17921
      14     H     0.42319  0.42319  0.00000  0.15362
      15     H     0.41886  0.41886  0.00000  0.16228
      16     H     0.41820  0.41820  0.00000  0.16359
      17     C     3.09238  3.09238  0.00000 -0.18476
      18     H     0.40900  0.40900  0.00000  0.18200
      19     H     0.40829  0.40829  0.00000  0.18342
      20     H     0.40890  0.40890  0.00000  0.18220

   Total alpha = 32.00000, Total beta = 32.00000, Total charge =  0.00000
