  ==> Input File <==

--------------------------------------------------------------------------
set {
	reference rhf
	basis 6-31G*
}

set_num_threads( 4 )
memory 2 gb

molecule MOL {
0 1

H	 3.838448	 -0.971677	 -2.915512
C	 3.174219	 -1.292418	 -2.119474
C	 1.909809	 -0.435327	 -2.079163
H	 2.934377	 -2.337904	 -2.291701
H	 3.724791	 -1.229506	 -1.185045
C	 0.947913	 -0.853068	 -0.971622
H	 1.388247	 -0.491755	 -3.029520
H	 2.186735	 0.608264	 -1.939089
N	 -0.250970	 -0.038208	 -0.983510
H	 0.650887	 -1.886958	 -1.125930
H	 1.464343	 -0.820523	 -0.006418
C	 -1.217365	 -0.386708	 0.039277
H	 0.001745	 0.927180	 -0.887594
C	 -2.452633	 0.504241	 -0.042481
H	 -1.510785	 -1.421364	 -0.116768
H	 -0.793973	 -0.334192	 1.047922
C	 -3.758029	 -0.289423	 -0.010781
H	 -2.394220	 1.093569	 -0.952170
H	 -2.440793	 1.210787	 0.785871
H	 -3.816659	 -0.981993	 -0.845726
H	 -4.617837	 0.370165	 -0.069296
H	 -3.847478	 -0.867502	 0.904682

	symmetry c1
}
set optking {
	frozen_dihedral = ("
		15 12 14 18
	")
}

ee = optimize('scf')
oeprop('DIPOLE', 'QUADRUPOLE', 'MULLIKEN_CHARGES')
f=open( 'psi4out.xyz', 'w' )
f.write( "22  " )
f.write( str(ee) + "\n" )
f.write( MOL.save_string_xyz() )
f.close()
--------------------------------------------------------------------------

    Molecular point group: c1
  Charge       = 0
  Multiplicity = 1
  Basis Set: 6-31G*
  Basis Set:
  @DF-RHF Final Energy:  -290.37769252283300
    Total Energy =                       -290.3776925228331720
    Molecular point group: c1
  Basis Set: 6-31G*
  Basis Set:
  Basis Set: 6-31G*
  Basis Set:
  @DF-RHF Final Energy:  -290.37794541833665
    Total Energy =                       -290.3779454183365942
  Basis Set: 6-31G*
  Basis Set:
  Basis Set: 6-31G*
  Basis Set:
  @DF-RHF Final Energy:  -290.37802427238438
    Total Energy =                       -290.3780242723844935
  Basis Set: 6-31G*
  Basis Set:
  Charge       = 0
  Multiplicity = 1
  Basis Set: 6-31G*
  Basis Set:

    Orbital Energies (a.u.)
    -----------------------

    Doubly Occupied:

       1A    -15.534348     2A    -11.237828     3A    -11.237754
       4A    -11.213576     5A    -11.213163     6A    -11.209729
       7A    -11.208721     8A     -1.205328     9A     -1.057450
      10A     -1.024750    11A     -0.927414    12A     -0.868500
      13A     -0.811856    14A     -0.794351    15A     -0.663774
      16A     -0.629305    17A     -0.614776    18A     -0.608979
      19A     -0.573526    20A     -0.563029    21A     -0.536660
      22A     -0.525754    23A     -0.511763    24A     -0.486812
      25A     -0.478122    26A     -0.474299    27A     -0.464616
      28A     -0.449919    29A     -0.358258

  @DF-RHF Final Energy:  -290.37802487077278

   => Energetics <=

    Nuclear Repulsion Energy =            313.4143087104427536
    One-Electron Energy =               -1012.6159396190101916
    Two-Electron Energy =                 408.8236060377946615
    DFT Exchange-Correlation Energy =       0.0000000000000000
    Empirical Dispersion Energy =           0.0000000000000000
    PCM Polarization Energy =               0.0000000000000000
    EFP Energy =                            0.0000000000000000
    Total Energy =                       -290.3780248707728333
    Molecular point group: c1
  Basis Set: 6-31G*
  Basis Set:

  -Total Gradient:
     Atom            X                  Y                   Z
    ------   -----------------  -----------------  -----------------
       1        0.000010823559    -0.000008956898    -0.000003292762
       2        0.000012760786     0.000002829361    -0.000028765005
       3        0.000027069976    -0.000028945519    -0.000002286809
       4        0.000000954472     0.000000120874     0.000002407243
       5       -0.000004621328     0.000004733946    -0.000002426427
       6        0.000001896085     0.000029024661     0.000014031061
       7        0.000008247750     0.000004579592    -0.000002502219
       8       -0.000002181964    -0.000004158550     0.000007886235
       9       -0.000040610321    -0.000023958640    -0.000012813260
      10        0.000007713119     0.000007114725    -0.000002725128
      11        0.000001733011    -0.000010119417     0.000003914531
      12        0.000781354475     0.000939781430    -0.003345083377
      13       -0.000017213523    -0.000007486146     0.000021857526
      14       -0.001989594898    -0.002731108099    -0.001159218065
      15       -0.000365229523    -0.000328616373     0.003016555323
      16        0.000026773726     0.000008126858    -0.000018310610
      17       -0.000016911707    -0.000010993378     0.000018866006
      18        0.001541120126     0.002168988602     0.001491489320
      19       -0.000002031546    -0.000033865666    -0.000003025547
      20        0.000012491259     0.000020942759    -0.000001212699
      21        0.000001496573     0.000011126919     0.000008633115
      22        0.000003959890    -0.000009161040    -0.000003978452

  **** Optimization is complete! (in 4 steps) ****
    Final optimized geometry and variables:
    Molecular point group: c1

    Geometry (in Angstrom), charge = 0, multiplicity = 1:

    H            4.098167397414    -0.555666448179    -2.014946217324
    C            3.430548796868    -0.875402927427    -1.221310644389
    C            2.155708243106    -0.033159067522    -1.202097635179
    H            3.204752010186    -1.925540454402    -1.383772633471
    H            3.971753232052    -0.795354694946    -0.282724971772
    C            1.187898954935    -0.451185857838    -0.099764610587
    H            1.644406101547    -0.105515904537    -2.156893368247
    H            2.418761448813     1.015103092399    -1.069991498965
    N           -0.020949634212     0.348016972343    -0.132253629281
    H            0.904817141579    -1.490247639372    -0.245858269895
    H            1.693758761862    -0.402382903461     0.870385310899
    C           -0.990610375867    -0.006197350789     0.886903172959
    H            0.218903524880     1.317135322585    -0.038187192383
    C           -2.230395558825     0.905043384615     0.837973217012
    H           -1.284824992356    -1.040266601769     0.731467153038
    H           -0.555918144163     0.022003768626     1.890918286960
    C           -3.551233724776     0.140123242016     0.899047300457
    H           -2.187022680097     1.500511046076    -0.068670309912
    H           -2.193363283165     1.614236129708     1.661459360052
    H           -3.651426535573    -0.528316935079     0.049269796046
    H           -4.398761796604     0.818363628613     0.892841857276
    H           -3.615738108412    -0.460075558240     1.802658428575

  Mulliken Charges: (a.u.)
   Center  Symbol    Alpha    Beta     Spin     Total
       1     H     0.41774  0.41774  0.00000  0.16452
       2     C     3.24325  3.24325  0.00000 -0.48651
       3     C     3.15536  3.15536  0.00000 -0.31071
       4     H     0.42068  0.42068  0.00000  0.15864
       5     H     0.42168  0.42168  0.00000  0.15664
       6     C     3.04796  3.04796  0.00000 -0.09591
       7     H     0.41297  0.41297  0.00000  0.17405
       8     H     0.42670  0.42670  0.00000  0.14661
       9     N     3.85678  3.85678  0.00000 -0.71355
      10     H     0.42158  0.42158  0.00000  0.15684
      11     H     0.43618  0.43618  0.00000  0.12764
      12     C     3.05133  3.05133  0.00000 -0.10266
      13     H     0.33500  0.33500  0.00000  0.33000
      14     C     3.16177  3.16177  0.00000 -0.32355
      15     H     0.41938  0.41938  0.00000  0.16123
      16     H     0.43448  0.43448  0.00000  0.13105
      17     C     3.24199  3.24199  0.00000 -0.48399
      18     H     0.41241  0.41241  0.00000  0.17518
      19     H     0.42280  0.42280  0.00000  0.15440
      20     H     0.41778  0.41778  0.00000  0.16444
      21     H     0.41986  0.41986  0.00000  0.16029
      22     H     0.42232  0.42232  0.00000  0.15535

   Total alpha = 29.00000, Total beta = 29.00000, Total charge = -0.00000
