  ==> Input File <==

--------------------------------------------------------------------------
set {
	reference rhf
	basis 6-31G*
}

set_num_threads( 4 )
memory 2 gb

molecule MOL {
0 1

H	 2.845955	 -0.323208	 0.022310
C	 1.900140	 0.071967	 -0.330070
C	 0.778463	 -0.508087	 0.517968
H	 1.782469	 -0.206877	 -1.370777
H	 1.922247	 1.149867	 -0.254252
N	 -0.540928	 0.005139	 0.058438
H	 0.716718	 -1.581298	 0.454712
H	 0.859711	 -0.198647	 1.550086
O	 -1.197421	 -0.703110	 -0.639182
O	 -0.852143	 1.097670	 0.424527

	symmetry c1
}
set optking {
	frozen_dihedral = ("
		9 6 3 2
	")
}

ee = optimize('scf')
oeprop('DIPOLE', 'QUADRUPOLE', 'MULLIKEN_CHARGES')
f=open( 'psi4out.xyz', 'w' )
f.write( "10  " )
f.write( str(ee) + "\n" )
f.write( MOL.save_string_xyz() )
f.close()
--------------------------------------------------------------------------

    Molecular point group: c1
  Charge       = 0
  Multiplicity = 1
  Basis Set: 6-31G*
  Basis Set:
  @DF-RHF Final Energy:  -282.70030625139356
    Total Energy =                       -282.7003062513933855
    Molecular point group: c1
  Basis Set: 6-31G*
  Basis Set:
  Basis Set: 6-31G*
  Basis Set:
  @DF-RHF Final Energy:  -282.69545549594284
    Total Energy =                       -282.6954554959429515
  Basis Set: 6-31G*
  Basis Set:
  Basis Set: 6-31G*
  Basis Set:
  @DF-RHF Final Energy:  -282.70034172722376
    Total Energy =                       -282.7003417272238153
  Basis Set: 6-31G*
  Basis Set:
  Basis Set: 6-31G*
  Basis Set:
  @DF-RHF Final Energy:  -282.70046404093398
    Total Energy =                       -282.7004640409339800
  Basis Set: 6-31G*
  Basis Set:
  Basis Set: 6-31G*
  Basis Set:
  @DF-RHF Final Energy:  -282.70046531931894
    Total Energy =                       -282.7004653193188233
  Basis Set: 6-31G*
  Basis Set:
  Charge       = 0
  Multiplicity = 1
  Basis Set: 6-31G*
  Basis Set:

    Orbital Energies (a.u.)
    -----------------------

    Doubly Occupied:

       1A    -20.603272     2A    -20.600831     3A    -15.848491
       4A    -11.303647     5A    -11.253743     6A     -1.632109
       7A     -1.417756     8A     -1.128077     9A     -0.967446
      10A     -0.838123    11A     -0.760387    12A     -0.735396
      13A     -0.725611    14A     -0.658955    15A     -0.590679
      16A     -0.561078    17A     -0.549876    18A     -0.485121
      19A     -0.477873    20A     -0.449577

  @DF-RHF Final Energy:  -282.70046603864580

   => Energetics <=

    Nuclear Repulsion Energy =            186.2869184796108186
    One-Electron Energy =                -754.7986731222031267
    Two-Electron Energy =                 285.8112886039465366
    DFT Exchange-Correlation Energy =       0.0000000000000000
    Empirical Dispersion Energy =           0.0000000000000000
    PCM Polarization Energy =               0.0000000000000000
    EFP Energy =                            0.0000000000000000
    Total Energy =                       -282.7004660386457999
    Molecular point group: c1
  Basis Set: 6-31G*
  Basis Set:

  -Total Gradient:
     Atom            X                  Y                   Z
    ------   -----------------  -----------------  -----------------
       1        0.000006535252     0.000003029206    -0.000003533197
       2       -0.000019842850    -0.000068884157    -0.000038292629
       3        0.000039112124     0.000112399221     0.000037330930
       4        0.000008125586     0.000004437853    -0.000010094970
       5       -0.000000406587    -0.000005832325     0.000001594442
       6       -0.000088736514    -0.000097578954     0.000042189135
       7       -0.000010914422     0.000009689381    -0.000004998483
       8       -0.000005337205    -0.000002671542     0.000012201009
       9        0.000057406029     0.000039228720    -0.000055702276
      10        0.000014058590     0.000006182597     0.000019306040

  **** Optimization is complete! (in 6 steps) ****
    Final optimized geometry and variables:
    Molecular point group: c1

    Geometry (in Angstrom), charge = 0, multiplicity = 1:

    H            2.836226207574    -0.315380953653     0.018291497827
    C            1.883687638000     0.071065335401    -0.324558941822
    C            0.770957721979    -0.517300455911     0.533372903695
    H            1.755184746711    -0.207213797015    -1.363699389610
    H            1.898297186151     1.150170142487    -0.245128662212
    N           -0.540122273377     0.003132056465     0.063908604302
    H            0.713867876723    -1.589943312460     0.452224425260
    H            0.856589508684    -0.213853628764     1.564858569787
    O           -1.194048717080    -0.704251290733    -0.638023648606
    O           -0.832570962024     1.110404665285     0.398536991141

  Mulliken Charges: (a.u.)
   Center  Symbol    Alpha    Beta     Spin     Total
       1     H     0.40427  0.40427  0.00000  0.19147
       2     C     3.25796  3.25796  0.00000 -0.51591
       3     C     3.08963  3.08963  0.00000 -0.17925
       4     H     0.39954  0.39954  0.00000  0.20092
       5     H     0.39531  0.39531  0.00000  0.20939
       6     N     3.22013  3.22013  0.00000  0.55974
       7     H     0.38669  0.38669  0.00000  0.22662
       8     H     0.38771  0.38771  0.00000  0.22458
       9     O     4.22834  4.22834  0.00000 -0.45669
      10     O     4.23044  4.23044  0.00000 -0.46087

   Total alpha = 20.00000, Total beta = 20.00000, Total charge = -0.00000
