                              Psi4 1.0.54 Driver

  ==> Input File <==

--------------------------------------------------------------------------
set {
	reference rhf
	basis cc-pvtz
}

set_num_threads( 4 )
memory 2 gb

molecule MOL {
0 1

H	 -2.421535	 -0.633953	 -1.178422
O	 -2.336992	 -0.303500	 -0.302891
C	 -1.180551	 0.477527	 -0.189836
C	 0.069907	 -0.379240	 -0.179904
H	 -1.113654	 1.209408	 -0.988587
H	 -1.254322	 1.017129	 0.743475
O	 1.172093	 0.457955	 -0.054438
H	 0.132042	 -0.957710	 -1.103163
H	 0.019502	 -1.086338	 0.645352
C	 2.395478	 -0.199028	 -0.000366
H	 2.505946	 -0.901710	 -0.823354
H	 3.174616	 0.545641	 -0.071768
H	 2.513730	 -0.742241	 0.934223

	symmetry c1
}
set optking {
	frozen_dihedral = ("
		4 7 10 13
	")
}

ee,wfn = optimize('scf', return_wfn=True)
oeprop( wfn, 'DIPOLE', 'QUADRUPOLE', 'MULLIKEN_CHARGES')
f=open( 'psi4out.xyz', 'w' )
f.write( "13  " )
f.write( str(ee) + "\n" )
f.write( MOL.save_string_xyz() )
f.close()
--------------------------------------------------------------------------

    Molecular point group: c1
  Charge       = 0
  Multiplicity = 1
  Basis Set: CC-PVTZ
  Basis Set:
  @DF-RHF Final Energy:  -268.06209336124357
    Total Energy =                       -268.0620933612435692
    Molecular point group: c1
  Basis Set: CC-PVTZ
  Basis Set:
  Basis Set: CC-PVTZ
  Basis Set:
  @DF-RHF Final Energy:  -268.06210213341194
    Total Energy =                       -268.0621021334119405
  Basis Set: CC-PVTZ
  Basis Set:
  Charge       = 0
  Multiplicity = 1
  Basis Set: CC-PVTZ
  Basis Set:

    Orbital Energies (a.u.)
    -----------------------

    Doubly Occupied:

       1A    -20.555893     2A    -20.552899     3A    -11.269330
       4A    -11.267770     5A    -11.267488     6A     -1.391796
       7A     -1.369249     8A     -1.019773     9A     -0.914053
      10A     -0.842789    11A     -0.711902    12A     -0.676610
      13A     -0.663141    14A     -0.638769    15A     -0.598403
      16A     -0.570540    17A     -0.547613    18A     -0.490910
      19A     -0.483687    20A     -0.441714    21A     -0.424556

  @DF-RHF Final Energy:  -268.06210286079215

   => Energetics <=

    Nuclear Repulsion Energy =            190.4736579318384599
    One-Electron Energy =                -743.6737548494174916
    Two-Electron Energy =                 285.1379940567867379
    DFT Exchange-Correlation Energy =       0.0000000000000000
    Empirical Dispersion Energy =           0.0000000000000000
    PCM Polarization Energy =               0.0000000000000000
    EFP Energy =                            0.0000000000000000
    Total Energy =                       -268.0621028607922653
    Molecular point group: c1
  Basis Set: CC-PVTZ
  Basis Set:

  -Total Gradient:
     Atom            X                  Y                   Z
    ------   -----------------  -----------------  -----------------
       1        0.000009391113     0.000007575428     0.000002429610
       2        0.000004742035    -0.000005908189     0.000024715370
       3        0.000001959831     0.000001696142    -0.000014451913
       4        0.000060953968     0.000049113011    -0.001105222295
       5        0.000010360323     0.000000786276     0.000003415311
       6       -0.000017374150     0.000001707175     0.000001920776
       7        0.000056504324     0.000188904789     0.001635323463
       8       -0.000011148832    -0.000005457082     0.000008697921
       9        0.000001863469     0.000005776405     0.000010676956
      10       -0.000658587958    -0.001312713247    -0.001109914674
      11       -0.000018882362     0.000014742652    -0.000019588545
      12        0.000006556152    -0.000015070991     0.000008994545
      13        0.000553662083     0.001068847633     0.000553003475

  **** Optimization is complete! (in 3 steps) ****
    Final optimized geometry and variables:
    Molecular point group: c1

    Geometry (in Angstrom), charge = 0, multiplicity = 1:

    H           -2.426559259134    -0.628599326663    -1.021213491005
    O           -2.342291393174    -0.299431490936    -0.145163522974
    C           -1.185579459961     0.480980283737    -0.030757680962
    C            0.064612355003    -0.376149979076    -0.022565387894
    H           -1.118138613959     1.214157731500    -0.828306464668
    H           -1.259330664568     1.019082853129     0.903413611513
    O            1.167101148874     0.461290648291     0.099798536619
    H            0.125809157036    -0.954548893627    -0.945634923232
    H            0.014502086839    -1.083180001631     0.802991994966
    C            2.391428177558    -0.194066048737     0.160552654069
    H            2.510637864780    -0.895275105543    -0.661803410595
    H            3.169223506495     0.552987696897     0.094775801972
    H            2.507815573333    -0.730932522429     1.098987834120

  Mulliken Charges: (a.u.)
   Center  Symbol    Alpha    Beta     Spin     Total
       1     H     0.39406  0.39406  0.00000  0.21188
       2     O     4.20212  4.20212  0.00000 -0.40425
       3     C     2.97346  2.97346  0.00000  0.05308
       4     C     2.96508  2.96508  0.00000  0.06983
       5     H     0.46700  0.46700  0.00000  0.06601
       6     H     0.45261  0.45261  0.00000  0.09478
       7     O     4.17571  4.17571  0.00000 -0.35142
       8     H     0.48128  0.48128  0.00000  0.03744
       9     H     0.47032  0.47032  0.00000  0.05935
      10     C     3.03147  3.03147  0.00000 -0.06294
      11     H     0.47244  0.47244  0.00000  0.05513
      12     H     0.44660  0.44660  0.00000  0.10680
      13     H     0.46785  0.46785  0.00000  0.06431

   Total alpha = 21.00000, Total beta = 21.00000, Total charge = -0.00000

*** Psi4 exiting successfully. Buy a developer a beer!
