                              Psi4 1.0.54 Driver

  ==> Input File <==

--------------------------------------------------------------------------
set {
	reference rhf
	basis cc-pvtz
}

set_num_threads( 4 )
memory 2 gb

molecule MOL {
0 1

H	 -2.661787	 -1.269238	 -2.035312
O	 -2.189661	 -1.360161	 -1.221341
C	 -1.120934	 -0.569626	 -1.263904
C	 -0.310616	 -0.658853	 0.000791
O	 -0.873266	 0.103156	 -2.204115
C	 0.926581	 0.227233	 0.000178
H	 -0.048411	 -1.702843	 0.138852
H	 -0.973903	 -0.410184	 0.822942
C	 2.220156	 -0.582071	 -0.000088
H	 0.899945	 0.878221	 -0.866390
H	 0.900542	 0.878581	 0.866486
C	 3.466689	 0.296012	 -0.000457
H	 2.239073	 -1.234095	 -0.869382
H	 2.239505	 -1.233985	 0.869270
H	 3.493549	 0.935857	 -0.875887
H	 4.368821	 -0.304526	 -0.001199
H	 3.494559	 0.935166	 0.875458

	symmetry c1
}
set optking {
	frozen_dihedral = ("
		7 4 6 10
	")
}

ee,wfn = optimize('scf', return_wfn=True)
oeprop( wfn, 'DIPOLE', 'QUADRUPOLE', 'MULLIKEN_CHARGES')
f=open( 'psi4out.xyz', 'w' )
f.write( "17  " )
f.write( str(ee) + "\n" )
f.write( MOL.save_string_xyz() )
f.close()
--------------------------------------------------------------------------

    Molecular point group: c1
  Charge       = 0
  Multiplicity = 1
  Basis Set: CC-PVTZ
  Basis Set:
  @DF-RHF Final Energy:  -345.04432835550438
    Total Energy =                       -345.0443283555044900
    Molecular point group: c1
  Basis Set: CC-PVTZ
  Basis Set:
  Basis Set: CC-PVTZ
  Basis Set:
  @DF-RHF Final Energy:  -345.04463729329706
    Total Energy =                       -345.0446372932971144
  Basis Set: CC-PVTZ
  Basis Set:
  Basis Set: CC-PVTZ
  Basis Set:
  @DF-RHF Final Energy:  -345.04436763219735
    Total Energy =                       -345.0443676321975772
  Basis Set: CC-PVTZ
  Basis Set:
  Basis Set: CC-PVTZ
  Basis Set:
  @DF-RHF Final Energy:  -345.04472522140287
    Total Energy =                       -345.0447252214025866
  Basis Set: CC-PVTZ
  Basis Set:
  Basis Set: CC-PVTZ
  Basis Set:
  @DF-RHF Final Energy:  -345.04473586907898
    Total Energy =                       -345.0447358690791475
  Basis Set: CC-PVTZ
  Basis Set:
  Basis Set: CC-PVTZ
  Basis Set:
  @DF-RHF Final Energy:  -345.04473879636981
    Total Energy =                       -345.0447387963698702
  Basis Set: CC-PVTZ
  Basis Set:
  Basis Set: CC-PVTZ
  Basis Set:
  @DF-RHF Final Energy:  -345.04474101434943
    Total Energy =                       -345.0447410143495972
  Basis Set: CC-PVTZ
  Basis Set:
  Charge       = 0
  Multiplicity = 1
  Basis Set: CC-PVTZ
  Basis Set:

    Orbital Energies (a.u.)
    -----------------------

    Doubly Occupied:

       1A    -20.604554     2A    -20.541612     3A    -11.374568
       4A    -11.239455     5A    -11.219622     6A    -11.218704
       7A    -11.208764     8A     -1.478523     9A     -1.369908
      10A     -1.089900    11A     -1.018274    12A     -0.914533
      13A     -0.825756    14A     -0.788975    15A     -0.705640
      16A     -0.695761    17A     -0.659628    18A     -0.630201
      19A     -0.588907    20A     -0.584461    21A     -0.583281
      22A     -0.526228    23A     -0.521174    24A     -0.486327
      25A     -0.481595    26A     -0.471509    27A     -0.466711
      28A     -0.448999

  @DF-RHF Final Energy:  -345.04474200767464

   => Energetics <=

    Nuclear Repulsion Energy =            307.0359583691130752
    One-Electron Energy =               -1078.6742581539717776
    Two-Electron Energy =                 426.5935577771838894
    DFT Exchange-Correlation Energy =       0.0000000000000000
    Empirical Dispersion Energy =           0.0000000000000000
    PCM Polarization Energy =               0.0000000000000000
    EFP Energy =                            0.0000000000000000
    Total Energy =                       -345.0447420076747562
    Molecular point group: c1
  Basis Set: CC-PVTZ
  Basis Set:

  -Total Gradient:
     Atom            X                  Y                   Z
    ------   -----------------  -----------------  -----------------
       1        0.000040505301     0.000027175746     0.000007171526
       2       -0.000020943530    -0.000046100554     0.000072254069
       3       -0.000021219982     0.000042001306    -0.000171944322
       4       -0.000026774343    -0.000067548755     0.002223157143
       5        0.000006215164    -0.000020597576     0.000070105081
       6       -0.001134904326     0.001611716009     0.000721932928
       7        0.000165677546    -0.000210138578    -0.001909076653
       8       -0.000006463093     0.000002976000    -0.000023050961
       9        0.000049266906    -0.000015087492    -0.000011214808
      10        0.000940982696    -0.001332376627    -0.000983121861
      11        0.000017922257     0.000000320572     0.000000243695
      12        0.000000456537    -0.000002479027     0.000007516157
      13       -0.000005882101     0.000005849606    -0.000003804531
      14       -0.000003658634     0.000003296329    -0.000002076374
      15       -0.000001931328    -0.000003834006    -0.000003785901
      16        0.000000425815     0.000002736933     0.000001246825
      17        0.000000325117     0.000002090119     0.000004447987

  **** Optimization is complete! (in 8 steps) ****
    Final optimized geometry and variables:
    Molecular point group: c1

    Geometry (in Angstrom), charge = 0, multiplicity = 1:

    H           -2.945715847033    -0.869370686049    -1.339585971591
    O           -2.495139075619    -0.926249978189    -0.510506339846
    C           -1.383721868933    -0.199540065363    -0.585682011066
    C           -0.601682034686    -0.259035385502     0.702228302797
    O           -1.086496250599     0.391111639290    -1.565868677434
    C            0.661814900862     0.610147498038     0.720091722205
    H           -0.363364759142    -1.308028539189     0.844573939232
    H           -1.289902792061    -0.000968200212     1.497366428193
    C            1.952531697933    -0.207612259546     0.711703310175
    H            0.656898136390     1.257422269330    -0.145969882252
    H            0.648835047140     1.246638934766     1.597654615083
    C            3.203672696554     0.662690940844     0.714581934341
    H            1.960626302051    -0.848313193787    -0.165789101135
    H            1.969469134259    -0.867996458078     1.574802914022
    H            3.231831945989     1.307551564676    -0.156948093379
    H            4.102347858087     0.056969631583     0.708121833803
    H            3.237831850289     1.295842160863     1.595112067741

  Mulliken Charges: (a.u.)
   Center  Symbol    Alpha    Beta     Spin     Total
       1     H     0.38257  0.38257  0.00000  0.23486
       2     O     4.15968  4.15968  0.00000 -0.31936
       3     C     2.80009  2.80009  0.00000  0.39981
       4     C     3.12021  3.12021  0.00000 -0.24041
       5     O     4.19155  4.19155  0.00000 -0.38310
       6     C     3.09543  3.09543  0.00000 -0.19086
       7     H     0.43738  0.43738  0.00000  0.12525
       8     H     0.42929  0.42929  0.00000  0.14142
       9     C     3.08517  3.08517  0.00000 -0.17035
      10     H     0.43743  0.43743  0.00000  0.12513
      11     H     0.44800  0.44800  0.00000  0.10400
      12     C     3.15072  3.15072  0.00000 -0.30144
      13     H     0.45178  0.45178  0.00000  0.09644
      14     H     0.45497  0.45497  0.00000  0.09006
      15     H     0.45186  0.45186  0.00000  0.09629
      16     H     0.44815  0.44815  0.00000  0.10369
      17     H     0.45572  0.45572  0.00000  0.08857

   Total alpha = 28.00000, Total beta = 28.00000, Total charge = -0.00000

*** Psi4 exiting successfully. Buy a developer a beer!
