  ==> Input File <==

--------------------------------------------------------------------------
set {
	reference rhf
	basis cc-pvtz
}

set_num_threads( 4 )
memory 2 gb

molecule MOL {
0 1

O	 0.796860	 1.214173	 0.428708
C	 0.576499	 0.134701	 -0.003900
C	 -0.765656	 -0.550508	 -0.002152
O	 1.506308	 -0.631411	 -0.550251
C	 -1.945526	 0.411052	 0.000603
H	 -0.794329	 -1.203792	 -0.868145
H	 -0.791555	 -1.205429	 0.862701
C	 -3.282915	 -0.321280	 0.002596
H	 -1.880300	 1.059126	 -0.864925
H	 -1.877207	 1.057892	 0.866807
H	 -3.388495	 -0.952755	 -0.873419
H	 -4.107811	 0.380864	 0.004116
H	 -3.385717	 -0.953283	 0.878571
C	 2.819725	 -0.112811	 -0.613491
H	 2.843393	 0.794399	 -1.198695
H	 3.417846	 -0.875643	 -1.084692
H	 3.194930	 0.096604	 0.377169

	symmetry c1
}
set optking {
	frozen_dihedral = ("
		1 2 3 6
	")
}

ee = optimize('scf')
oeprop('DIPOLE', 'QUADRUPOLE', 'MULLIKEN_CHARGES')
f=open( 'psi4out.xyz', 'w' )
f.write( "17  " )
f.write( str(ee) + "\n" )
f.write( MOL.save_string_xyz() )
f.close()
--------------------------------------------------------------------------

    Molecular point group: c1
  Charge       = 0
  Multiplicity = 1
  Basis Set: CC-PVTZ
  Basis Set:
  @DF-RHF Final Energy:  -345.03472578294429
    Total Energy =                       -345.0347257829441787
    Molecular point group: c1
  Basis Set: CC-PVTZ
  Basis Set:
  Basis Set: CC-PVTZ
  Basis Set:
  @DF-RHF Final Energy:  -345.03426377044303
    Total Energy =                       -345.0342637704435447
  Basis Set: CC-PVTZ
  Basis Set:
  Basis Set: CC-PVTZ
  Basis Set:
  @DF-RHF Final Energy:  -345.03481447725625
    Total Energy =                       -345.0348144772557362
  Basis Set: CC-PVTZ
  Basis Set:
  Basis Set: CC-PVTZ
  Basis Set:
  @DF-RHF Final Energy:  -345.03495648356488
    Total Energy =                       -345.0349564835644287
  Basis Set: CC-PVTZ
  Basis Set:
  Charge       = 0
  Multiplicity = 1
  Basis Set: CC-PVTZ
  Basis Set:

    Orbital Energies (a.u.)
    -----------------------

    Doubly Occupied:

       1A    -20.597648     2A    -20.533499     3A    -11.364964
       4A    -11.278799     5A    -11.234075     6A    -11.221421
       7A    -11.213180     8A     -1.472856     9A     -1.365849
      10A     -1.081902    11A     -1.002440    12A     -0.940854
      13A     -0.828252    14A     -0.770484    15A     -0.702269
      16A     -0.686048    17A     -0.676141    18A     -0.637794
      19A     -0.596582    20A     -0.578605    21A     -0.566903
      22A     -0.530527    23A     -0.523894    24A     -0.501196
      25A     -0.487370    26A     -0.479263    27A     -0.460688
      28A     -0.440337

  @DF-RHF Final Energy:  -345.03495677922388

   => Energetics <=

    Nuclear Repulsion Energy =            313.0035627702945931
    One-Electron Energy =               -1090.5293579247045272
    Two-Electron Energy =                 432.4908383751857173
    DFT Exchange-Correlation Energy =       0.0000000000000000
    Empirical Dispersion Energy =           0.0000000000000000
    PCM Polarization Energy =               0.0000000000000000
    EFP Energy =                            0.0000000000000000
    Total Energy =                       -345.0349567792242169
    Molecular point group: c1
  Basis Set: CC-PVTZ
  Basis Set:

  -Total Gradient:
     Atom            X                  Y                   Z
    ------   -----------------  -----------------  -----------------
       1        0.000221613390    -0.000481158081     0.000834886877
       2       -0.000263478208     0.000538912134    -0.001114184272
       3       -0.000350488770     0.000680558893    -0.000216630435
       4        0.000025181894    -0.000002809258    -0.000079582342
       5        0.000005323729     0.000005580214     0.000026838926
       6        0.000377933878    -0.000701269570     0.000505491102
       7       -0.000009452034    -0.000003175890    -0.000001536111
       8        0.000001794046    -0.000005812746    -0.000017460214
       9        0.000006064164    -0.000013671767     0.000003637913
      10       -0.000001233854     0.000005344134     0.000002892995
      11       -0.000006013524    -0.000005339825     0.000000503556
      12        0.000003493192     0.000001558443    -0.000004549565
      13        0.000004205484     0.000003972953     0.000000860884
      14       -0.000022986534    -0.000048921065     0.000096550746
      15       -0.000030377923     0.000004384977    -0.000012256206
      16        0.000006702111     0.000008732789    -0.000012644998
      17        0.000031718959     0.000013113667    -0.000012818855

  **** Optimization is complete! (in 5 steps) ****
    Final optimized geometry and variables:
    Molecular point group: c1

    Geometry (in Angstrom), charge = 0, multiplicity = 1:

    O            0.791881345445     1.195755646182     0.506725647183
    C            0.583330120472     0.116210405552     0.067544485250
    C           -0.756829948136    -0.574276897895     0.065749210192
    O            1.528907605125    -0.648885987081    -0.451223781154
    C           -1.937672251255     0.386944882285     0.116643117614
    H           -0.807049815983    -1.230278512955    -0.793875257215
    H           -0.760899686592    -1.222704978740     0.938461740441
    C           -3.273758170820    -0.345706344467     0.165472706148
    H           -1.907975187854     1.035793652349    -0.752216628690
    H           -1.834196394961     1.030912757108     0.980053112360
    H           -3.410406176861    -0.978606621295    -0.705153083384
    H           -4.098295124164     0.356294356965     0.195757404193
    H           -3.344162760392    -0.976077184363     1.045820253168
    C            2.847437785149    -0.139483904692    -0.450669863899
    H            2.902117042626     0.775706499181    -1.021109115919
    H            3.460322775175    -0.899861670832    -0.906792871508
    H            3.181428590465     0.053513361526     0.558038439585

  Mulliken Charges: (a.u.)
   Center  Symbol    Alpha    Beta     Spin     Total
       1     O     4.19878  4.19878  0.00000 -0.39755
       2     C     2.81105  2.81105  0.00000  0.37790
       3     C     3.09043  3.09043  0.00000 -0.18086
       4     O     4.14531  4.14531  0.00000 -0.29062
       5     C     3.08085  3.08085  0.00000 -0.16170
       6     H     0.43866  0.43866  0.00000  0.12267
       7     H     0.44478  0.44478  0.00000  0.11045
       8     C     3.15115  3.15115  0.00000 -0.30230
       9     H     0.45085  0.45085  0.00000  0.09830
      10     H     0.44164  0.44164  0.00000  0.11672
      11     H     0.45587  0.45587  0.00000  0.08826
      12     H     0.44571  0.44571  0.00000  0.10857
      13     H     0.45511  0.45511  0.00000  0.08977
      14     C     3.03603  3.03603  0.00000 -0.07206
      15     H     0.45421  0.45421  0.00000  0.09158
      16     H     0.44511  0.44511  0.00000  0.10978
      17     H     0.45445  0.45445  0.00000  0.09110

   Total alpha = 28.00000, Total beta = 28.00000, Total charge = -0.00000
