  ==> Input File <==

--------------------------------------------------------------------------
set {
	reference rhf
	basis 6-31G*
}

set_num_threads( 4 )
memory 2 gb

molecule MOL {
0 1

O	 3.225979	 0.970355	 -0.599647
C	 2.701189	 0.057885	 -0.047330
C	 1.245376	 -0.013843	 0.345420
O	 3.347903	 -1.046386	 0.304773
C	 0.455112	 1.231400	 -0.050772
H	 0.838542	 -0.913825	 -0.103701
H	 1.208210	 -0.175333	 1.419774
C	 -0.998893	 1.219485	 0.433193
H	 0.482531	 1.345121	 -1.130325
H	 0.957290	 2.103070	 0.354729
C	 -1.883438	 0.145884	 -0.207175
H	 -1.431207	 2.195402	 0.224832
H	 -1.019646	 1.105716	 1.516076
C	 -3.347647	 0.245583	 0.225435
H	 -1.822183	 0.231698	 -1.291012
H	 -1.510341	 -0.844814	 0.042401
C	 -4.239992	 -0.825570	 -0.404234
H	 -3.732888	 1.230466	 -0.033079
H	 -3.408585	 0.170602	 1.310038
C	 -5.527821	 -0.256505	 -0.998678
H	 -3.683764	 -1.346298	 -1.180827
H	 -4.489009	 -1.573454	 0.345727
H	 -6.138759	 -1.039543	 -1.437098
H	 -5.312650	 0.469944	 -1.777246
H	 -6.123719	 0.241541	 -0.238987
C	 4.728119	 -1.109107	 -0.004993
H	 4.882018	 -1.033965	 -1.071845
H	 5.068212	 -2.067527	 0.355250
H	 5.265056	 -0.311663	 0.488280

	symmetry c1
}
set optking {
	frozen_dihedral = ("
		21 17 14 11
	")
}

ee = optimize('scf')
oeprop('DIPOLE', 'QUADRUPOLE', 'MULLIKEN_CHARGES')
f=open( 'psi4out.xyz', 'w' )
f.write( "29  " )
f.write( str(ee) + "\n" )
f.write( MOL.save_string_xyz() )
f.close()
--------------------------------------------------------------------------

    Molecular point group: c1
  Charge       = 0
  Multiplicity = 1
  Basis Set: 6-31G*
  Basis Set:
  @DF-RHF Final Energy:  -501.03883719927683
    Total Energy =                       -501.0388371992763723
    Molecular point group: c1
  Basis Set: 6-31G*
  Basis Set:
  Basis Set: 6-31G*
  Basis Set:
  @DF-RHF Final Energy:  -501.03908316076036
    Total Energy =                       -501.0390831607594464
  Basis Set: 6-31G*
  Basis Set:
  Basis Set: 6-31G*
  Basis Set:
  @DF-RHF Final Energy:  -501.03915363672309
    Total Energy =                       -501.0391536367238814
  Basis Set: 6-31G*
  Basis Set:
  Basis Set: 6-31G*
  Basis Set:
  @DF-RHF Final Energy:  -501.03914816343092
    Total Energy =                       -501.0391481634306956
  Basis Set: 6-31G*
  Basis Set:
  Basis Set: 6-31G*
  Basis Set:
  @DF-RHF Final Energy:  -501.03915563913927
    Total Energy =                       -501.0391556391390395
  Basis Set: 6-31G*
  Basis Set:
  Charge       = 0
  Multiplicity = 1
  Basis Set: 6-31G*
  Basis Set:

    Orbital Energies (a.u.)
    -----------------------

    Doubly Occupied:

       1A    -20.603356     2A    -20.545178     3A    -11.371988
       4A    -11.280652     5A    -11.234714     6A    -11.219112
       7A    -11.217457     8A    -11.216286     9A    -11.215488
      10A    -11.214179    11A    -11.209363    12A     -1.469052
      13A     -1.362493    14A     -1.097425    15A     -1.065086
      16A     -1.019010    17A     -0.977179    18A     -0.928298
      19A     -0.861931    20A     -0.800468    21A     -0.790262
      22A     -0.763917    23A     -0.700603    24A     -0.682302
      25A     -0.672123    26A     -0.643472    27A     -0.631065
      28A     -0.602877    29A     -0.598814    30A     -0.581537
      31A     -0.565257    32A     -0.552499    33A     -0.531447
      34A     -0.524178    35A     -0.518287    36A     -0.515389
      37A     -0.495305    38A     -0.477597    39A     -0.471893
      40A     -0.459511    41A     -0.455823    42A     -0.455780
      43A     -0.440347    44A     -0.434907

  @DF-RHF Final Energy:  -501.03915526092703

   => Energetics <=

    Nuclear Repulsion Energy =            610.6339128910163936
    One-Electron Energy =               -1892.3983116074882673
    Two-Electron Energy =                 780.7252434555456375
    DFT Exchange-Correlation Energy =       0.0000000000000000
    Empirical Dispersion Energy =           0.0000000000000000
    PCM Polarization Energy =               0.0000000000000000
    EFP Energy =                            0.0000000000000000
    Total Energy =                       -501.0391552609263499
    Molecular point group: c1
  Basis Set: 6-31G*
  Basis Set:

  -Total Gradient:
     Atom            X                  Y                   Z
    ------   -----------------  -----------------  -----------------
       1        0.000027884763     0.000052186246     0.000118008965
       2       -0.000077739026    -0.000150888022    -0.000325136142
       3        0.000018387828     0.000043435029     0.000094259407
       4        0.000023715481     0.000041722015     0.000091384483
       5        0.000013440856     0.000014791885     0.000024000209
       6        0.000012801546    -0.000004630708    -0.000006241014
       7       -0.000021692945     0.000000696693     0.000006174460
       8        0.000003011393     0.000006589501     0.000003905156
       9        0.000002124901     0.000007610487     0.000002241529
      10        0.000008852789    -0.000005487415     0.000003285438
      11       -0.000389616191     0.001257538178    -0.001609140447
      12       -0.000003494159    -0.000010522889    -0.000008160173
      13       -0.000002595850     0.000013791522     0.000000808961
      14        0.000743306895    -0.002204478908     0.002664338038
      15       -0.000014100724     0.000010302056     0.000011193301
      16        0.000003334755    -0.000005874405    -0.000005917017
      17       -0.001269188100     0.002841847831    -0.003009958148
      18        0.000006471970     0.000005475503    -0.000014217004
      19       -0.000001613272    -0.000011863065    -0.000004006752
      20        0.000029278959    -0.000019883623     0.000001853132
      21        0.000891837472    -0.001871452863     0.001929010840
      22       -0.000017977418    -0.000003280938     0.000018720114
      23       -0.000002873168     0.000002937993    -0.000013313911
      24        0.000004904431     0.000000325941     0.000016810449
      25        0.000010414141    -0.000012990853     0.000005433735
      26        0.000000418648     0.000000899960     0.000001861331
      27       -0.000003434795     0.000000777090     0.000000974510
      28        0.000000470836     0.000000856205     0.000001984969
      29        0.000003667981    -0.000000430446    -0.000000158420

  **** Optimization is complete! (in 6 steps) ****
    Final optimized geometry and variables:
    Molecular point group: c1

    Geometry (in Angstrom), charge = 0, multiplicity = 1:

    O            3.215606017875     0.929171271711    -0.490728170052
    C            2.687750285095     0.012864701009     0.052249420641
    C            1.231410864470    -0.058502624646     0.443072850621
    O            3.331574539611    -1.095595863206     0.396388317841
    C            0.444792832417     1.192333284709     0.057352054695
    H            0.822554828661    -0.953337921305    -0.014410615395
    H            1.192794521797    -0.229507108650     1.515898201157
    C           -1.010122514182     1.179059884998     0.538758932298
    H            0.474310544586     1.316174991150    -1.021028622760
    H            0.948350444730     2.058942188860     0.471859086120
    C           -1.894991897375     0.112046563913    -0.110800408475
    H           -1.440676570128     2.157276484049     0.337018221422
    H           -1.032955416717     1.057383352345     1.620767620824
    C           -3.362569126478     0.215936274939     0.312068403861
    H           -1.831944134792     0.202525193076    -1.194073575068
    H           -1.525957802720    -0.881641836745     0.134382746372
    C           -4.264241200299    -0.867976067138    -0.316767352299
    H           -3.729340665997     1.200682768905     0.029351552471
    H           -3.432197164948     0.173829595691     1.396101265341
    C           -5.565992608067    -0.320139020691    -0.899314064817
    H           -3.713669942469    -1.402092230974    -1.087306876784
    H           -4.502156446919    -1.619231815001     0.432225348625
    H           -6.179134416480    -1.115244485474    -1.312490702684
    H           -5.368242578360     0.394376783981    -1.693442879407
    H           -6.151135008090     0.187857657985    -0.137814007593
    C            4.712207740901    -1.158624744009     0.088557083254
    H            4.868165580618    -1.075087788594    -0.977376320420
    H            5.049676331168    -2.120653260671     0.441559454867
    H            5.249892544895    -0.366349135899     0.589288731932

  Mulliken Charges: (a.u.)
   Center  Symbol    Alpha    Beta     Spin     Total
       1     O     4.28597  4.28597  0.00000 -0.57194
       2     C     2.60485  2.60485  0.00000  0.79029
       3     C     3.20969  3.20969  0.00000 -0.41938
       4     O     4.30746  4.30746  0.00000 -0.61491
       5     C     3.15368  3.15368  0.00000 -0.30735
       6     H     0.39882  0.39882  0.00000  0.20237
       7     H     0.40122  0.40122  0.00000  0.19757
       8     C     3.15736  3.15736  0.00000 -0.31473
       9     H     0.41312  0.41312  0.00000  0.17376
      10     H     0.40876  0.40876  0.00000  0.18248
      11     C     3.15697  3.15697  0.00000 -0.31393
      12     H     0.41822  0.41822  0.00000  0.16356
      13     H     0.42382  0.42382  0.00000  0.15237
      14     C     3.15387  3.15387  0.00000 -0.30773
      15     H     0.42229  0.42229  0.00000  0.15543
      16     H     0.42325  0.42325  0.00000  0.15349
      17     C     3.15489  3.15489  0.00000 -0.30979
      18     H     0.42124  0.42124  0.00000  0.15752
      19     H     0.42098  0.42098  0.00000  0.15803
      20     C     3.23961  3.23961  0.00000 -0.47923
      21     H     0.42060  0.42060  0.00000  0.15880
      22     H     0.42101  0.42101  0.00000  0.15798
      23     H     0.42032  0.42032  0.00000  0.15937
      24     H     0.42163  0.42163  0.00000  0.15674
      25     H     0.42125  0.42125  0.00000  0.15750
      26     C     3.09240  3.09240  0.00000 -0.18481
      27     H     0.40910  0.40910  0.00000  0.18180
      28     H     0.40852  0.40852  0.00000  0.18297
      29     H     0.40912  0.40912  0.00000  0.18177

   Total alpha = 44.00000, Total beta = 44.00000, Total charge =  0.00000
