                              Psi4 1.0.54 Driver

  ==> Input File <==

--------------------------------------------------------------------------
set {
	reference rhf
	basis cc-pvtz
}

set_num_threads( 4 )
memory 2 gb

molecule MOL {
0 1

H	 -2.244850	 -0.101423	 2.541469
C	 -1.967753	 -1.151730	 2.595845
O	 -0.778949	 -1.399331	 1.922807
H	 -1.823025	 -1.419794	 3.632225
H	 -2.786723	 -1.744686	 2.192639
C	 -0.817485	 -1.108296	 0.564334
C	 0.548544	 -1.314013	 -0.040638
H	 -1.529274	 -1.760723	 0.058700
H	 -1.130139	 -0.079410	 0.399803
O	 1.401606	 -0.295166	 0.366636
H	 0.933272	 -2.284067	 0.266626
H	 0.456626	 -1.317653	 -1.126691
C	 2.714315	 -0.441627	 -0.061017
H	 2.765292	 -0.641548	 -1.128869
H	 3.305661	 0.447341	 0.150952
H	 3.143725	 -1.278506	 0.470147

	symmetry c1
}
set optking {
	frozen_dihedral = ("
		7 10 13 14
	")
}

ee,wfn = optimize('scf', return_wfn=True)
oeprop( wfn, 'DIPOLE', 'QUADRUPOLE', 'MULLIKEN_CHARGES')
f=open( 'psi4out.xyz', 'w' )
f.write( "16  " )
f.write( str(ee) + "\n" )
f.write( MOL.save_string_xyz() )
f.close()
--------------------------------------------------------------------------

    Molecular point group: c1
  Charge       = 0
  Multiplicity = 1
  Basis Set: CC-PVTZ
  Basis Set:
  @DF-RHF Final Energy:  -307.09672223102626
    Total Energy =                       -307.0967222310261491
    Molecular point group: c1
  Basis Set: CC-PVTZ
  Basis Set:
  Basis Set: CC-PVTZ
  Basis Set:
  @DF-RHF Final Energy:  -307.09749376878852
    Total Energy =                       -307.0974937687884108
  Basis Set: CC-PVTZ
  Basis Set:
  Basis Set: CC-PVTZ
  Basis Set:
  @DF-RHF Final Energy:  -307.09770239110298
    Total Energy =                       -307.0977023911029846
  Basis Set: CC-PVTZ
  Basis Set:
  Charge       = 0
  Multiplicity = 1
  Basis Set: CC-PVTZ
  Basis Set:

    Orbital Energies (a.u.)
    -----------------------

    Doubly Occupied:

       1A    -20.547853     2A    -20.547558     3A    -11.267600
       4A    -11.266915     5A    -11.261628     6A    -11.261598
       7A     -1.391691     8A     -1.374475     9A     -1.032082
      10A     -0.937178    11A     -0.892252    12A     -0.824499
      13A     -0.686397    14A     -0.682812    15A     -0.659656
      16A     -0.637607    17A     -0.632398    18A     -0.598741
      19A     -0.550316    20A     -0.536805    21A     -0.509936
      22A     -0.480086    23A     -0.464873    24A     -0.422883
      25A     -0.413534

  @DF-RHF Final Energy:  -307.09770342954295

   => Energetics <=

    Nuclear Repulsion Energy =            258.9184896285401578
    One-Electron Energy =                -932.2696370600347109
    Two-Electron Energy =                 366.2534440019517206
    DFT Exchange-Correlation Energy =       0.0000000000000000
    Empirical Dispersion Energy =           0.0000000000000000
    PCM Polarization Energy =               0.0000000000000000
    EFP Energy =                            0.0000000000000000
    Total Energy =                       -307.0977034295428894
    Molecular point group: c1
  Basis Set: CC-PVTZ
  Basis Set:

  -Total Gradient:
     Atom            X                  Y                   Z
    ------   -----------------  -----------------  -----------------
       1        0.000000776975    -0.000000913499    -0.000002165061
       2        0.000004768931    -0.000001023575     0.000016531353
       3       -0.000019768743    -0.000021494689     0.000016454452
       4       -0.000006318458    -0.000000880995     0.000003923342
       5        0.000002289806    -0.000000899590    -0.000001883175
       6        0.000085417749     0.000108163793     0.000053101576
       7       -0.000232811578     0.000516685690    -0.001063072421
       8        0.000068096329     0.000000499198    -0.000018228597
       9       -0.000028271326     0.000020636471    -0.000014511696
      10        0.000370840577    -0.001255781273     0.001434926862
      11        0.000025338754     0.000022857061     0.000016746311
      12       -0.000000942452    -0.000001451447    -0.000009928556
      13       -0.000091152756     0.002009652067    -0.000680960239
      14       -0.000095741632    -0.001414913650     0.000220230215
      15       -0.000050765787     0.000016657862     0.000013002016
      16       -0.000031756391     0.000002206574     0.000015833619

  **** Optimization is complete! (in 4 steps) ****
    Final optimized geometry and variables:
    Molecular point group: c1

    Geometry (in Angstrom), charge = 0, multiplicity = 1:

    H           -2.421753573172     0.792290267722     1.684578809924
    C           -2.137278858334    -0.257079721506     1.711870425130
    O           -0.952985839401    -0.480780775651     1.022663673485
    H           -1.981495930390    -0.548374520260     2.740345047912
    H           -2.955891321715    -0.846004270798     1.302071715617
    C           -1.005589353412    -0.158228136355    -0.328199377335
    C            0.356021195235    -0.340565133389    -0.950083371475
    H           -1.717383281638    -0.803565563258    -0.842834574068
    H           -1.326449184130     0.872084093726    -0.465915447238
    O            1.204552064121     0.676271270145    -0.528475840755
    H            0.749834492209    -1.314639602335    -0.667574038772
    H            0.255019275230    -0.320320068342    -2.034913799107
    C            2.516612952621     0.546668154189    -0.964678389078
    H            2.566300599291     0.366377040042    -2.036735664074
    H            3.036195796797     1.465909694180    -0.737266999519
    H            3.020715287339    -0.275366927574    -0.461268447060

  Mulliken Charges: (a.u.)
   Center  Symbol    Alpha    Beta     Spin     Total
       1     H     0.47016  0.47016  0.00000  0.05968
       2     C     3.03198  3.03198  0.00000 -0.06397
       3     O     4.17055  4.17055  0.00000 -0.34110
       4     H     0.44634  0.44634  0.00000  0.10731
       5     H     0.47367  0.47367  0.00000  0.05265
       6     C     2.96073  2.96073  0.00000  0.07854
       7     C     2.96048  2.96048  0.00000  0.07905
       8     H     0.47608  0.47608  0.00000  0.04783
       9     H     0.47077  0.47077  0.00000  0.05847
      10     O     4.17086  4.17086  0.00000 -0.34171
      11     H     0.47134  0.47134  0.00000  0.05732
      12     H     0.47537  0.47537  0.00000  0.04925
      13     C     3.03175  3.03175  0.00000 -0.06349
      14     H     0.47502  0.47502  0.00000  0.04997
      15     H     0.44703  0.44703  0.00000  0.10594
      16     H     0.46787  0.46787  0.00000  0.06426

   Total alpha = 25.00000, Total beta = 25.00000, Total charge =  0.00000

*** Psi4 exiting successfully. Buy a developer a beer!
