                              Psi4 1.0.54 Driver

  ==> Input File <==

--------------------------------------------------------------------------
set {
	reference rhf
	basis cc-pvtz
}

set_num_threads( 4 )
memory 2 gb

molecule MOL {
0 1

O	 1.098106	 1.491817	 -0.410348
C	 0.780497	 0.665817	 -1.196420
C	 -0.503367	 -0.123032	 -1.166868
O	 1.532733	 0.321102	 -2.228742
C	 -1.413045	 0.229353	 0.001137
H	 -1.002062	 0.040322	 -2.116658
H	 -0.233791	 -1.174016	 -1.151941
C	 -2.702562	 -0.586401	 0.000228
H	 -1.647714	 1.287286	 -0.034192
H	 -0.879063	 0.071226	 0.931408
C	 -3.953810	 0.284959	 -0.000782
H	 -2.717793	 -1.238567	 -0.869075
H	 -2.719108	 -1.238472	 0.869576
H	 -3.983727	 0.924403	 -0.876454
H	 -4.852989	 -0.320147	 -0.001515
H	 -3.985140	 0.924399	 0.874841
C	 2.771255	 0.984910	 -2.379542
H	 2.622066	 2.047551	 -2.501052
H	 3.225843	 0.569415	 -3.264179
H	 3.402749	 0.813743	 -1.520391

	symmetry c1
}
set optking {
	frozen_dihedral = ("
		9 5 8 12
	")
}

ee,wfn = optimize('scf', return_wfn=True)
oeprop( wfn, 'DIPOLE', 'QUADRUPOLE', 'MULLIKEN_CHARGES')
f=open( 'psi4out.xyz', 'w' )
f.write( "20  " )
f.write( str(ee) + "\n" )
f.write( MOL.save_string_xyz() )
f.close()
--------------------------------------------------------------------------

    Molecular point group: c1
  Charge       = 0
  Multiplicity = 1
  Basis Set: CC-PVTZ
  Basis Set:
  @DF-RHF Final Energy:  -384.07722680117791
    Total Energy =                       -384.0772268011785400
    Molecular point group: c1
  Basis Set: CC-PVTZ
  Basis Set:
  Basis Set: CC-PVTZ
  Basis Set:
  @DF-RHF Final Energy:  -384.07748422367439
    Total Energy =                       -384.0774842236747872
  Basis Set: CC-PVTZ
  Basis Set:
  Basis Set: CC-PVTZ
  Basis Set:
  @DF-RHF Final Energy:  -384.07754619737381
    Total Energy =                       -384.0775461973736356
  Basis Set: CC-PVTZ
  Basis Set:
  Basis Set: CC-PVTZ
  Basis Set:
  @DF-RHF Final Energy:  -384.07733260624525
    Total Energy =                       -384.0773326062452497
  Basis Set: CC-PVTZ
  Basis Set:
  Charge       = 0
  Multiplicity = 1
  Basis Set: CC-PVTZ
  Basis Set:

    Orbital Energies (a.u.)
    -----------------------

    Doubly Occupied:

       1A    -20.596403     2A    -20.534319     3A    -11.364531
       4A    -11.278559     5A    -11.234552     6A    -11.218129
       7A    -11.217033     8A    -11.209792     9A     -1.472320
      10A     -1.365903    11A     -1.087582    12A     -1.024648
      13A     -0.969888    14A     -0.887053    15A     -0.805211
      16A     -0.769510    17A     -0.701634    18A     -0.685937
      19A     -0.676341    20A     -0.636558    21A     -0.603881
      22A     -0.597759    23A     -0.576901    24A     -0.544932
      25A     -0.529416    26A     -0.523811    27A     -0.512157
      28A     -0.476645    29A     -0.474316    30A     -0.466068
      31A     -0.457897    32A     -0.439418

  @DF-RHF Final Energy:  -384.07755349893444

   => Energetics <=

    Nuclear Repulsion Energy =            382.2073764387733945
    One-Electron Energy =               -1280.6916585990084059
    Two-Electron Energy =                 514.4067286613006900
    DFT Exchange-Correlation Energy =       0.0000000000000000
    Empirical Dispersion Energy =           0.0000000000000000
    PCM Polarization Energy =               0.0000000000000000
    EFP Energy =                            0.0000000000000000
    Total Energy =                       -384.0775534989343214
    Molecular point group: c1
  Basis Set: CC-PVTZ
  Basis Set:

  -Total Gradient:
     Atom            X                  Y                   Z
    ------   -----------------  -----------------  -----------------
       1       -0.000000328947     0.000027094899    -0.000023093188
       2       -0.000020662451    -0.000100416159     0.000061975670
       3        0.000116775216     0.000015817437    -0.000121518201
       4       -0.000037488150     0.000022460964     0.000002292668
       5        0.000063939134    -0.000195026371    -0.001144371567
       6        0.000001630729     0.000000410018    -0.000028054780
       7        0.000031403529    -0.000009445361    -0.000018667828
       8       -0.000512210240     0.000878182428    -0.000451518577
       9        0.000022212875     0.000042108876     0.001159118740
      10        0.000015778351     0.000045458548    -0.000013492420
      11       -0.000116314417     0.000088523787     0.000006421563
      12        0.000483401654    -0.000851934617     0.000629632386
      13       -0.000007426614    -0.000006705026    -0.000051624444
      14       -0.000027285353     0.000026615739    -0.000027039229
      15        0.000030640215     0.000004696737    -0.000003511892
      16       -0.000029541619     0.000016290372     0.000016314955
      17       -0.000004505671     0.000004663065     0.000009726109
      18       -0.000010327138    -0.000000888626    -0.000008236033
      19        0.000003866666     0.000005853242     0.000004694829
      20       -0.000003557773    -0.000013759949     0.000000951238

  **** Optimization is complete! (in 5 steps) ****
    Final optimized geometry and variables:
    Molecular point group: c1

    Geometry (in Angstrom), charge = 0, multiplicity = 1:

    O            1.368809881579     1.072472747692     0.523011735818
    C            1.054624021494     0.243709940728    -0.261598939209
    C           -0.229546956404    -0.544802396098    -0.235448471740
    O            1.811185182087    -0.104243085503    -1.289704807877
    C           -1.144911738723    -0.190035044173     0.928727019329
    H           -0.725248113457    -0.383378304500    -1.187269495002
    H            0.039133580073    -1.595933740235    -0.217186788111
    C           -2.451745814699    -1.010102439480     0.935497425485
    H           -1.368979562382     0.868962595613     0.893322230011
    H           -0.604633961948    -0.337624804219     1.855047912061
    C           -3.709928967635    -0.147108380687     0.954867220612
    H           -2.483727921978    -1.666490636599     0.071334591921
    H           -2.462625158830    -1.667323000709     1.798115882266
    H           -3.756980769702     0.494611090729     0.081062465936
    H           -4.605286103321    -0.758114143963     0.966891994063
    H           -3.731011557639     0.490692555268     1.831960074796
    C            3.050101482237     0.559394650017    -1.437519125447
    H            2.901099012925     1.621593228113    -1.563102838779
    H            3.508560160978     0.141225565718    -2.318892485944
    H            3.678057956403     0.391137950103    -0.575197291967

  Mulliken Charges: (a.u.)
   Center  Symbol    Alpha    Beta     Spin     Total
       1     O     4.19667  4.19667  0.00000 -0.39335
       2     C     2.80828  2.80828  0.00000  0.38345
       3     C     3.09967  3.09967  0.00000 -0.19934
       4     O     4.14695  4.14695  0.00000 -0.29390
       5     C     3.08910  3.08910  0.00000 -0.17820
       6     H     0.43956  0.43956  0.00000  0.12088
       7     H     0.43882  0.43882  0.00000  0.12235
       8     C     3.09041  3.09041  0.00000 -0.18081
       9     H     0.44641  0.44641  0.00000  0.10718
      10     H     0.44286  0.44286  0.00000  0.11428
      11     C     3.14640  3.14640  0.00000 -0.29281
      12     H     0.45607  0.45607  0.00000  0.08787
      13     H     0.44934  0.44934  0.00000  0.10132
      14     H     0.45567  0.45567  0.00000  0.08865
      15     H     0.44961  0.44961  0.00000  0.10078
      16     H     0.45252  0.45252  0.00000  0.09496
      17     C     3.03769  3.03769  0.00000 -0.07537
      18     H     0.45433  0.45433  0.00000  0.09134
      19     H     0.44530  0.44530  0.00000  0.10940
      20     H     0.45434  0.45434  0.00000  0.09133

   Total alpha = 32.00000, Total beta = 32.00000, Total charge = -0.00000

*** Psi4 exiting successfully. Buy a developer a beer!
