                              Psi4 1.0.54 Driver

  ==> Input File <==

--------------------------------------------------------------------------
set {
	reference rhf
	basis cc-pvtz
}

set_num_threads( 4 )
memory 2 gb

molecule MOL {
0 1

H	 -0.080057	 0.136488	 -2.680476
C	 -0.780412	 0.600946	 -1.993873
O	 -0.775228	 0.000056	 -0.739966
H	 -1.776465	 0.476800	 -2.394644
H	 -0.565687	 1.663624	 -1.946521
C	 0.406133	 -0.000384	 0.036994
C	 1.526415	 -0.003194	 -0.997339
C	 0.498772	 1.259027	 0.900673
C	 0.495883	 -1.257378	 0.904465
H	 1.452279	 0.872071	 -1.630204
H	 1.451276	 -0.881020	 -1.626529
H	 2.497919	 -0.002741	 -0.517601
H	 0.368981	 2.144239	 0.289753
H	 1.470064	 1.313479	 1.377660
H	 -0.248448	 1.271586	 1.684297
H	 0.363971	 -2.144195	 0.296316
H	 1.467114	 -1.312636	 1.381470
H	 -0.251246	 -1.265768	 1.688235

	symmetry c1
}
set optking {
	frozen_dihedral = ("
		2 3 6 7
	")
}

ee,wfn = optimize('scf', return_wfn=True)
oeprop( wfn, 'DIPOLE', 'QUADRUPOLE', 'MULLIKEN_CHARGES')
f=open( 'psi4out.xyz', 'w' )
f.write( "18  " )
f.write( str(ee) + "\n" )
f.write( MOL.save_string_xyz() )
f.close()
--------------------------------------------------------------------------

    Molecular point group: c1
  Charge       = 0
  Multiplicity = 1
  Basis Set: CC-PVTZ
  Basis Set:
  @DF-RHF Final Energy:  -271.26330800268147
    Total Energy =                       -271.2633080026814696
    Molecular point group: c1
  Basis Set: CC-PVTZ
  Basis Set:
  Basis Set: CC-PVTZ
  Basis Set:
  @DF-RHF Final Energy:  -271.13871947994653
    Total Energy =                       -271.1387194799461895
  Basis Set: CC-PVTZ
  Basis Set:
  Basis Set: CC-PVTZ
  Basis Set:
  @DF-RHF Final Energy:  -271.23848714971092
    Total Energy =                       -271.2384871497109771
  Basis Set: CC-PVTZ
  Basis Set:
  Basis Set: CC-PVTZ
  Basis Set:
  @DF-RHF Final Energy:  -271.27163683293230
    Total Energy =                       -271.2716368329321313
  Basis Set: CC-PVTZ
  Basis Set:
  @DF-RHF Final Energy:  -271.16958688706279
    Total Energy =                       -271.1695868870624508
  @DF-RHF Final Energy:  -271.26538238035778
    Total Energy =                       -271.2653823803579485
  @DF-RHF Final Energy:  -271.27473493103599
    Total Energy =                       -271.2747349310357095
  @DF-RHF Final Energy:  -271.27478334826600
    Total Energy =                       -271.2747833482658848
  Basis Set: CC-PVTZ
  Basis Set:
  @DF-RHF Final Energy:  -271.27492224255587
    Total Energy =                       -271.2749222425561584
  Basis Set: CC-PVTZ
  Basis Set:
  Basis Set: CC-PVTZ
  Basis Set:
  @DF-RHF Final Energy:  -271.27493192391876
    Total Energy =                       -271.2749319239185866
  Basis Set: CC-PVTZ
  Basis Set:
  Basis Set: CC-PVTZ
  Basis Set:
  @DF-RHF Final Energy:  -271.27493716274739
    Total Energy =                       -271.2749371627472783
  Basis Set: CC-PVTZ
  Basis Set:
  Charge       = 0
  Multiplicity = 1
  Basis Set: CC-PVTZ
  Basis Set:

    Orbital Energies (a.u.)
    -----------------------

    Doubly Occupied:

       1A    -20.539014     2A    -11.280402     3A    -11.259129
       4A    -11.210595     5A    -11.203577     6A    -11.202253
       7A     -1.371832     8A     -1.075043     9A     -0.950665
      10A     -0.936908    11A     -0.912826    12A     -0.752819
      13A     -0.657568    14A     -0.647749    15A     -0.639539
      16A     -0.587719    17A     -0.575807    18A     -0.551927
      19A     -0.537232    20A     -0.526692    21A     -0.515464
      22A     -0.491417    23A     -0.485886    24A     -0.443263
      25A     -0.402201

  @DF-RHF Final Energy:  -271.27493694598439

   => Energetics <=

    Nuclear Repulsion Energy =            272.4925351905243929
    One-Electron Energy =                -908.0198848588067904
    Two-Electron Energy =                 364.2524127222977768
    DFT Exchange-Correlation Energy =       0.0000000000000000
    Empirical Dispersion Energy =           0.0000000000000000
    PCM Polarization Energy =               0.0000000000000000
    EFP Energy =                            0.0000000000000000
    Total Energy =                       -271.2749369459845639
    Molecular point group: c1
  Basis Set: CC-PVTZ
  Basis Set:

  -Total Gradient:
     Atom            X                  Y                   Z
    ------   -----------------  -----------------  -----------------
       1        0.000017530301    -0.000007112357     0.000006202946
       2        0.002115169394    -0.002287973482     0.000617582893
       3       -0.003414512965     0.004454254050    -0.001375960239
       4       -0.000007698785    -0.000007426034    -0.000005921565
       5       -0.000005564658     0.000005444360     0.000001261930
       6        0.001894641968    -0.004581139982     0.001835575753
       7       -0.000598862253     0.002410761962    -0.001087220355
       8       -0.000004477547    -0.000011784711     0.000016005212
       9        0.000022720826     0.000037376457    -0.000023001135
      10       -0.000001794473     0.000013547561     0.000011754647
      11        0.000011416790    -0.000011800058    -0.000033353109
      12       -0.000012089386    -0.000011141788     0.000003973325
      13        0.000016643027     0.000000128868    -0.000015896099
      14       -0.000011975931     0.000000332636     0.000030675998
      15       -0.000028643593     0.000019537398    -0.000030118377
      16        0.000024438936    -0.000052513328    -0.000005006879
      17        0.000024586395     0.000020423074     0.000064275845
      18       -0.000041528044     0.000009085374    -0.000010830790

  **** Optimization is complete! (in 12 steps) ****
    Final optimized geometry and variables:
    Molecular point group: c1

    Geometry (in Angstrom), charge = 0, multiplicity = 1:

    H            1.342244261405    -0.575459513322    -1.954708088449
    C            0.303209591383    -0.266344403959    -1.986469437322
    O           -0.380466452260    -0.579183390223    -0.817689589837
    H           -0.186255082432    -0.804333326256    -2.786044513095
    H            0.265074137931     0.794151730688    -2.222085185891
    C           -0.051191854950     0.057149629492     0.405490499715
    C            1.420061559249     0.463996359732     0.496120996049
    C           -0.940643979839     1.293606497696     0.551880367092
    C           -0.383133681047    -0.966004641159     1.484818605475
    H            1.679294793991     1.224279049285    -0.229100935689
    H            2.074061684152    -0.387644967067     0.350715680794
    H            1.617737978419     0.869648379032     1.480514644898
    H           -0.744805021852     2.007029255914    -0.240515441564
    H           -0.767054219372     1.791351122614     1.499324746731
    H           -1.983930179424     1.009329924394     0.497926972827
    H            0.252177471533    -1.837731780284     1.386655896744
    H           -0.245084152569    -0.546339952464     2.474695025408
    H           -1.412350872488    -1.286797222991     1.386540280379

  Mulliken Charges: (a.u.)
   Center  Symbol    Alpha    Beta     Spin     Total
       1     H     0.46702  0.46702  0.00000  0.06596
       2     C     3.04293  3.04293  0.00000 -0.08587
       3     O     4.19530  4.19530  0.00000 -0.39061
       4     H     0.44229  0.44229  0.00000  0.11541
       5     H     0.47043  0.47043  0.00000  0.05913
       6     C     2.87348  2.87348  0.00000  0.25303
       7     C     3.17429  3.17429  0.00000 -0.34858
       8     C     3.14887  3.14887  0.00000 -0.29775
       9     C     3.14071  3.14071  0.00000 -0.28142
      10     H     0.44479  0.44479  0.00000  0.11042
      11     H     0.44527  0.44527  0.00000  0.10946
      12     H     0.44385  0.44385  0.00000  0.11230
      13     H     0.45060  0.45060  0.00000  0.09879
      14     H     0.45412  0.45412  0.00000  0.09175
      15     H     0.44815  0.44815  0.00000  0.10370
      16     H     0.45137  0.45137  0.00000  0.09725
      17     H     0.45913  0.45913  0.00000  0.08175
      18     H     0.44737  0.44737  0.00000  0.10526

   Total alpha = 25.00000, Total beta = 25.00000, Total charge =  0.00000

*** Psi4 exiting successfully. Buy a developer a beer!
