  ==> Input File <==

--------------------------------------------------------------------------
set {
	reference rhf
	basis 6-31G*
}

set_num_threads( 4 )
memory 2 gb

molecule MOL {
0 1

O	 -2.042549	 -1.228399	 -0.269030
C	 -1.653912	 -0.146171	 0.050137
C	 -0.332303	 0.024011	 0.778412
C	 -2.438579	 1.106236	 -0.272369
C	 -0.429112	 -0.497111	 2.220956
H	 0.463247	 -0.494471	 0.250531
H	 -0.097105	 1.082532	 0.790177
C	 0.873886	 -0.316359	 3.001055
H	 -0.699274	 -1.551646	 2.213913
H	 -1.235380	 0.027263	 2.725043
C	 0.777701	 -0.825551	 4.438650
H	 1.678828	 -0.836141	 2.485962
H	 1.143756	 0.737063	 3.007470
H	 0.542081	 -1.885667	 4.464922
H	 0.002122	 -0.300898	 4.988795
H	 1.714193	 -0.681891	 4.968150
H	 -3.277823	 0.863061	 -0.908988
H	 -1.806773	 1.843019	 -0.759671
H	 -2.802853	 1.554979	 0.648059

	symmetry c1
}
set optking {
	frozen_dihedral = ("
		5 3 2 4
	")
}

ee = optimize('scf')
oeprop('DIPOLE', 'QUADRUPOLE', 'MULLIKEN_CHARGES')
f=open( 'psi4out.xyz', 'w' )
f.write( "19  " )
f.write( str(ee) + "\n" )
f.write( MOL.save_string_xyz() )
f.close()
--------------------------------------------------------------------------

    Molecular point group: c1
  Charge       = 0
  Multiplicity = 1
  Basis Set: 6-31G*
  Basis Set:
  @DF-RHF Final Energy:  -309.06404471961292
    Total Energy =                       -309.0640447196127525
    Molecular point group: c1
  Basis Set: 6-31G*
  Basis Set:
  Basis Set: 6-31G*
  Basis Set:
  @DF-RHF Final Energy:  -309.06303528509261
    Total Energy =                       -309.0630352850926101
  Basis Set: 6-31G*
  Basis Set:
  Basis Set: 6-31G*
  Basis Set:
  @DF-RHF Final Energy:  -309.06474183539962
    Total Energy =                       -309.0647418353997864
  Basis Set: 6-31G*
  Basis Set:
  Basis Set: 6-31G*
  Basis Set:
  @DF-RHF Final Energy:  -309.06509580310342
    Total Energy =                       -309.0650958031031905
  Basis Set: 6-31G*
  Basis Set:
  @DF-RHF Final Energy:  -309.06483161247002
    Total Energy =                       -309.0648316124699022
  Basis Set: 6-31G*
  Basis Set:
  @DF-RHF Final Energy:  -309.06510740269147
    Total Energy =                       -309.0651074026912966
  Basis Set: 6-31G*
  Basis Set:
  Basis Set: 6-31G*
  Basis Set:
  @DF-RHF Final Energy:  -309.06513872844840
    Total Energy =                       -309.0651387284484031
  Basis Set: 6-31G*
  Basis Set:
  Basis Set: 6-31G*
  Basis Set:
  @DF-RHF Final Energy:  -309.06513777167163
    Total Energy =                       -309.0651377716715160
  Basis Set: 6-31G*
  Basis Set:
  Charge       = 0
  Multiplicity = 1
  Basis Set: 6-31G*
  Basis Set:

    Orbital Energies (a.u.)
    -----------------------

    Doubly Occupied:

       1A    -20.547657     2A    -11.325123     3A    -11.229743
       4A    -11.228631     5A    -11.227905     6A    -11.223510
       7A    -11.213772     8A     -1.393637     9A     -1.089667
      10A     -1.028984    11A     -0.984301    12A     -0.888688
      13A     -0.805306    14A     -0.732941    15A     -0.662600
      16A     -0.645602    17A     -0.622257    18A     -0.612501
      19A     -0.582431    20A     -0.572787    21A     -0.552861
      22A     -0.536400    23A     -0.514423    24A     -0.496089
      25A     -0.480500    26A     -0.474624    27A     -0.466488
      28A     -0.397176

  @DF-RHF Final Energy:  -309.06514167332466

   => Energetics <=

    Nuclear Repulsion Energy =            301.1000979974935490
    One-Electron Energy =               -1015.2572669901167046
    Two-Electron Energy =                 405.0920273192984951
    DFT Exchange-Correlation Energy =       0.0000000000000000
    Empirical Dispersion Energy =           0.0000000000000000
    PCM Polarization Energy =               0.0000000000000000
    EFP Energy =                            0.0000000000000000
    Total Energy =                       -309.0651416733246606
    Molecular point group: c1
  Basis Set: 6-31G*
  Basis Set:

  -Total Gradient:
     Atom            X                  Y                   Z
    ------   -----------------  -----------------  -----------------
       1        0.000005285859    -0.000002263752     0.000004095684
       2       -0.000007330237     0.000018474546    -0.000017298454
       3        0.000002484557    -0.000021198141     0.000008886573
       4       -0.000000206366    -0.000018555804    -0.000003895099
       5       -0.000009466462     0.000019522993    -0.000000935339
       6        0.000003336062     0.000002205874    -0.000006089406
       7       -0.000001608584    -0.000005483609    -0.000000846105
       8        0.000005804279    -0.000000430636     0.000004761186
       9        0.000002712562     0.000002114244     0.000000891857
      10       -0.000003656507    -0.000002594150     0.000003326934
      11        0.000001249661    -0.000002954956    -0.000001995801
      12        0.000000875509    -0.000000486024     0.000003508946
      13        0.000000540400     0.000000714336    -0.000002054286
      14        0.000000242353    -0.000001993834     0.000002063087
      15        0.000000500472     0.000000127873    -0.000002432925
      16       -0.000000428564     0.000000890207    -0.000000584538
      17       -0.000000630728     0.000005635398     0.000001848119
      18        0.000000358788     0.000005371329     0.000001777958
      19       -0.000000063052     0.000000904103     0.000004971616

  **** Optimization is complete! (in 9 steps) ****
    Final optimized geometry and variables:
    Molecular point group: c1

    Geometry (in Angstrom), charge = 0, multiplicity = 1:

    O           -1.232262296291    -0.966087189618    -1.708846761398
    C           -0.881918776813     0.131344734509    -1.397224380768
    C            0.415703361849     0.343716075612    -0.634405158064
    C           -1.710373830589     1.353011528736    -1.723952986586
    C            0.311823849157    -0.198574827710     0.798438462758
    H            1.197278414714    -0.189337630042    -1.166806869120
    H            0.683340800606     1.396114331904    -0.617911079098
    C            1.615707598905    -0.046692424580     1.582852569701
    H            0.027881434192    -1.244842526906     0.751200942082
    H           -0.487710371556     0.318036377224     1.326946810353
    C            1.514817788550    -0.590352996803     3.007477222137
    H            2.413703248599    -0.563223277681     1.054343462274
    H            1.899272884052     1.003124292668     1.615619523160
    H            1.264635277979    -1.647153856266     3.006285209808
    H            0.747168141743    -0.069709568065     3.572894826325
    H            2.453874030392    -0.472740359705     3.538943774021
    H           -2.636046047034     1.057625080012    -2.197814979722
    H           -1.154719672689     2.009306245826    -2.388396531746
    H           -1.922968636359     1.918348652866    -0.820729591390

  Mulliken Charges: (a.u.)
   Center  Symbol    Alpha    Beta     Spin     Total
       1     O     4.26292  4.26292  0.00000 -0.52585
       2     C     2.73652  2.73652  0.00000  0.52696
       3     C     3.20119  3.20119  0.00000 -0.40237
       4     C     3.28944  3.28944  0.00000 -0.57888
       5     C     3.15890  3.15890  0.00000 -0.31780
       6     H     0.40174  0.40174  0.00000  0.19653
       7     H     0.41679  0.41679  0.00000  0.16643
       8     C     3.15217  3.15217  0.00000 -0.30433
       9     H     0.40450  0.40450  0.00000  0.19099
      10     H     0.42134  0.42134  0.00000  0.15733
      11     C     3.24019  3.24019  0.00000 -0.48038
      12     H     0.41992  0.41992  0.00000  0.16016
      13     H     0.42287  0.42287  0.00000  0.15427
      14     H     0.41877  0.41877  0.00000  0.16246
      15     H     0.42117  0.42117  0.00000  0.15766
      16     H     0.41782  0.41782  0.00000  0.16435
      17     H     0.39714  0.39714  0.00000  0.20572
      18     H     0.40735  0.40735  0.00000  0.18530
      19     H     0.40927  0.40927  0.00000  0.18146

   Total alpha = 28.00000, Total beta = 28.00000, Total charge =  0.00000
