  ==> Input File <==

--------------------------------------------------------------------------
set {
	reference rhf
	basis 6-31G*
}

set_num_threads( 1 )
memory 2 gb

molecule MOL {
0 1

O	 -0.568818	 -2.700512	 -1.411513
C	 -0.616573	 -1.552092	 -1.732894
C	 -0.889235	 -0.467034	 -0.705952
C	 -0.377943	 -1.116902	 -3.161544
C	 0.379448	 -0.143569	 0.099626
H	 -1.659323	 -0.834119	 -0.036237
H	 -1.261482	 0.431807	 -1.189214
C	 1.631333	 -0.777471	 -0.511575
H	 0.482768	 0.934507	 0.149241
H	 0.263088	 -0.495696	 1.123449
C	 2.915987	 -0.544314	 0.291766
H	 1.766672	 -0.399098	 -1.523130
H	 1.471257	 -1.849544	 -0.605828
C	 3.373361	 0.914346	 0.347591
H	 3.708709	 -1.142521	 -0.150311
H	 2.780642	 -0.921148	 1.303579
H	 3.506512	 1.320010	 -0.651625
H	 4.322697	 0.999599	 0.867103
H	 2.660624	 1.545032	 0.868198
H	 -1.293202	 -0.700780	 -3.574350
H	 -0.066615	 -1.962383	 -3.759056
H	 0.376385	 -0.336569	 -3.204826

	symmetry c1
}
set optking {
	frozen_dihedral = ("
		6 3 2 1,
		3 5 8 12,
		12 8 11 15
	")
}

ee = energy('scf')
oeprop('DIPOLE', 'QUADRUPOLE', 'MULLIKEN_CHARGES')
f=open( 'psi4out.xyz', 'w' )
f.write( "22  " )
f.write( str(ee) + "\n" )
f.write( MOL.save_string_xyz() )
f.close()
--------------------------------------------------------------------------

    Molecular point group: c1

    Geometry (in Angstrom), charge = 0, multiplicity = 1:

       Center              X                  Y                   Z               Mass
    ------------   -----------------  -----------------  -----------------  -----------------
           O         -1.314543048794    -1.904079675990    -0.556883269046    15.994914619560
           C         -1.362298048794    -0.755659675990    -0.878264269046    12.000000000000
           C         -1.634960048794     0.329398324010     0.148677730954    12.000000000000
           C         -1.123668048794    -0.320469675990    -2.306914269046    12.000000000000
           C         -0.366277048794     0.652863324010     0.954255730954    12.000000000000
           H         -2.405048048794    -0.037686675990     0.818392730954     1.007825032070
           H         -2.007207048794     1.228239324010    -0.334584269046     1.007825032070
           C          0.885607951206     0.018961324010     0.343054730954    12.000000000000
           H         -0.262957048794     1.730939324010     1.003870730954     1.007825032070
           H         -0.482637048794     0.300736324010     1.978078730954     1.007825032070
           C          2.170261951206     0.252118324010     1.146395730954    12.000000000000
           H          1.020946951206     0.397334324010    -0.668500269046     1.007825032070
           H          0.725531951206    -1.053111675990     0.248801730954     1.007825032070
           C          2.627635951206     1.710778324010     1.202220730954    12.000000000000
           H          2.962983951206    -0.346088675990     0.704318730954     1.007825032070
           H          2.034916951206    -0.124715675990     2.158208730954     1.007825032070
           H          2.760786951206     2.116442324010     0.203004730954     1.007825032070
           H          3.576971951206     1.796031324010     1.721732730954     1.007825032070
           H          1.914898951206     2.341464324010     1.722827730954     1.007825032070
           H         -2.038927048794     0.095652324010    -2.719720269046     1.007825032070
           H         -0.812340048794    -1.165950675990    -2.904426269046     1.007825032070
           H         -0.369340048794     0.459863324010    -2.350196269046     1.007825032070

  Charge       = 0
  Multiplicity = 1
  Basis Set: 6-31G*
  Basis Set:

    Orbital Energies (a.u.)
    -----------------------

    Doubly Occupied:

       1A    -20.545791     2A    -11.324954     3A    -11.228012
       4A    -11.227747     5A    -11.227352     6A    -11.217558
       7A    -11.215803     8A    -11.210865     9A     -1.394086
      10A     -1.096399    11A     -1.041571    12A     -0.998330
      13A     -0.937608    14A     -0.857586    15A     -0.792772
      16A     -0.723452    17A     -0.662108    18A     -0.637852
      19A     -0.630395    20A     -0.621987    21A     -0.599412
      22A     -0.580758    23A     -0.562804    24A     -0.547948
      25A     -0.532780    26A     -0.526923    27A     -0.494983
      28A     -0.482111    29A     -0.465269    30A     -0.458365
      31A     -0.453347    32A     -0.396399

  @DF-RHF Final Energy:  -348.08461999478703

   => Energetics <=

    Nuclear Repulsion Energy =            387.8306329092750389
    One-Electron Energy =               -1240.4438990455719249
    Two-Electron Energy =                 504.5286461415103645
    DFT Exchange-Correlation Energy =       0.0000000000000000
    Empirical Dispersion Energy =           0.0000000000000000
    PCM Polarization Energy =               0.0000000000000000
    EFP Energy =                            0.0000000000000000
    Total Energy =                       -348.0846199947865784

  Mulliken Charges: (a.u.)
   Center  Symbol    Alpha    Beta     Spin     Total
       1     O     4.26347  4.26347  0.00000 -0.52694
       2     C     2.74311  2.74311  0.00000  0.51378
       3     C     3.20008  3.20008  0.00000 -0.40015
       4     C     3.28771  3.28771  0.00000 -0.57541
       5     C     3.15426  3.15426  0.00000 -0.30852
       6     H     0.39856  0.39856  0.00000  0.20289
       7     H     0.41495  0.41495  0.00000  0.17010
       8     C     3.18175  3.18175  0.00000 -0.36349
       9     H     0.41501  0.41501  0.00000  0.16998
      10     H     0.41230  0.41230  0.00000  0.17539
      11     C     3.15021  3.15021  0.00000 -0.30042
      12     H     0.42542  0.42542  0.00000  0.14915
      13     H     0.39561  0.39561  0.00000  0.20878
      14     C     3.24159  3.24159  0.00000 -0.48318
      15     H     0.41908  0.41908  0.00000  0.16184
      16     H     0.42121  0.42121  0.00000  0.15758
      17     H     0.42329  0.42329  0.00000  0.15342
      18     H     0.41814  0.41814  0.00000  0.16372
      19     H     0.42105  0.42105  0.00000  0.15789
      20     H     0.40715  0.40715  0.00000  0.18571
      21     H     0.39748  0.39748  0.00000  0.20503
      22     H     0.40857  0.40857  0.00000  0.18286

   Total alpha = 32.00000, Total beta = 32.00000, Total charge = -0.00000
