  ==> Input File <==

--------------------------------------------------------------------------
set {
	reference rhf
	basis 6-31G*
}

set_num_threads( 4 )
memory 2 gb

molecule MOL {
0 1

O	 0.749854	 1.307668	 -0.000040
C	 0.576249	 0.131685	 -0.000108
C	 -0.766779	 -0.556801	 -0.000461
O	 1.568443	 -0.749345	 -0.000005
C	 -1.945214	 0.412366	 0.000161
H	 -0.796911	 -1.211249	 -0.867467
H	 -0.796854	 -1.212390	 0.865687
C	 -2.744455	 0.344436	 -1.300288
H	 -1.578955	 1.421213	 0.157276
H	 -2.590677	 0.190496	 0.843206
H	 -2.126312	 0.593950	 -2.158248
H	 -3.576528	 1.040598	 -1.279951
H	 -3.150178	 -0.650055	 -1.464146
C	 2.886820	 -0.232538	 0.000322
H	 3.059106	 0.369571	 -0.880203
H	 3.540187	 -1.091012	 0.000050
H	 3.059019	 0.368956	 0.881266

	symmetry c1
}
set optking {
	frozen_dihedral = ("
		9 5 3 6
	")
}

ee = optimize('scf')
oeprop('DIPOLE', 'QUADRUPOLE', 'MULLIKEN_CHARGES')
f=open( 'psi4out.xyz', 'w' )
f.write( "17  " )
f.write( str(ee) + "\n" )
f.write( MOL.save_string_xyz() )
f.close()
--------------------------------------------------------------------------

    Molecular point group: c1
  Charge       = 0
  Multiplicity = 1
  Basis Set: 6-31G*
  Basis Set:
  @DF-RHF Final Energy:  -344.90190686866083
    Total Energy =                       -344.9019068686610012
    Molecular point group: c1
  Basis Set: 6-31G*
  Basis Set:
  Basis Set: 6-31G*
  Basis Set:
  @DF-RHF Final Energy:  -344.90223537386305
    Total Energy =                       -344.9022353738628794
  Basis Set: 6-31G*
  Basis Set:
  Basis Set: 6-31G*
  Basis Set:
  @DF-RHF Final Energy:  -344.90205566007501
    Total Energy =                       -344.9020556600750069
  Basis Set: 6-31G*
  Basis Set:
  Basis Set: 6-31G*
  Basis Set:
  @DF-RHF Final Energy:  -344.90234648488291
    Total Energy =                       -344.9023464848828553
  Basis Set: 6-31G*
  Basis Set:
  Basis Set: 6-31G*
  Basis Set:
  @DF-RHF Final Energy:  -344.90235143636488
    Total Energy =                       -344.9023514363647109
  Basis Set: 6-31G*
  Basis Set:
  Basis Set: 6-31G*
  Basis Set:
  @DF-RHF Final Energy:  -344.90235292498562
    Total Energy =                       -344.9023529249855642
  Basis Set: 6-31G*
  Basis Set:
  Basis Set: 6-31G*
  Basis Set:
  @DF-RHF Final Energy:  -344.90235426098599
    Total Energy =                       -344.9023542609862716
  Basis Set: 6-31G*
  Basis Set:
  Charge       = 0
  Multiplicity = 1
  Basis Set: 6-31G*
  Basis Set:

    Orbital Energies (a.u.)
    -----------------------

    Doubly Occupied:

       1A    -20.604355     2A    -20.546700     3A    -11.373484
       4A    -11.281372     5A    -11.235925     6A    -11.220032
       7A    -11.212176     8A     -1.470365     9A     -1.363749
      10A     -1.077237    11A     -1.001027    12A     -0.938528
      13A     -0.828444    14A     -0.766546    15A     -0.702020
      16A     -0.681911    17A     -0.672737    18A     -0.625066
      19A     -0.605366    20A     -0.570413    21A     -0.569538
      22A     -0.531974    23A     -0.524556    24A     -0.487205
      25A     -0.484170    26A     -0.476771    27A     -0.457821
      28A     -0.439960

  @DF-RHF Final Energy:  -344.90235456058036

   => Energetics <=

    Nuclear Repulsion Energy =            314.2062248413422481
    One-Electron Energy =               -1092.7182648176135444
    Two-Electron Energy =                 433.6096854156909330
    DFT Exchange-Correlation Energy =       0.0000000000000000
    Empirical Dispersion Energy =           0.0000000000000000
    PCM Polarization Energy =               0.0000000000000000
    EFP Energy =                            0.0000000000000000
    Total Energy =                       -344.9023545605804202
    Molecular point group: c1
  Basis Set: 6-31G*
  Basis Set:

  -Total Gradient:
     Atom            X                  Y                   Z
    ------   -----------------  -----------------  -----------------
       1       -0.000010790610    -0.000042300685    -0.000000038703
       2        0.000017968586     0.000109623012    -0.000001069299
       3       -0.001264920849    -0.001623985720     0.000795627764
       4        0.000018814251    -0.000047446626    -0.000000899530
       5        0.000054186208     0.000040847848     0.002087645716
       6        0.001034795383     0.001315028057    -0.000969051958
       7        0.000011661574     0.000006576702     0.000000104765
       8       -0.000026063996     0.000009096482    -0.000024907685
       9        0.000183223099     0.000237781512    -0.001885075110
      10       -0.000008403254    -0.000001282924    -0.000000845022
      11        0.000004835817     0.000002036030     0.000000381808
      12        0.000001430668    -0.000000761524    -0.000004529562
      13       -0.000002751799    -0.000002766510     0.000002241669
      14       -0.000024907449    -0.000006054644     0.000001102668
      15        0.000001733579     0.000001534400     0.000000388771
      16        0.000007465049     0.000000744284    -0.000000221676
      17        0.000001723740     0.000001330311    -0.000000854617

  **** Optimization is complete! (in 8 steps) ****
    Final optimized geometry and variables:
    Molecular point group: c1

    Geometry (in Angstrom), charge = 0, multiplicity = 1:

    O            0.683514414451     1.212693993966     0.127715893598
    C            0.501252764056     0.039457167488     0.184331890163
    C           -0.841896302145    -0.656340531263     0.206146193651
    O            1.489538117382    -0.845130557313     0.226458620920
    C           -2.047246850751     0.298490347710     0.205699588385
    H           -0.850551571343    -1.305762919363    -0.664772767472
    H           -0.841715293197    -1.315901201171     1.067242395736
    C           -2.834397285764     0.262285733721    -1.105324764405
    H           -1.697072947201     1.308474885161     0.373272380683
    H           -2.708391487059     0.046734574318     1.028391226992
    H           -2.203736244525     0.542471234733    -1.944183133757
    H           -3.670279028667     0.953840384682    -1.075517146257
    H           -3.231306712922    -0.729620807979    -1.303285156122
    C            2.810549412250    -0.335749671947     0.199780718124
    H            2.985121690567     0.220292427095    -0.710072090314
    H            3.459493845112    -1.196567743029     0.242253409205
    H            2.986671443435     0.308314314923     1.049236734486

  Mulliken Charges: (a.u.)
   Center  Symbol    Alpha    Beta     Spin     Total
       1     O     4.28490  4.28490  0.00000 -0.56980
       2     C     2.61380  2.61380  0.00000  0.77240
       3     C     3.20824  3.20824  0.00000 -0.41647
       4     O     4.30511  4.30511  0.00000 -0.61023
       5     C     3.16174  3.16174  0.00000 -0.32348
       6     H     0.39804  0.39804  0.00000  0.20392
       7     H     0.39708  0.39708  0.00000  0.20584
       8     C     3.24255  3.24255  0.00000 -0.48510
       9     H     0.39411  0.39411  0.00000  0.21178
      10     H     0.41813  0.41813  0.00000  0.16373
      11     H     0.41808  0.41808  0.00000  0.16384
      12     H     0.41715  0.41715  0.00000  0.16570
      13     H     0.42259  0.42259  0.00000  0.15483
      14     C     3.09210  3.09210  0.00000 -0.18419
      15     H     0.40909  0.40909  0.00000  0.18183
      16     H     0.40841  0.40841  0.00000  0.18319
      17     H     0.40889  0.40889  0.00000  0.18222

   Total alpha = 28.00000, Total beta = 28.00000, Total charge = -0.00000
