                              Psi4 1.0.54 Driver

  ==> Input File <==

--------------------------------------------------------------------------
set {
	reference rhf
	basis cc-pvtz
}

set_num_threads( 4 )
memory 2 gb

molecule MOL {
0 1

H	 -2.362939	 -1.309000	 -0.383250
C	 -1.359344	 -1.272457	 0.020748
C	 -0.684082	 0.000127	 -0.464918
H	 -0.825835	 -2.151141	 -0.318537
H	 -1.416276	 -1.292399	 1.099455
C	 -1.359089	 1.272668	 0.021259
N	 0.742439	 -0.000109	 0.007333
H	 -0.596914	 0.000345	 -1.538146
H	 -2.362696	 1.309620	 -0.382686
H	 -0.825392	 2.151374	 -0.317674
H	 -1.415983	 1.292181	 1.099973
O	 1.471656	 -0.806209	 -0.463930
O	 1.048968	 0.805935	 0.821350

	symmetry c1
}
set optking {
	frozen_dihedral = ("
		12 7 3 8
	")
}

ee,wfn = optimize('scf', return_wfn=True)
oeprop( wfn, 'DIPOLE', 'QUADRUPOLE', 'MULLIKEN_CHARGES')
f=open( 'psi4out.xyz', 'w' )
f.write( "13  " )
f.write( str(ee) + "\n" )
f.write( MOL.save_string_xyz() )
f.close()
--------------------------------------------------------------------------

    Molecular point group: c1
  Charge       = 0
  Multiplicity = 1
  Basis Set: CC-PVTZ
  Basis Set:
  @DF-RHF Final Energy:  -321.86268431181389
    Total Energy =                       -321.8626843118140641
    Molecular point group: c1
  Basis Set: CC-PVTZ
  Basis Set:
  Basis Set: CC-PVTZ
  Basis Set:
  @DF-RHF Final Energy:  -321.86007381728569
    Total Energy =                       -321.8600738172854108
  Basis Set: CC-PVTZ
  Basis Set:
  Basis Set: CC-PVTZ
  Basis Set:
  @DF-RHF Final Energy:  -321.85985343115101
    Total Energy =                       -321.8598534311508956
  Basis Set: CC-PVTZ
  Basis Set:
  Basis Set: CC-PVTZ
  Basis Set:
  @DF-RHF Final Energy:  -321.86303972106396
    Total Energy =                       -321.8630397210641263
  Basis Set: CC-PVTZ
  Basis Set:
  Basis Set: CC-PVTZ
  Basis Set:
  @DF-RHF Final Energy:  -321.86330519785821
    Total Energy =                       -321.8633051978580966
  Basis Set: CC-PVTZ
  Basis Set:
  Basis Set: CC-PVTZ
  Basis Set:
  @DF-RHF Final Energy:  -321.86350895870714
    Total Energy =                       -321.8635089587073139
  Basis Set: CC-PVTZ
  Basis Set:
  Charge       = 0
  Multiplicity = 1
  Basis Set: CC-PVTZ
  Basis Set:

    Orbital Energies (a.u.)
    -----------------------

    Doubly Occupied:

       1A    -20.591549     2A    -20.585857     3A    -15.833334
       4A    -11.305577     5A    -11.243649     6A    -11.237709
       7A     -1.634245     8A     -1.418403     9A     -1.141225
      10A     -0.970743    11A     -0.957680    12A     -0.815603
      13A     -0.760039    14A     -0.730643    15A     -0.725066
      16A     -0.645008    17A     -0.593126    18A     -0.587854
      19A     -0.570847    20A     -0.526788    21A     -0.521650
      22A     -0.484775    23A     -0.471953    24A     -0.451467

  @DF-RHF Final Energy:  -321.86350971615764

   => Energetics <=

    Nuclear Repulsion Energy =            257.3957280846857429
    One-Electron Energy =                -948.9089044166946678
    Two-Electron Energy =                 369.6496666158511744
    DFT Exchange-Correlation Energy =       0.0000000000000000
    Empirical Dispersion Energy =           0.0000000000000000
    PCM Polarization Energy =               0.0000000000000000
    EFP Energy =                            0.0000000000000000
    Total Energy =                       -321.8635097161577505
    Molecular point group: c1
  Basis Set: CC-PVTZ
  Basis Set:

  -Total Gradient:
     Atom            X                  Y                   Z
    ------   -----------------  -----------------  -----------------
       1        0.000007538477     0.000018199139    -0.000020247558
       2        0.000087106470     0.000031577195     0.000004927072
       3       -0.000097146304    -0.001825006524     0.000379186796
       4        0.000014353305    -0.000037426798     0.000004054581
       5        0.000010810137     0.000010785680    -0.000020064751
       6       -0.000008632619     0.000069693046     0.000031934695
       7        0.000560030133     0.001258388539    -0.001207877609
       8        0.000013030106     0.001279676312    -0.000014994149
       9       -0.000004948481     0.000001675986    -0.000003903374
      10       -0.000007552848     0.000002174283     0.000008208077
      11        0.000001320336     0.000002616597    -0.000007599704
      12       -0.000421036172    -0.000924241751     0.000820365669
      13       -0.000154872540     0.000111888299     0.000026010255

  **** Optimization is complete! (in 7 steps) ****
    Final optimized geometry and variables:
    Molecular point group: c1

    Geometry (in Angstrom), charge = 0, multiplicity = 1:

    H           -2.318642469993    -1.370737679229    -0.330993548861
    C           -1.304209396508    -1.304270317231     0.039570686071
    C           -0.683560086066    -0.004980037249    -0.456249559867
    H           -0.748683852412    -2.160221973404    -0.311863632017
    H           -1.336333104995    -1.323194741976     1.122206259130
    C           -1.435789322941     1.235139634636    -0.016560716958
    N            0.748650100482     0.028352568299     0.013176149932
    H           -0.586892188253    -0.026566439399    -1.531371362095
    H           -2.426420285166     1.201191595704    -0.453313786998
    H           -0.944219791125     2.136777905684    -0.352044056484
    H           -1.532497581887     1.279124366399     1.058541793425
    O            1.471702411860    -0.786240031679    -0.456972144250
    O            1.064754429587     0.833629805224     0.820803892924

  Mulliken Charges: (a.u.)
   Center  Symbol    Alpha    Beta     Spin     Total
       1     H     0.44910  0.44910  0.00000  0.10180
       2     C     3.14384  3.14384  0.00000 -0.28767
       3     C     3.00724  3.00724  0.00000 -0.01448
       4     H     0.43247  0.43247  0.00000  0.13507
       5     H     0.44538  0.44538  0.00000  0.10924
       6     C     3.14273  3.14273  0.00000 -0.28546
       7     N     3.27456  3.27456  0.00000  0.45088
       8     H     0.42835  0.42835  0.00000  0.14331
       9     H     0.45023  0.45023  0.00000  0.09955
      10     H     0.43846  0.43846  0.00000  0.12307
      11     H     0.44150  0.44150  0.00000  0.11700
      12     O     4.17619  4.17619  0.00000 -0.35238
      13     O     4.16996  4.16996  0.00000 -0.33993

   Total alpha = 24.00000, Total beta = 24.00000, Total charge =  0.00000

*** Psi4 exiting successfully. Buy a developer a beer!
