  ==> Input File <==

--------------------------------------------------------------------------
set {
	reference rhf
	basis 6-31G*
}

set_num_threads( 4 )
memory 2 gb

molecule MOL {
0 1

H	 -1.696427	 -2.478568	 -2.125705
C	 -2.372274	 -1.725891	 -1.701053
C	 -2.266917	 -1.544671	 -0.208180
O	 -3.115103	 -1.124254	 -2.406735
C	 -0.824681	 -1.294563	 0.254048
H	 -2.925581	 -0.735598	 0.085541
H	 -2.636784	 -2.460130	 0.252024
C	 -0.252658	 0.041456	 -0.226725
H	 -0.800731	 -1.327638	 1.339229
H	 -0.189251	 -2.110213	 -0.087568
C	 1.180775	 0.282413	 0.250794
H	 -0.892557	 0.849011	 0.122891
H	 -0.280418	 0.084999	 -1.313865
C	 2.148627	 -0.814315	 -0.201312
H	 1.516199	 1.249228	 -0.115937
H	 1.192670	 0.346017	 1.338083
C	 3.580890	 -0.659131	 0.322722
H	 2.166869	 -0.852443	 -1.289387
H	 1.762857	 -1.776509	 0.128956
C	 4.324889	 0.564933	 -0.213704
H	 4.142010	 -1.551473	 0.056605
H	 3.564836	 -0.624694	 1.410140
H	 4.342616	 0.565491	 -1.300421
H	 3.866655	 1.493402	 0.110242
H	 5.353900	 0.572371	 0.132816

	symmetry c1
}
set optking {
	frozen_dihedral = ("
		12 8 11 14
	")
}

ee = optimize('scf')
oeprop('DIPOLE', 'QUADRUPOLE', 'MULLIKEN_CHARGES')
f=open( 'psi4out.xyz', 'w' )
f.write( "25  " )
f.write( str(ee) + "\n" )
f.write( MOL.save_string_xyz() )
f.close()
--------------------------------------------------------------------------

    Molecular point group: c1
  Charge       = 0
  Multiplicity = 1
  Basis Set: 6-31G*
  Basis Set:
  @DF-RHF Final Energy:  -387.11854915462300
    Total Energy =                       -387.1185491546229969
    Molecular point group: c1
  Basis Set: 6-31G*
  Basis Set:
  Basis Set: 6-31G*
  Basis Set:
  @DF-RHF Final Energy:  -387.11906604452236
    Total Energy =                       -387.1190660445220146
  Basis Set: 6-31G*
  Basis Set:
  Basis Set: 6-31G*
  Basis Set:
  @DF-RHF Final Energy:  -387.11984188202007
    Total Energy =                       -387.1198418820204097
  Basis Set: 6-31G*
  Basis Set:
  Basis Set: 6-31G*
  Basis Set:
  @DF-RHF Final Energy:  -387.11981544990311
    Total Energy =                       -387.1198154499032853
  Basis Set: 6-31G*
  Basis Set:
  @DF-RHF Final Energy:  -387.11998158484585
    Total Energy =                       -387.1199815848463004
  Basis Set: 6-31G*
  Basis Set:
  @DF-RHF Final Energy:  -387.12000304457462
    Total Energy =                       -387.1200030445744460
  Basis Set: 6-31G*
  Basis Set:
  Basis Set: 6-31G*
  Basis Set:
  @DF-RHF Final Energy:  -387.11999241444590
    Total Energy =                       -387.1199924144464148
  Basis Set: 6-31G*
  Basis Set:
  Basis Set: 6-31G*
  Basis Set:
  @DF-RHF Final Energy:  -387.12000363762684
    Total Energy =                       -387.1200036376270646
  Basis Set: 6-31G*
  Basis Set:
  Charge       = 0
  Multiplicity = 1
  Basis Set: 6-31G*
  Basis Set:

    Orbital Energies (a.u.)
    -----------------------

    Doubly Occupied:

       1A    -20.561799     2A    -11.326021     3A    -11.234907
       4A    -11.234301     5A    -11.224510     6A    -11.220270
       7A    -11.219501     8A    -11.218668     9A    -11.211057
      10A     -1.401748    11A     -1.104313    12A     -1.068969
      13A     -1.012840    14A     -0.940646    15A     -0.882855
      16A     -0.821792    17A     -0.792669    18A     -0.772627
      19A     -0.665537    20A     -0.650903    21A     -0.635499
      22A     -0.627348    23A     -0.611618    24A     -0.589339
      25A     -0.571204    26A     -0.563060    27A     -0.532876
      28A     -0.521154    29A     -0.518231    30A     -0.497969
      31A     -0.486500    32A     -0.478653    33A     -0.463901
      34A     -0.450536    35A     -0.447490    36A     -0.409170

  @DF-RHF Final Energy:  -387.12000348149985

   => Energetics <=

    Nuclear Repulsion Energy =            443.5562657892314178
    One-Electron Energy =               -1403.4115675088280568
    Two-Electron Energy =                 572.7352982380964477
    DFT Exchange-Correlation Energy =       0.0000000000000000
    Empirical Dispersion Energy =           0.0000000000000000
    PCM Polarization Energy =               0.0000000000000000
    EFP Energy =                            0.0000000000000000
    Total Energy =                       -387.1200034815001345
    Molecular point group: c1
  Basis Set: 6-31G*
  Basis Set:

  -Total Gradient:
     Atom            X                  Y                   Z
    ------   -----------------  -----------------  -----------------
       1       -0.000005686802    -0.000008410924     0.000011788349
       2        0.000012568350     0.000001571449    -0.000003622160
       3       -0.000016467032    -0.000004525004    -0.000002752357
       4       -0.000007068425    -0.000003101960     0.000008578642
       5        0.000005237630    -0.000005955574    -0.000043181140
       6        0.000014652847     0.000006603893    -0.000016542917
       7       -0.000011549901    -0.000006774398     0.000021176922
       8        0.000298728762     0.000754640323    -0.001130811419
       9       -0.000004543125     0.000001650572    -0.000006005152
      10       -0.000009018141     0.000012142519    -0.000015529693
      11        0.000282648162     0.000689824535    -0.001081652289
      12       -0.000376325491    -0.000821626417     0.001290312110
      13        0.000016783221    -0.000003859392     0.000023286367
      14       -0.000233736709    -0.000579972247     0.000911812351
      15       -0.000012867302    -0.000025548413     0.000013438508
      16       -0.000012685548    -0.000000602752    -0.000013003960
      17        0.000004343117     0.000010953617     0.000047707203
      18       -0.000009005226    -0.000010344307    -0.000009460102
      19        0.000005897466     0.000021065230     0.000004442055
      20        0.000007043456    -0.000011889451    -0.000014655470
      21        0.000013511602     0.000010636717    -0.000000124484
      22        0.000014481995    -0.000006848084     0.000010152690
      23        0.000005016010     0.000000970668    -0.000005372977
      24        0.000026076613    -0.000016453233    -0.000001106218
      25       -0.000008035537    -0.000004147365     0.000001125143

  **** Optimization is complete! (in 9 steps) ****
    Final optimized geometry and variables:
    Molecular point group: c1

    Geometry (in Angstrom), charge = 0, multiplicity = 1:

    H           -2.148317810220    -1.711892817969    -1.739327101004
    C           -2.754703437399    -0.937101805169    -1.253726355565
    C           -2.584499145592    -0.838238085760     0.240976092760
    O           -3.483053482854    -0.256496343570    -1.900366996125
    C           -1.112522525992    -0.708797980671     0.658482347246
    H           -3.175998968042    -0.003002787430     0.597633807311
    H           -2.999457393981    -1.749122937350     0.670823571174
    C           -0.477449662318     0.613450009837     0.213593700824
    H           -1.053668766641    -0.791148982909     1.740440892304
    H           -0.556481979109    -1.552472002648     0.258505519966
    C            0.936088642675     0.860449987535     0.755169138501
    H           -1.118910704360     1.423738761314     0.552043778534
    H           -0.462123217166     0.668028761858    -0.873329035030
    C            1.970706501812    -0.200259092689     0.365207725648
    H            1.260298782846     1.835547866203     0.404663101535
    H            0.892739451790     0.927140716853     1.841476189965
    C            3.393908994244     0.097777912813     0.854233532470
    H            1.981975573526    -0.315100275592    -0.718254673848
    H            1.670000323858    -1.162187894544     0.770500228624
    C            4.061960997248     1.299232007914     0.182976638700
    H            4.007813145073    -0.782172176185     0.678890374826
    H            3.379659106703     0.246278443341     1.932170449097
    H            4.084289718546     1.179618994054    -0.896847024827
    H            3.547703460762     2.228764083096     0.402395508900
    H            5.087084079605     1.407987566869     0.523382278692

  Mulliken Charges: (a.u.)
   Center  Symbol    Alpha    Beta     Spin     Total
       1     H     0.43270  0.43270  0.00000  0.13461
       2     C     2.83077  2.83077  0.00000  0.33847
       3     C     3.20812  3.20812  0.00000 -0.41623
       4     O     4.23778  4.23778  0.00000 -0.47556
       5     C     3.16881  3.16881  0.00000 -0.33763
       6     H     0.39991  0.39991  0.00000  0.20017
       7     H     0.40660  0.40660  0.00000  0.18679
       8     C     3.15538  3.15538  0.00000 -0.31076
       9     H     0.41356  0.41356  0.00000  0.17287
      10     H     0.41724  0.41724  0.00000  0.16552
      11     C     3.15539  3.15539  0.00000 -0.31077
      12     H     0.41638  0.41638  0.00000  0.16725
      13     H     0.41875  0.41875  0.00000  0.16250
      14     C     3.15592  3.15592  0.00000 -0.31183
      15     H     0.41661  0.41661  0.00000  0.16679
      16     H     0.42358  0.42358  0.00000  0.15283
      17     C     3.15253  3.15253  0.00000 -0.30506
      18     H     0.42431  0.42431  0.00000  0.15139
      19     H     0.42091  0.42091  0.00000  0.15818
      20     C     3.24136  3.24136  0.00000 -0.48271
      21     H     0.42044  0.42044  0.00000  0.15912
      22     H     0.42299  0.42299  0.00000  0.15403
      23     H     0.42158  0.42158  0.00000  0.15685
      24     H     0.41987  0.41987  0.00000  0.16025
      25     H     0.41853  0.41853  0.00000  0.16294

   Total alpha = 36.00000, Total beta = 36.00000, Total charge = -0.00000
