  ==> Input File <==

--------------------------------------------------------------------------
set {
	reference rhf
	basis 6-31G*
}

set_num_threads( 4 )
memory 2 gb

molecule MOL {
0 1

H	 -0.944757	 -0.000069	 1.678017
O	 -0.042387	 -0.000390	 1.388199
C	 -0.001487	 0.000018	 -0.026623
C	 -0.237576	 -1.419504	 -0.546104
C	 -1.060477	 0.961651	 -0.569252
C	 1.400229	 0.480947	 -0.384839
H	 -0.170846	 -1.461344	 -1.628552
H	 -1.225274	 -1.775492	 -0.262150
H	 0.497135	 -2.098956	 -0.128297
H	 -1.028730	 1.015248	 -1.652861
H	 -2.058763	 0.637859	 -0.283744
H	 -0.903231	 1.957329	 -0.169531
H	 1.535895	 0.516798	 -1.460969
H	 2.144062	 -0.186390	 0.035709
H	 1.570425	 1.472728	 0.018643

	symmetry c1
}
set optking {
	frozen_dihedral = ("
		4 3 2 1
	")
}

ee = optimize('scf')
oeprop('DIPOLE', 'QUADRUPOLE', 'MULLIKEN_CHARGES')
f=open( 'psi4out.xyz', 'w' )
f.write( "15  " )
f.write( str(ee) + "\n" )
f.write( MOL.save_string_xyz() )
f.close()
--------------------------------------------------------------------------

    Molecular point group: c1
  Charge       = 0
  Multiplicity = 1
  Basis Set: 6-31G*
  Basis Set:
  @DF-RHF Final Energy:  -232.15276325680640
    Total Energy =                       -232.1527632568063950
    Molecular point group: c1
  Basis Set: 6-31G*
  Basis Set:
  Basis Set: 6-31G*
  Basis Set:
  @DF-RHF Final Energy:  -232.15279229977662
    Total Energy =                       -232.1527922997764790
  Basis Set: 6-31G*
  Basis Set:
  Basis Set: 6-31G*
  Basis Set:
  @DF-RHF Final Energy:  -232.15280216997760
    Total Energy =                       -232.1528021699776332
  Basis Set: 6-31G*
  Basis Set:
  Charge       = 0
  Multiplicity = 1
  Basis Set: 6-31G*
  Basis Set:

    Orbital Energies (a.u.)
    -----------------------

    Doubly Occupied:

       1A    -20.548612     2A    -11.281817     3A    -11.214787
       4A    -11.207711     5A    -11.204860     6A     -1.360117
       7A     -1.063378     8A     -0.943386     9A     -0.937376
      10A     -0.775596    11A     -0.670039    12A     -0.622422
      13A     -0.621129    14A     -0.574711    15A     -0.556736
      16A     -0.531745    17A     -0.516766    18A     -0.508896
      19A     -0.502674    20A     -0.456983    21A     -0.424722

  @DF-RHF Final Energy:  -232.15280169754007

   => Energetics <=

    Nuclear Repulsion Energy =            200.3383124431810245
    One-Electron Energy =                -711.9333047668103518
    Two-Electron Energy =                 279.4421906260894275
    DFT Exchange-Correlation Energy =       0.0000000000000000
    Empirical Dispersion Energy =           0.0000000000000000
    PCM Polarization Energy =               0.0000000000000000
    EFP Energy =                            0.0000000000000000
    Total Energy =                       -232.1528016975398714
    Molecular point group: c1
  Basis Set: 6-31G*
  Basis Set:

  -Total Gradient:
     Atom            X                  Y                   Z
    ------   -----------------  -----------------  -----------------
       1        0.000044171137     0.001843950411    -0.000015416969
       2        0.000400503250    -0.002397030345    -0.000043303481
       3       -0.001655969532     0.000725707373    -0.000089630539
       4        0.001098446444    -0.000243289510     0.000037633032
       5       -0.000015509480    -0.000057150648     0.000059208490
       6       -0.000013113087     0.000096389911     0.000020076753
       7        0.000068382882    -0.000023211006    -0.000057248943
       8        0.000061411388     0.000051062712     0.000015383364
       9       -0.000060149941    -0.000019454845     0.000022424232
      10        0.000010177629    -0.000034281252     0.000061459462
      11       -0.000050342304     0.000006914696     0.000006905701
      12        0.000080456248     0.000044824636    -0.000035479981
      13       -0.000009697085    -0.000036131742     0.000014610596
      14       -0.000008910736     0.000002360738     0.000012624678
      15        0.000050143189     0.000039338873    -0.000009246401

  **** Optimization is complete! (in 4 steps) ****
    Final optimized geometry and variables:
    Molecular point group: c1

    Geometry (in Angstrom), charge = 0, multiplicity = 1:

    H           -0.941153781743    -0.020999907647     1.684540467072
    O           -0.041135439390    -0.015267249825     1.389168065632
    C           -0.003046079365    -0.001833824505    -0.026655343004
    C           -0.235807746652    -1.421297959815    -0.547758370398
    C           -1.059077306435     0.962896018850    -0.566777644140
    C            1.399836670030     0.477094747401    -0.386984972816
    H           -0.166847680213    -1.464244905984    -1.630561554038
    H           -1.221022044804    -1.779299320532    -0.260577175589
    H            0.500454685733    -2.096760781531    -0.127165162645
    H           -1.024494461597     1.017566901784    -1.649711677575
    H           -2.059699668110     0.640033940827    -0.286528937368
    H           -0.900023963226     1.959198010451    -0.167785779925
    H            1.543231708154     0.489614578996    -1.462748566374
    H            2.141997370800    -0.180554116303     0.051632744050
    H            1.567035331519     1.477010924200    -0.002465889561

  Mulliken Charges: (a.u.)
   Center  Symbol    Alpha    Beta     Spin     Total
       1     H     0.28301  0.28301  0.00000  0.43397
       2     O     4.37756  4.37756  0.00000 -0.75512
       3     C     2.85148  2.85148  0.00000  0.29704
       4     C     3.23567  3.23567  0.00000 -0.47134
       5     C     3.24913  3.24913  0.00000 -0.49826
       6     C     3.23327  3.23327  0.00000 -0.46654
       7     H     0.42365  0.42365  0.00000  0.15270
       8     H     0.42569  0.42569  0.00000  0.14862
       9     H     0.41250  0.41250  0.00000  0.17500
      10     H     0.41784  0.41784  0.00000  0.16431
      11     H     0.42563  0.42563  0.00000  0.14875
      12     H     0.41243  0.41243  0.00000  0.17513
      13     H     0.42447  0.42447  0.00000  0.15105
      14     H     0.41279  0.41279  0.00000  0.17442
      15     H     0.41487  0.41487  0.00000  0.17026

   Total alpha = 21.00000, Total beta = 21.00000, Total charge =  0.00000
