                              Psi4 1.0.54 Driver

  ==> Input File <==

--------------------------------------------------------------------------
set {
	reference rhf
	basis cc-pvtz
}

set_num_threads( 4 )
memory 2 gb

molecule MOL {
0 1

H	 -2.498963	 -0.741158	 -0.729149
O	 -2.346257	 -0.289210	 0.080372
C	 -1.183935	 0.486039	 -0.009831
C	 0.062853	 -0.375310	 0.027457
H	 -1.178881	 1.094526	 -0.908634
H	 -1.184406	 1.155156	 0.838676
O	 -0.271627	 -1.647655	 -0.420553
H	 0.454855	 -0.418796	 1.044973
H	 0.831794	 0.070896	 -0.599604
C	 0.790375	 -2.542666	 -0.468798
H	 1.228087	 -2.693427	 0.515556
H	 0.410926	 -3.487543	 -0.829232
H	 1.570500	 -2.197480	 -1.143165

	symmetry c1
}
set optking {
	frozen_dihedral = ("
		8 4 3 5
	")
}

ee,wfn = optimize('scf', return_wfn=True)
oeprop( wfn, 'DIPOLE', 'QUADRUPOLE', 'MULLIKEN_CHARGES')
f=open( 'psi4out.xyz', 'w' )
f.write( "13  " )
f.write( str(ee) + "\n" )
f.write( MOL.save_string_xyz() )
f.close()
--------------------------------------------------------------------------

    Molecular point group: c1
  Charge       = 0
  Multiplicity = 1
  Basis Set: CC-PVTZ
  Basis Set:
  @DF-RHF Final Energy:  -268.05476063436754
    Total Energy =                       -268.0547606343674261
    Molecular point group: c1
  Basis Set: CC-PVTZ
  Basis Set:
  Basis Set: CC-PVTZ
  Basis Set:
  @DF-RHF Final Energy:  -268.05697371619817
    Total Energy =                       -268.0569737161982289
  Basis Set: CC-PVTZ
  Basis Set:
  Basis Set: CC-PVTZ
  Basis Set:
  @DF-RHF Final Energy:  -268.05837807941941
    Total Energy =                       -268.0583780794195263
  Basis Set: CC-PVTZ
  Basis Set:
  Basis Set: CC-PVTZ
  Basis Set:
  @DF-RHF Final Energy:  -268.05916505635776
    Total Energy =                       -268.0591650563576422
  Basis Set: CC-PVTZ
  Basis Set:
  Basis Set: CC-PVTZ
  Basis Set:
  @DF-RHF Final Energy:  -268.05924803455838
    Total Energy =                       -268.0592480345585500
  Basis Set: CC-PVTZ
  Basis Set:
  Basis Set: CC-PVTZ
  Basis Set:
  @DF-RHF Final Energy:  -268.05925690269123
    Total Energy =                       -268.0592569026913452
  Basis Set: CC-PVTZ
  Basis Set:
  Charge       = 0
  Multiplicity = 1
  Basis Set: CC-PVTZ
  Basis Set:

    Orbital Energies (a.u.)
    -----------------------

    Doubly Occupied:

       1A    -20.565711     2A    -20.538999     3A    -11.275364
       4A    -11.274290     5A    -11.266973     6A     -1.403116
       7A     -1.356980     8A     -1.019053     9A     -0.927094
      10A     -0.836707    11A     -0.703297    12A     -0.685718
      13A     -0.672744    14A     -0.635052    15A     -0.594633
      16A     -0.577069    17A     -0.547298    18A     -0.498036
      19A     -0.478494    20A     -0.445043    21A     -0.419591

  @DF-RHF Final Energy:  -268.05925748170887

   => Energetics <=

    Nuclear Repulsion Energy =            195.0691673308849943
    One-Electron Energy =                -752.8143297694770126
    Two-Electron Energy =                 289.6859049568830642
    DFT Exchange-Correlation Energy =       0.0000000000000000
    Empirical Dispersion Energy =           0.0000000000000000
    PCM Polarization Energy =               0.0000000000000000
    EFP Energy =                            0.0000000000000000
    Total Energy =                       -268.0592574817089826
    Molecular point group: c1
  Basis Set: CC-PVTZ
  Basis Set:

  -Total Gradient:
     Atom            X                  Y                   Z
    ------   -----------------  -----------------  -----------------
       1       -0.000008557283     0.000016147020     0.000007902766
       2       -0.000013086634    -0.000016639086    -0.000030026096
       3       -0.003990743527    -0.005386953618    -0.004865726244
       4       -0.005027273221    -0.006290233008     0.003000710904
       5        0.004194392271     0.005577384735     0.003590555934
       6        0.000027976487     0.000004316481    -0.000000377388
       7        0.000032986637     0.000011623586     0.000011288404
       8        0.004790640134     0.006072731084    -0.001715426378
       9        0.000006237373     0.000009724001     0.000001887116
      10       -0.000008607805    -0.000008161403    -0.000003991415
      11        0.000000530337     0.000004572449    -0.000000946316
      12       -0.000000552980     0.000002119049     0.000000106153
      13       -0.000003941789     0.000003368711     0.000004042563

  **** Optimization is complete! (in 7 steps) ****
    Final optimized geometry and variables:
    Molecular point group: c1

    Geometry (in Angstrom), charge = 0, multiplicity = 1:

    H           -1.706336057128    -0.085104719116    -0.115144979754
    O           -1.738149067688     0.750962920970     0.315867659729
    C           -0.524325844439     1.399128478042     0.122496417733
    C            0.683546407685     0.459317382687     0.172468057787
    H           -0.504504844013     1.977575369996    -0.797642407962
    H           -0.420462051601     2.124778516778     0.920502097651
    O            0.314547972877    -0.797155635066    -0.294387275531
    H            1.104239855160     0.414956208997     1.174751907135
    H            1.469968697791     0.873913272774    -0.457676923484
    C            1.338543091546    -1.738777562897    -0.305664392906
    H            1.733874387929    -1.902340304244     0.693347532813
    H            0.929893261332    -2.666989457320    -0.676762270449
    H            2.153293960778    -1.428546915092    -0.954882157860

  Mulliken Charges: (a.u.)
   Center  Symbol    Alpha    Beta     Spin     Total
       1     H     0.38304  0.38304  0.00000  0.23393
       2     O     4.20547  4.20547  0.00000 -0.41093
       3     C     2.95842  2.95842  0.00000  0.08317
       4     C     2.96893  2.96893  0.00000  0.06214
       5     H     0.47599  0.47599  0.00000  0.04802
       6     H     0.46607  0.46607  0.00000  0.06786
       7     O     4.18196  4.18196  0.00000 -0.36392
       8     H     0.47307  0.47307  0.00000  0.05386
       9     H     0.47461  0.47461  0.00000  0.05078
      10     C     3.03020  3.03020  0.00000 -0.06040
      11     H     0.46780  0.46780  0.00000  0.06441
      12     H     0.44607  0.44607  0.00000  0.10786
      13     H     0.46838  0.46838  0.00000  0.06324

   Total alpha = 21.00000, Total beta = 21.00000, Total charge = -0.00000

*** Psi4 exiting successfully. Buy a developer a beer!
