  ==> Input File <==

--------------------------------------------------------------------------
set {
	reference rhf
	basis 6-31G*
}

set_num_threads( 4 )
memory 2 gb

molecule MOL {
0 1

O	 3.225979	 0.970355	 -0.599647
C	 2.701189	 0.057885	 -0.047330
C	 1.245376	 -0.013843	 0.345420
O	 3.347903	 -1.046386	 0.304773
C	 0.455112	 1.231400	 -0.050772
H	 0.838542	 -0.913825	 -0.103701
H	 1.208210	 -0.175333	 1.419774
C	 -0.998893	 1.219485	 0.433193
H	 0.482531	 1.345121	 -1.130325
H	 0.957290	 2.103070	 0.354729
C	 -1.883438	 0.145884	 -0.207175
H	 -1.431207	 2.195402	 0.224832
H	 -1.019646	 1.105716	 1.516076
C	 -3.347647	 0.245583	 0.225435
H	 -1.822183	 0.231698	 -1.291012
H	 -1.510341	 -0.844814	 0.042401
C	 -4.122471	 -1.061420	 0.047883
H	 -3.838148	 1.033302	 -0.343901
H	 -3.394643	 0.551073	 1.269545
C	 -5.584756	 -0.952311	 0.478599
H	 -4.075682	 -1.368659	 -0.994737
H	 -3.636190	 -1.849017	 0.619725
H	 -6.107113	 -1.894014	 0.340950
H	 -6.108354	 -0.196185	 -0.099600
H	 -5.665363	 -0.679644	 1.527136
C	 4.728119	 -1.109107	 -0.004993
H	 4.882018	 -1.033965	 -1.071845
H	 5.068212	 -2.067527	 0.355250
H	 5.265056	 -0.311663	 0.488280

	symmetry c1
}
set optking {
	frozen_dihedral = ("
		17 14 11 15
	")
}

ee = optimize('scf')
oeprop('DIPOLE', 'QUADRUPOLE', 'MULLIKEN_CHARGES')
f=open( 'psi4out.xyz', 'w' )
f.write( "29  " )
f.write( str(ee) + "\n" )
f.write( MOL.save_string_xyz() )
f.close()
--------------------------------------------------------------------------

    Molecular point group: c1
  Charge       = 0
  Multiplicity = 1
  Basis Set: 6-31G*
  Basis Set:
  @DF-RHF Final Energy:  -501.04252678036380
    Total Energy =                       -501.0425267803639144
    Molecular point group: c1
  Basis Set: 6-31G*
  Basis Set:
  Basis Set: 6-31G*
  Basis Set:
  @DF-RHF Final Energy:  -501.04261813068399
    Total Energy =                       -501.0426181306839908
  Basis Set: 6-31G*
  Basis Set:
  Basis Set: 6-31G*
  Basis Set:
  @DF-RHF Final Energy:  -501.04269958562281
    Total Energy =                       -501.0426995856228132
  Basis Set: 6-31G*
  Basis Set:
  Basis Set: 6-31G*
  Basis Set:
  @DF-RHF Final Energy:  -501.04270506267630
    Total Energy =                       -501.0427050626757364
  Basis Set: 6-31G*
  Basis Set:
  Charge       = 0
  Multiplicity = 1
  Basis Set: 6-31G*
  Basis Set:

    Orbital Energies (a.u.)
    -----------------------

    Doubly Occupied:

       1A    -20.603354     2A    -20.545177     3A    -11.371985
       4A    -11.280649     5A    -11.234736     6A    -11.218922
       7A    -11.217528     8A    -11.216039     9A    -11.215920
      10A    -11.214414    11A    -11.209041    12A     -1.469051
      13A     -1.362490    14A     -1.097811    15A     -1.066528
      16A     -1.019460    17A     -0.977023    18A     -0.928203
      19A     -0.861794    20A     -0.799712    21A     -0.790325
      22A     -0.763785    23A     -0.700471    24A     -0.682290
      25A     -0.672167    26A     -0.648690    27A     -0.629513
      28A     -0.606243    29A     -0.594390    30A     -0.580911
      31A     -0.566432    32A     -0.550588    33A     -0.531990
      34A     -0.529315    35A     -0.517908    36A     -0.510113
      37A     -0.496324    38A     -0.477681    39A     -0.471418
      40A     -0.460614    41A     -0.459047    42A     -0.455694
      43A     -0.440675    44A     -0.435035

  @DF-RHF Final Energy:  -501.04270510570689

   => Energetics <=

    Nuclear Repulsion Energy =            610.5348370984337407
    One-Electron Energy =               -1892.1921775121322753
    Two-Electron Energy =                 780.6146353079921028
    DFT Exchange-Correlation Energy =       0.0000000000000000
    Empirical Dispersion Energy =           0.0000000000000000
    PCM Polarization Energy =               0.0000000000000000
    EFP Energy =                            0.0000000000000000
    Total Energy =                       -501.0427051057063181
    Molecular point group: c1
  Basis Set: 6-31G*
  Basis Set:

  -Total Gradient:
     Atom            X                  Y                   Z
    ------   -----------------  -----------------  -----------------
       1       -0.000121911474    -0.000234561678    -0.000485551034
       2        0.000342339588     0.000632870548     0.001355179853
       3       -0.000083810263    -0.000192288412    -0.000411728945
       4       -0.000100456261    -0.000176237259    -0.000383348365
       5        0.000019600939    -0.000009070228    -0.000012624180
       6       -0.000089964305    -0.000014400857     0.000020898332
       7        0.000097042496     0.000008891352    -0.000043479242
       8       -0.000019715791    -0.000013652944    -0.000035798269
       9       -0.000004406169    -0.000015463531    -0.000010550820
      10        0.000002468312    -0.000005210434    -0.000025555505
      11       -0.000226241370    -0.004583134318     0.000704869197
      12        0.000005037269     0.000002778530    -0.000000805361
      13       -0.000038746609    -0.000032125131    -0.000010923105
      14       -0.000742782658     0.001781155583    -0.003315889680
      15        0.000389998406     0.003549099345     0.000302474444
      16        0.000016611829    -0.000005609242    -0.000027330845
      17        0.000608278905    -0.000711558078     0.002487412137
      18       -0.000014731733    -0.000007085423    -0.000033593809
      19       -0.000022946285     0.000009213995    -0.000013572871
      20       -0.000004354713     0.000003424742    -0.000019951920
      21       -0.000031714547     0.000044362865     0.000012619674
      22        0.000028074863    -0.000025385886    -0.000022274194
      23        0.000001642049    -0.000000379474     0.000002747291
      24       -0.000018723332     0.000000453598    -0.000001538845
      25        0.000015827752     0.000001838473    -0.000011546371
      26       -0.000003568667    -0.000002514328    -0.000008429643
      27        0.000015641425    -0.000003520473    -0.000004550119
      28       -0.000002213656    -0.000004012947    -0.000008205002
      29       -0.000016276007     0.000002121609     0.000001047198

  **** Optimization is complete! (in 5 steps) ****
    Final optimized geometry and variables:
    Molecular point group: c1

    Geometry (in Angstrom), charge = 0, multiplicity = 1:

    O            3.198503172356     1.024572520763    -0.698569488078
    C            2.688308310395     0.110802040931    -0.134844061590
    C            1.236374612354     0.025811139895     0.269359770238
    O            3.347809226841    -0.987560128232     0.211982060726
    C            0.430098098237     1.261274037172    -0.125302520117
    H            0.835027120385    -0.879875521126    -0.173353247224
    H            1.209205416609    -0.132103783706     1.344533754885
    C           -1.018853406773     1.235421217753     0.372281296296
    H            0.446487405349     1.369703650867    -1.205658221755
    H            0.926913212179     2.140169686317     0.271113411111
    C           -1.896244869651     0.142197315272    -0.247823592261
    H           -1.466938300185     2.203071173891     0.157270818920
    H           -1.028866444206     1.133237162280     1.456382536210
    C           -3.369700127818     0.271838353396     0.158230610638
    H           -1.814257782321     0.217289140304    -1.330613437630
    H           -1.526270212849    -0.839886338350     0.034355464205
    C           -4.168405498040    -1.020714593780    -0.020542741346
    H           -3.833249236491     1.075486122598    -0.409890137274
    H           -3.428570464820     0.569197450274     1.204264752005
    C           -5.642839448859    -0.869065394746     0.351195953457
    H           -4.089870683039    -1.357464508395    -1.052532279328
    H           -3.720033174162    -1.801751503995     0.589444695979
    H           -6.178961843412    -1.804740460523     0.225839578485
    H           -6.129558835269    -0.123204007988    -0.270839211461
    H           -5.755934077959    -0.559211909637     1.386394195691
    C            4.724834506941    -1.039937936698    -0.113497881507
    H            4.865912507319    -0.965734012002    -1.182193055039
    H            5.076643551986    -1.994895746211     0.244666312506
    H            5.260997586292    -0.237254887689     0.372057139146

  Mulliken Charges: (a.u.)
   Center  Symbol    Alpha    Beta     Spin     Total
       1     O     4.28595  4.28595  0.00000 -0.57191
       2     C     2.60483  2.60483  0.00000  0.79034
       3     C     3.20975  3.20975  0.00000 -0.41950
       4     O     4.30746  4.30746  0.00000 -0.61491
       5     C     3.15396  3.15396  0.00000 -0.30793
       6     H     0.39864  0.39864  0.00000  0.20271
       7     H     0.40138  0.40138  0.00000  0.19724
       8     C     3.15772  3.15772  0.00000 -0.31544
       9     H     0.41320  0.41320  0.00000  0.17361
      10     H     0.40879  0.40879  0.00000  0.18242
      11     C     3.15546  3.15546  0.00000 -0.31092
      12     H     0.41817  0.41817  0.00000  0.16367
      13     H     0.42384  0.42384  0.00000  0.15233
      14     C     3.15116  3.15116  0.00000 -0.30232
      15     H     0.42177  0.42177  0.00000  0.15646
      16     H     0.42272  0.42272  0.00000  0.15456
      17     C     3.15207  3.15207  0.00000 -0.30415
      18     H     0.42174  0.42174  0.00000  0.15653
      19     H     0.42386  0.42386  0.00000  0.15227
      20     C     3.23960  3.23960  0.00000 -0.47920
      21     H     0.42300  0.42300  0.00000  0.15400
      22     H     0.42323  0.42323  0.00000  0.15354
      23     H     0.41925  0.41925  0.00000  0.16151
      24     H     0.42149  0.42149  0.00000  0.15703
      25     H     0.42183  0.42183  0.00000  0.15633
      26     C     3.09240  3.09240  0.00000 -0.18481
      27     H     0.40904  0.40904  0.00000  0.18191
      28     H     0.40852  0.40852  0.00000  0.18296
      29     H     0.40917  0.40917  0.00000  0.18166

   Total alpha = 44.00000, Total beta = 44.00000, Total charge =  0.00000
