  ==> Input File <==

--------------------------------------------------------------------------
set {
	reference rhf
	basis cc-pvtz
}

set_num_threads( 4 )
memory 2 gb

molecule MOL {
0 1

O	 0.161797	 1.126862	 -0.530462
C	 0.029490	 0.077183	 0.000078
C	 -1.232113	 -0.748027	 0.000015
O	 0.995625	 -0.520208	 0.677528
C	 -2.501422	 0.088592	 -0.000052
H	 -1.188777	 -1.400384	 -0.865133
H	 -1.188857	 -1.400312	 0.865225
H	 -2.548170	 0.725504	 -0.873205
H	 -3.371613	 -0.556398	 -0.000040
H	 -2.548215	 0.725571	 0.873047
C	 2.239346	 0.146320	 0.758409
H	 2.656833	 0.295146	 -0.226371
H	 2.881978	 -0.492169	 1.342515
H	 2.127040	 1.105292	 1.242151

	symmetry c1
}
set optking {
	frozen_dihedral = ("
		4 2 3 6
	")
}

ee = optimize('scf')
oeprop('DIPOLE', 'QUADRUPOLE', 'MULLIKEN_CHARGES')
f=open( 'psi4out.xyz', 'w' )
f.write( "14  " )
f.write( str(ee) + "\n" )
f.write( MOL.save_string_xyz() )
f.close()
--------------------------------------------------------------------------

    Molecular point group: c1
  Charge       = 0
  Multiplicity = 1
  Basis Set: CC-PVTZ
  Basis Set:
  @DF-RHF Final Energy:  -305.98655376638533
    Total Energy =                       -305.9865537663854980
    Molecular point group: c1
  Basis Set: CC-PVTZ
  Basis Set:
  Basis Set: CC-PVTZ
  Basis Set:
  @DF-RHF Final Energy:  -305.98672229853003
    Total Energy =                       -305.9867222985301964
  Basis Set: CC-PVTZ
  Basis Set:
  Basis Set: CC-PVTZ
  Basis Set:
  @DF-RHF Final Energy:  -305.98685276185222
    Total Energy =                       -305.9868527618519920
  Basis Set: CC-PVTZ
  Basis Set:
  Basis Set: CC-PVTZ
  Basis Set:
  @DF-RHF Final Energy:  -305.98690441821168
    Total Energy =                       -305.9869044182117932
  Basis Set: CC-PVTZ
  Basis Set:
  Charge       = 0
  Multiplicity = 1
  Basis Set: CC-PVTZ
  Basis Set:

    Orbital Energies (a.u.)
    -----------------------

    Doubly Occupied:

       1A    -20.598677     2A    -20.533548     3A    -11.365293
       4A    -11.279234     5A    -11.236801     6A    -11.216797
       7A     -1.473519     8A     -1.366299     9A     -1.065221
      10A     -0.981318    11A     -0.879509    12A     -0.772427
      13A     -0.702158    14A     -0.685477    15A     -0.675616
      16A     -0.621140    17A     -0.603672    18A     -0.552930
      19A     -0.539129    20A     -0.519396    21A     -0.515660
      22A     -0.497560    23A     -0.461196    24A     -0.441440

  @DF-RHF Final Energy:  -305.98690471588691

   => Energetics <=

    Nuclear Repulsion Energy =            247.5708725893862550
    One-Electron Energy =                -907.9475219859787103
    Two-Electron Energy =                 354.3897446807057463
    DFT Exchange-Correlation Energy =       0.0000000000000000
    Empirical Dispersion Energy =           0.0000000000000000
    PCM Polarization Energy =               0.0000000000000000
    EFP Energy =                            0.0000000000000000
    Total Energy =                       -305.9869047158867374
    Molecular point group: c1
  Basis Set: CC-PVTZ
  Basis Set:

  -Total Gradient:
     Atom            X                  Y                   Z
    ------   -----------------  -----------------  -----------------
       1        0.000013368830    -0.000060738803     0.000069679245
       2        0.000227642447    -0.000325036019    -0.001300907887
       3        0.000518175375    -0.000795646466     0.000956908112
       4       -0.000248917412     0.000447562667     0.000912330458
       5        0.000023797642    -0.000018398244     0.000026971864
       6       -0.000516864510     0.000774135501    -0.000603181804
       7        0.000010690447     0.000006931415    -0.000002082559
       8       -0.000005158970    -0.000000399644     0.000001417073
       9       -0.000006875655     0.000003233880    -0.000001537563
      10       -0.000011084212     0.000009152178    -0.000002052751
      11       -0.000011289199    -0.000078608691    -0.000103959566
      12        0.000027947966     0.000017408527     0.000019939380
      13        0.000006908670     0.000011454337     0.000014212796
      14       -0.000028341419     0.000008949360     0.000012263200

  **** Optimization is complete! (in 5 steps) ****
    Final optimized geometry and variables:
    Molecular point group: c1

    Geometry (in Angstrom), charge = 0, multiplicity = 1:

    O            0.166181062793     1.091413613574    -0.656182664166
    C            0.050204130804     0.037791300221    -0.128587767866
    C           -1.206838615201    -0.796165973761    -0.140033321808
    O            1.031893021997    -0.554803547413     0.528764380167
    C           -2.474569525132     0.046938142011    -0.192807987228
    H           -1.143997741374    -1.422573689197    -1.025150804952
    H           -1.198515775268    -1.456271731500     0.715717608224
    H           -2.468732965853     0.698253233001    -1.055031750261
    H           -3.345691388132    -0.593996329189    -0.248983654956
    H           -2.568819139095     0.665917127213     0.691240268296
    C            2.280624230835     0.107164831246     0.562866749892
    H            2.668270288326     0.241889494036    -0.436027209752
    H            2.937922065561    -0.527075560174     1.135143894175
    H            2.186381557867     1.072425911183     1.037511287092

  Mulliken Charges: (a.u.)
   Center  Symbol    Alpha    Beta     Spin     Total
       1     O     4.19975  4.19975  0.00000 -0.39951
       2     C     2.80602  2.80602  0.00000  0.38796
       3     C     3.08959  3.08959  0.00000 -0.17919
       4     O     4.14484  4.14484  0.00000 -0.28968
       5     C     3.14198  3.14198  0.00000 -0.28395
       6     H     0.44580  0.44580  0.00000  0.10841
       7     H     0.43824  0.43824  0.00000  0.12352
       8     H     0.44256  0.44256  0.00000  0.11489
       9     H     0.45004  0.45004  0.00000  0.09993
      10     H     0.45283  0.45283  0.00000  0.09433
      11     C     3.03453  3.03453  0.00000 -0.06906
      12     H     0.45450  0.45450  0.00000  0.09101
      13     H     0.44525  0.44525  0.00000  0.10950
      14     H     0.45407  0.45407  0.00000  0.09185

   Total alpha = 24.00000, Total beta = 24.00000, Total charge = -0.00000
