                              Psi4 1.0.54 Driver

  ==> Input File <==

--------------------------------------------------------------------------
set {
	reference rhf
	basis cc-pvtz
}

set_num_threads( 4 )
memory 2 gb

molecule MOL {
0 1

H	 -2.816458	 -0.841657	 -0.064679
N	 -1.878861	 -0.711874	 0.250184
C	 -1.341419	 0.551458	 -0.220231
H	 -1.333674	 -1.468530	 -0.105118
C	 0.082190	 0.731516	 0.254705
H	 -1.357065	 0.652078	 -1.304747
H	 -1.939897	 1.357530	 0.189797
O	 0.805610	 1.399424	 -0.734370
H	 0.093331	 1.307047	 1.179266
H	 0.527023	 -0.240949	 0.453104
C	 2.154195	 1.567420	 -0.447460
H	 2.606987	 2.094361	 -1.274925
H	 2.298163	 2.151483	 0.459093
H	 2.656778	 0.611040	 -0.323726

	symmetry c1
}
set optking {
	frozen_dihedral = ("
		8 5 3 6
	")
}

ee,wfn = optimize('scf', return_wfn=True)
oeprop( wfn, 'DIPOLE', 'QUADRUPOLE', 'MULLIKEN_CHARGES')
f=open( 'psi4out.xyz', 'w' )
f.write( "14  " )
f.write( str(ee) + "\n" )
f.write( MOL.save_string_xyz() )
f.close()
--------------------------------------------------------------------------

    Molecular point group: c1
  Charge       = 0
  Multiplicity = 1
  Basis Set: CC-PVTZ
  Basis Set:
  @DF-RHF Final Energy:  -248.22027595004815
    Total Energy =                       -248.2202759500481761
    Molecular point group: c1
  Basis Set: CC-PVTZ
  Basis Set:
  Basis Set: CC-PVTZ
  Basis Set:
  @DF-RHF Final Energy:  -248.22106386358473
    Total Energy =                       -248.2210638635845044
  Basis Set: CC-PVTZ
  Basis Set:
  Basis Set: CC-PVTZ
  Basis Set:
  @DF-RHF Final Energy:  -248.22121012746595
    Total Energy =                       -248.2212101274660654
  Basis Set: CC-PVTZ
  Basis Set:
  Basis Set: CC-PVTZ
  Basis Set:
  @DF-RHF Final Energy:  -248.22122597848974
    Total Energy =                       -248.2212259784897697
  Basis Set: CC-PVTZ
  Basis Set:
  Basis Set: CC-PVTZ
  Basis Set:
  @DF-RHF Final Energy:  -248.22123451695447
    Total Energy =                       -248.2212345169544960
  Basis Set: CC-PVTZ
  Basis Set:
  Basis Set: CC-PVTZ
  Basis Set:
  @DF-RHF Final Energy:  -248.22124201107684
    Total Energy =                       -248.2212420110764697
  Basis Set: CC-PVTZ
  Basis Set:
  Charge       = 0
  Multiplicity = 1
  Basis Set: CC-PVTZ
  Basis Set:

    Orbital Energies (a.u.)
    -----------------------

    Doubly Occupied:

       1A    -20.548725     2A    -15.532067     3A    -11.262795
       4A    -11.262204     5A    -11.239781     6A     -1.382785
       7A     -1.181944     8A     -0.998592     9A     -0.900707
      10A     -0.824213    11A     -0.688172    12A     -0.665766
      13A     -0.654956    14A     -0.621034    15A     -0.586972
      16A     -0.568639    17A     -0.516299    18A     -0.498291
      19A     -0.471864    20A     -0.416950    21A     -0.388570

  @DF-RHF Final Energy:  -248.22124224928569

   => Energetics <=

    Nuclear Repulsion Energy =            191.0436538686213339
    One-Electron Energy =                -716.1071376709124934
    Two-Electron Energy =                 276.8422415530055218
    DFT Exchange-Correlation Energy =       0.0000000000000000
    Empirical Dispersion Energy =           0.0000000000000000
    PCM Polarization Energy =               0.0000000000000000
    EFP Energy =                            0.0000000000000000
    Total Energy =                       -248.2212422492855808
    Molecular point group: c1
  Basis Set: CC-PVTZ
  Basis Set:

  -Total Gradient:
     Atom            X                  Y                   Z
    ------   -----------------  -----------------  -----------------
       1        0.000024017189    -0.000008613798    -0.000002176410
       2        0.000022122352     0.000025122992    -0.000020784538
       3        0.000696824205    -0.006351206325    -0.000735809904
       4       -0.000018134923     0.000003750860     0.000005931787
       5       -0.000985579404     0.005072407849     0.001761500054
       6       -0.000426643460     0.004413285830     0.000289929277
       7        0.000000807692     0.000017171395    -0.000007871879
       8        0.000700133993    -0.003162615668    -0.001304590365
       9        0.000002361360     0.000000823001     0.000004117763
      10        0.000007768316    -0.000010567707     0.000006650818
      11       -0.000022922154     0.000004103017     0.000002457976
      12       -0.000005676606    -0.000001863121    -0.000001499854
      13        0.000005892613     0.000002053590     0.000002868994
      14       -0.000000971169    -0.000003851914    -0.000000723715

  **** Optimization is complete! (in 7 steps) ****
    Final optimized geometry and variables:
    Molecular point group: c1

    Geometry (in Angstrom), charge = 0, multiplicity = 1:

    H           -2.945809643889    -1.270087351318     0.233351743823
    N           -1.966609606049    -1.283183327964     0.421550626433
    C           -1.318826796531    -0.091322255612    -0.094689607179
    H           -1.593108742685    -2.106881799203    -0.001521895759
    C            0.112405784307     0.011219638733     0.422128397483
    H           -1.288185496232    -0.015433152617    -1.178434177850
    H           -1.885383467986     0.767070441762     0.246895222738
    O            0.910164687384     0.606809840024    -0.553557213474
    H            0.150384319267     0.578339197987     1.349071220062
    H            0.487030477384    -0.987305315774     0.643023428011
    C            2.229712446712     0.805812425999    -0.170560750568
    H            2.752240215899     1.256701089950    -1.001841342383
    H            2.300987448958     1.469011204981     0.688734763814
    H            2.717477713836    -0.133830582055     0.080983719066

  Mulliken Charges: (a.u.)
   Center  Symbol    Alpha    Beta     Spin     Total
       1     H     0.42723  0.42723  0.00000  0.14554
       2     N     3.69440  3.69440  0.00000 -0.38880
       3     C     3.03390  3.03390  0.00000 -0.06780
       4     H     0.42835  0.42835  0.00000  0.14331
       5     C     2.95593  2.95593  0.00000  0.08814
       6     H     0.45941  0.45941  0.00000  0.08119
       7     H     0.45763  0.45763  0.00000  0.08474
       8     O     4.17389  4.17389  0.00000 -0.34777
       9     H     0.47257  0.47257  0.00000  0.05485
      10     H     0.47650  0.47650  0.00000  0.04700
      11     C     3.02910  3.02910  0.00000 -0.05820
      12     H     0.44733  0.44733  0.00000  0.10533
      13     H     0.47120  0.47120  0.00000  0.05760
      14     H     0.47256  0.47256  0.00000  0.05488

   Total alpha = 21.00000, Total beta = 21.00000, Total charge =  0.00000

*** Psi4 exiting successfully. Buy a developer a beer!
