  ==> Input File <==

--------------------------------------------------------------------------
set {
	reference rhf
	basis 6-31G*
}

set_num_threads( 4 )
memory 2 gb

molecule MOL {
0 1

H	 -2.098997	 -0.674324	 -0.616650
O	 -2.035884	 -0.060112	 0.102722
C	 -0.955155	 0.788182	 -0.092531
C	 0.353668	 0.040312	 -0.004810
H	 -0.985057	 1.290372	 -1.054184
H	 -0.974469	 1.533190	 0.688632
F	 0.868134	 0.140012	 1.215828
F	 0.170096	 -1.245232	 -0.259520
F	 1.253455	 0.496860	 -0.851862

	symmetry c1
}
set optking {
	frozen_dihedral = ("
		7 4 3 5
	")
}

ee = optimize('scf')
oeprop('DIPOLE', 'QUADRUPOLE', 'MULLIKEN_CHARGES')
f=open( 'psi4out.xyz', 'w' )
f.write( "9  " )
f.write( str(ee) + "\n" )
f.write( MOL.save_string_xyz() )
f.close()
--------------------------------------------------------------------------

    Molecular point group: c1
  Charge       = 0
  Multiplicity = 1
  Basis Set: 6-31G*
  Basis Set:
  @DF-RHF Final Energy:  -450.65731205224620
    Total Energy =                       -450.6573120522461977
    Molecular point group: c1
  Basis Set: 6-31G*
  Basis Set:
  Basis Set: 6-31G*
  Basis Set:
  @DF-RHF Final Energy:  -450.65816064895841
    Total Energy =                       -450.6581606489581873
  Basis Set: 6-31G*
  Basis Set:
  Basis Set: 6-31G*
  Basis Set:
  @DF-RHF Final Energy:  -450.65858272921088
    Total Energy =                       -450.6585827292107069
  Basis Set: 6-31G*
  Basis Set:
  Basis Set: 6-31G*
  Basis Set:
  @DF-RHF Final Energy:  -450.65861472345046
    Total Energy =                       -450.6586147234503414
  Basis Set: 6-31G*
  Basis Set:
  Charge       = 0
  Multiplicity = 1
  Basis Set: 6-31G*
  Basis Set:

    Orbital Energies (a.u.)
    -----------------------

    Doubly Occupied:

       1A    -26.347134     2A    -26.340149     3A    -26.340001
       4A    -20.590299     5A    -11.502084     6A    -11.309416
       7A     -1.741098     8A     -1.641323     9A     -1.634996
      10A     -1.402651    11A     -1.045328    12A     -0.924560
      13A     -0.830756    14A     -0.828145    15A     -0.809520
      16A     -0.723450    17A     -0.712922    18A     -0.697980
      19A     -0.665737    20A     -0.658819    21A     -0.642330
      22A     -0.628031    23A     -0.615536    24A     -0.527269
      25A     -0.480179

  @DF-RHF Final Energy:  -450.65861689943381

   => Energetics <=

    Nuclear Repulsion Energy =            276.3459864807015265
    One-Electron Energy =               -1174.7297827870838773
    Two-Electron Energy =                 447.7251794069486550
    DFT Exchange-Correlation Energy =       0.0000000000000000
    Empirical Dispersion Energy =           0.0000000000000000
    PCM Polarization Energy =               0.0000000000000000
    EFP Energy =                            0.0000000000000000
    Total Energy =                       -450.6586168994336958
    Molecular point group: c1
  Basis Set: 6-31G*
  Basis Set:

  -Total Gradient:
     Atom            X                  Y                   Z
    ------   -----------------  -----------------  -----------------
       1        0.000009981462    -0.000002073167    -0.000021838458
       2        0.000159604911     0.000133001411    -0.000019804638
       3       -0.002132430855    -0.004365817374    -0.003252003996
       4       -0.002722867486    -0.004464498962     0.002105527224
       5        0.002333170805     0.004476027477     0.002341376044
       6       -0.000030112814     0.000025172616     0.000024359735
       7        0.002415400604     0.004004672671    -0.001053094326
       8       -0.000021592914     0.000235727119    -0.000075687833
       9       -0.000011153709    -0.000042211788    -0.000048833747

  **** Optimization is complete! (in 5 steps) ****
    Final optimized geometry and variables:
    Molecular point group: c1

    Geometry (in Angstrom), charge = 0, multiplicity = 1:

    H           -2.106903026003    -0.703637761359    -0.561292932229
    O           -2.067409510305    -0.017533312996     0.091266182062
    C           -0.961298097693     0.786447663575    -0.126922350501
    C            0.353771702130     0.026157203622    -0.004822812230
    H           -0.967598242793     1.293209207866    -1.086118475808
    H           -0.966535060656     1.549750493996     0.637250205436
    F            0.867296414118     0.094606590572     1.209870265375
    F            0.213410465899    -1.249766340473    -0.323056612630
    F            1.257964027859     0.543167435168    -0.826850039172

  Mulliken Charges: (a.u.)
   Center  Symbol    Alpha    Beta     Spin     Total
       1     H     0.27236  0.27236  0.00000  0.45528
       2     O     4.35978  4.35978  0.00000 -0.71956
       3     C     3.06682  3.06682  0.00000 -0.13365
       4     C     2.45569  2.45569  0.00000  1.08863
       5     H     0.40676  0.40676  0.00000  0.18649
       6     H     0.39296  0.39296  0.00000  0.21408
       7     F     4.67814  4.67814  0.00000 -0.35627
       8     F     4.68247  4.68247  0.00000 -0.36494
       9     F     4.68504  4.68504  0.00000 -0.37007

   Total alpha = 25.00000, Total beta = 25.00000, Total charge = -0.00000
