  ==> Input File <==

--------------------------------------------------------------------------
set {
	reference rhf
	basis 6-31G*
}

set_num_threads( 4 )
memory 2 gb

molecule MOL {
0 1

H	 2.465338	 -2.224223	 0.000000
O	 2.784187	 -1.332015	 0.000000
C	 1.765313	 -0.449364	 0.000000
C	 1.687308	 0.435962	 1.070540
C	 0.821981	 -0.402118	 -1.007981
H	 2.432528	 0.379243	 1.841441
C	 0.667419	 1.363124	 1.127659
H	 0.857815	 -1.072018	 -1.844328
C	 -0.188749	 0.541452	 -0.918993
H	 0.614791	 2.042818	 1.957782
C	 -0.292794	 1.430600	 0.127018
N	 -1.184089	 0.587167	 -1.987962
H	 -1.089797	 2.144230	 0.157372
O	 -1.071565	 -0.194527	 -2.883687
O	 -2.050652	 1.402179	 -1.903774

	symmetry c1
}
set optking {
	frozen_dihedral = ("
		4 3 2 1
	")
}

ee = optimize('scf')
oeprop('DIPOLE', 'QUADRUPOLE', 'MULLIKEN_CHARGES')
f=open( 'psi4out.xyz', 'w' )
f.write( "15  " )
f.write( str(ee) + "\n" )
f.write( MOL.save_string_xyz() )
f.close()
--------------------------------------------------------------------------

    Molecular point group: c1
  Charge       = 0
  Multiplicity = 1
  Basis Set: 6-31G*
  Basis Set:
  @DF-RHF Final Energy:  -509.02395797527066
    Total Energy =                       -509.0239579752702639
    Molecular point group: c1
  Basis Set: 6-31G*
  Basis Set:
  Basis Set: 6-31G*
  Basis Set:
  @DF-RHF Final Energy:  -509.02413647746903
    Total Energy =                       -509.0241364774693693
  Basis Set: 6-31G*
  Basis Set:
  Basis Set: 6-31G*
  Basis Set:
  @DF-RHF Final Energy:  -509.02388648523424
    Total Energy =                       -509.0238864852342431
  Basis Set: 6-31G*
  Basis Set:
  Basis Set: 6-31G*
  Basis Set:
  @DF-RHF Final Energy:  -509.02438437483414
    Total Energy =                       -509.0243843748347672
  Basis Set: 6-31G*
  Basis Set:
  Basis Set: 6-31G*
  Basis Set:
  @DF-RHF Final Energy:  -509.02437151914700
    Total Energy =                       -509.0243715191467118
  Basis Set: 6-31G*
  Basis Set:
  Basis Set: 6-31G*
  Basis Set:
  @DF-RHF Final Energy:  -509.02440719405877
    Total Energy =                       -509.0244071940589947
  Basis Set: 6-31G*
  Basis Set:
  Charge       = 0
  Multiplicity = 1
  Basis Set: 6-31G*
  Basis Set:

    Orbital Energies (a.u.)
    -----------------------

    Doubly Occupied:

       1A    -20.604413     2A    -20.604302     3A    -20.604178
       4A    -15.859123     5A    -11.323274     6A    -11.309948
       7A    -11.268564     8A    -11.268377     9A    -11.266145
      10A    -11.263626    11A     -1.637817    12A     -1.422363
      13A     -1.421047    14A     -1.200859    15A     -1.094808
      16A     -1.046533    17A     -0.964817    18A     -0.871444
      19A     -0.830239    20A     -0.791432    21A     -0.742284
      22A     -0.736763    23A     -0.722805    24A     -0.708918
      25A     -0.677137    26A     -0.640926    27A     -0.625486
      28A     -0.569675    29A     -0.554789    30A     -0.534438
      31A     -0.512978    32A     -0.490895    33A     -0.486887
      34A     -0.454519    35A     -0.377136    36A     -0.354651

  @DF-RHF Final Energy:  -509.02440787309268

   => Energetics <=

    Nuclear Repulsion Energy =            502.9488639489416641
    One-Electron Energy =               -1692.2593560996740507
    Two-Electron Energy =                 680.2860842776394747
    DFT Exchange-Correlation Energy =       0.0000000000000000
    Empirical Dispersion Energy =           0.0000000000000000
    PCM Polarization Energy =               0.0000000000000000
    EFP Energy =                            0.0000000000000000
    Total Energy =                       -509.0244078730929687
    Molecular point group: c1
  Basis Set: 6-31G*
  Basis Set:

  -Total Gradient:
     Atom            X                  Y                   Z
    ------   -----------------  -----------------  -----------------
       1        0.000052485273    -0.000045356192     0.002034503283
       2       -0.000401187241    -0.000505714617    -0.002141687268
       3        0.001087457924     0.001535531914    -0.000777150771
       4       -0.000849599939    -0.000890186714     0.000814262564
       5        0.000123333678    -0.000090191611     0.000057808616
       6        0.000002267058    -0.000004580559    -0.000008937754
       7        0.000083509079    -0.000088674599     0.000082454001
       8        0.000000035640     0.000005919245    -0.000010030244
       9       -0.000084871398     0.000107767799     0.000078009795
      10       -0.000013235320     0.000007118517    -0.000006342465
      11       -0.000004576241    -0.000017632368    -0.000156256843
      12       -0.000007379211    -0.000049698790     0.000015874983
      13       -0.000000575762     0.000000170861     0.000017608170
      14        0.000012102815     0.000022149863     0.000009255946
      15        0.000000233648     0.000013377249    -0.000009372018

  **** Optimization is complete! (in 7 steps) ****
    Final optimized geometry and variables:
    Molecular point group: c1

    Geometry (in Angstrom), charge = 0, multiplicity = 1:

    H            2.203423235464    -2.533143052258     0.670424249695
    O            2.527104937667    -1.642094359980     0.674004664773
    C            1.495983145629    -0.753120644812     0.713338172385
    C            1.414845983209     0.128842890552     1.780553346439
    C            0.558867686145    -0.706072590581    -0.301938603039
    H            2.156212901831     0.070875999739     2.555330612231
    C            0.399034538938     1.067552330958     1.830795282975
    H            0.616926628191    -1.372632686201    -1.138577764522
    C           -0.453339678429     0.232847278780    -0.217576289995
    H            0.343899927752     1.750582878347     2.657926324553
    C           -0.554500668522     1.128604305769     0.828373991705
    N           -1.449130309768     0.278294655921    -1.284825666486
    H           -1.350966603292     1.843397959208     0.852797308283
    O           -1.357567320633    -0.525163615054    -2.162886270259
    O           -2.297331735765     1.114547172183    -1.215274523281

  Mulliken Charges: (a.u.)
   Center  Symbol    Alpha    Beta     Spin     Total
       1     H     0.26775  0.26775  0.00000  0.46451
       2     O     4.38325  4.38325  0.00000 -0.76650
       3     C     2.81254  2.81254  0.00000  0.37492
       4     C     3.10312  3.10312  0.00000 -0.20624
       5     C     3.11740  3.11740  0.00000 -0.23481
       6     H     0.38166  0.38166  0.00000  0.23667
       7     C     3.10463  3.10463  0.00000 -0.20926
       8     H     0.36245  0.36245  0.00000  0.27509
       9     C     2.91699  2.91699  0.00000  0.16602
      10     H     0.38650  0.38650  0.00000  0.22699
      11     C     3.09187  3.09187  0.00000 -0.18375
      12     N     3.24056  3.24056  0.00000  0.51888
      13     H     0.36434  0.36434  0.00000  0.27132
      14     O     4.23409  4.23409  0.00000 -0.46819
      15     O     4.23283  4.23283  0.00000 -0.46566

   Total alpha = 36.00000, Total beta = 36.00000, Total charge = -0.00000
