  ==> Input File <==

--------------------------------------------------------------------------
set {
	reference rhf
	basis cc-pvtz
}

set_num_threads( 4 )
memory 2 gb

molecule MOL {
0 1

H	 2.153881	 -0.374593	 -0.692085
O	 1.583947	 -0.677544	 -0.001533
C	 0.489979	 0.078084	 0.002623
C	 -0.763662	 -0.754014	 0.000816
O	 0.539051	 1.259395	 -0.000088
C	 -2.038001	 0.074705	 -0.000833
H	 -0.712945	 -1.405886	 -0.864342
H	 -0.715137	 -1.405770	 0.866182
H	 -2.087267	 0.710831	 -0.874232
H	 -2.903419	 -0.576199	 -0.001922
H	 -2.089467	 0.710909	 0.872389

	symmetry c1
}
set optking {
	frozen_dihedral = ("
		1 2 3 5
	")
}

ee = optimize('scf')
oeprop('DIPOLE', 'QUADRUPOLE', 'MULLIKEN_CHARGES')
f=open( 'psi4out.xyz', 'w' )
f.write( "11  " )
f.write( str(ee) + "\n" )
f.write( MOL.save_string_xyz() )
f.close()
--------------------------------------------------------------------------

    Molecular point group: c1
  Charge       = 0
  Multiplicity = 1
  Basis Set: CC-PVTZ
  Basis Set:
  @DF-RHF Final Energy:  -266.94137653160107
    Total Energy =                       -266.9413765316009517
    Molecular point group: c1
  Basis Set: CC-PVTZ
  Basis Set:
  Basis Set: CC-PVTZ
  Basis Set:
  @DF-RHF Final Energy:  -266.93950305011731
    Total Energy =                       -266.9395030501173096
  Basis Set: CC-PVTZ
  Basis Set:
  Basis Set: CC-PVTZ
  Basis Set:
  @DF-RHF Final Energy:  -266.94245358198430
    Total Energy =                       -266.9424535819844095
  Basis Set: CC-PVTZ
  Basis Set:
  Basis Set: CC-PVTZ
  Basis Set:
  @DF-RHF Final Energy:  -266.94253711434004
    Total Energy =                       -266.9425371143400980
  Basis Set: CC-PVTZ
  Basis Set:
  @DF-RHF Final Energy:  -266.94254454952625
    Total Energy =                       -266.9425445495263034
  @DF-RHF Final Energy:  -266.94254354010661
    Total Energy =                       -266.9425435401067830
  @DF-RHF Final Energy:  -266.94002045070016
    Total Energy =                       -266.9400204507001035
  @DF-RHF Final Energy:  -266.84903309531023
    Total Energy =                       -266.8490330953101193
  @DF-RHF Final Energy:  -266.92658689463155
    Total Energy =                       -266.9265868946316687
  @DF-RHF Final Energy:  -266.94117276551515
    Total Energy =                       -266.9411727655151481
  @DF-RHF Final Energy:  -266.94197565754138
    Total Energy =                       -266.9419756575414340
  @DF-RHF Final Energy:  -266.94233752922463
    Total Energy =                       -266.9423375292244600
  @DF-RHF Final Energy:  -266.94244402582012
    Total Energy =                       -266.9424440258201230
  @DF-RHF Final Energy:  -266.94251720927127
    Total Energy =                       -266.9425172092711591
  @DF-RHF Final Energy:  -266.94253860198495
    Total Energy =                       -266.9425386019846655
  @DF-RHF Final Energy:  -266.94254264827362
    Total Energy =                       -266.9425426482735020
  @DF-RHF Final Energy:  -266.94254300934784
    Total Energy =                       -266.9425430093479008
  @DF-RHF Final Energy:  -266.93948747363379
    Total Energy =                       -266.9394874736336192
  @DF-RHF Final Energy:  -266.91721436865140
    Total Energy =                       -266.9172143686513436
  @DF-RHF Final Energy:  -266.93957601644684
    Total Energy =                       -266.9395760164467220
  @DF-RHF Final Energy:  -266.94251714637733
    Total Energy =                       -266.9425171463774404
  @DF-RHF Final Energy:  -266.94251702567260
    Total Energy =                       -266.9425170256727142
  @DF-RHF Final Energy:  -266.94228452218545
    Total Energy =                       -266.9422845221854459
  @DF-RHF Final Energy:  -266.94251670054757
    Total Energy =                       -266.9425167005475714
  @DF-RHF Final Energy:  -266.94251652202843
    Total Energy =                       -266.9425165220283134
  @DF-RHF Final Energy:  -266.94251653643312
    Total Energy =                       -266.9425165364334589
  @DF-RHF Final Energy:  -266.94251606069133
    Total Energy =                       -266.9425160606914460
  @DF-RHF Final Energy:  -266.94251577326088
    Total Energy =                       -266.9425157732612206
  @DF-RHF Final Energy:  -266.94251628457039
    Total Energy =                       -266.9425162845703881
  @DF-RHF Final Energy:  -266.94251604505018
    Total Energy =                       -266.9425160450504109
  @DF-RHF Final Energy:  -266.94251485241841
    Total Energy =                       -266.9425148524183555
  @DF-RHF Final Energy:  -266.94249574541095
    Total Energy =                       -266.9424957454109517
  @DF-RHF Final Energy:  -266.94251595528124
    Total Energy =                       -266.9425159552812943
  @DF-RHF Final Energy:  -266.94251575864797
    Total Energy =                       -266.9425157586476871
  @DF-RHF Final Energy:  -266.94249259972185
    Total Energy =                       -266.9424925997220726
  @DF-RHF Final Energy:  -266.94251588581767
    Total Energy =                       -266.9425158858173290
  Basis Set: CC-PVTZ
  Basis Set:
  @DF-RHF Final Energy:  -266.94251552879950
    Total Energy =                       -266.9425155287995040
  Basis Set: CC-PVTZ
  Basis Set:
  Basis Set: CC-PVTZ
  Basis Set:
  @DF-RHF Final Energy:  -266.94249495579726
    Total Energy =                       -266.9424949557973719
  Basis Set: CC-PVTZ
  Basis Set:
  Basis Set: CC-PVTZ
  Basis Set:
  @DF-RHF Final Energy:  -266.94251590749985
    Total Energy =                       -266.9425159074999101
  Basis Set: CC-PVTZ
  Basis Set:
  Charge       = 0
  Multiplicity = 1
  Basis Set: CC-PVTZ
  Basis Set:

    Orbital Energies (a.u.)
    -----------------------

    Doubly Occupied:

       1A    -20.595696     2A    -20.546930     3A    -11.374659
       4A    -11.242287     5A    -11.218457     6A     -1.470265
       7A     -1.371888     8A     -1.065183     9A     -0.915653
      10A     -0.805251    11A     -0.709463    12A     -0.687075
      13A     -0.662060    14A     -0.610838    15A     -0.576916
      16A     -0.529122    17A     -0.527037    18A     -0.505143
      19A     -0.489167    20A     -0.448734

  @DF-RHF Final Energy:  -266.94251568629829

   => Energetics <=

    Nuclear Repulsion Energy =            179.7816152646692842
    One-Electron Energy =                -720.7446165922783621
    Two-Electron Energy =                 274.0204856413106427
    DFT Exchange-Correlation Energy =       0.0000000000000000
    Empirical Dispersion Energy =           0.0000000000000000
    PCM Polarization Energy =               0.0000000000000000
    EFP Energy =                            0.0000000000000000
    Total Energy =                       -266.9425156862984068
    Molecular point group: c1
  Basis Set: CC-PVTZ
  Basis Set:

  -Total Gradient:
     Atom            X                  Y                   Z
    ------   -----------------  -----------------  -----------------
       1       -0.004248262578    -0.007054246501    -0.007507822062
       2        0.003534645485     0.008816373588     0.014885162997
       3        0.001905604365    -0.001244882710    -0.019440885902
       4       -0.000104240275     0.000025407168     0.000957074496
       5       -0.001383608748    -0.000259800899     0.011110075629
       6        0.000285227917    -0.000135595883    -0.000122378671
       7        0.000019825154    -0.000020933175     0.000026663521
       8       -0.000053059306    -0.000080622581     0.000071266597
       9       -0.000028702585     0.000030703977    -0.000026182372
      10        0.000026064634    -0.000007435709     0.000039111887
      11        0.000046505934    -0.000068967276     0.000007913880

    Molecular point group: c1

    Geometry (in Angstrom), charge = 0, multiplicity = 1:

    H            2.250850121309    -0.398739653197    -0.557712560363
    O            1.595165559288    -0.676351427092     0.061555253174
    C            0.491400122017     0.085883485779    -0.040468128790
    C           -0.762350058766    -0.745573422209    -0.005499138011
    O            0.532082979600     1.262951922674    -0.038150670763
    C           -2.039249029200     0.075456695345     0.048099378173
    H           -0.742019583462    -1.392475267099    -0.876584754199
    H           -0.675201696402    -1.406153235873     0.850393405059
    H           -2.125676711081     0.719918138751    -0.816234668546
    H           -2.901640517457    -0.579176610957     0.074352516648
    H           -2.060146318482     0.703216190910     0.928951669402

  Mulliken Charges: (a.u.)
   Center  Symbol    Alpha    Beta     Spin     Total
       1     H     0.38135  0.38135  0.00000  0.23730
       2     O     4.17168  4.17168  0.00000 -0.34336
       3     C     2.80374  2.80374  0.00000  0.39252
       4     C     3.09976  3.09976  0.00000 -0.19952
       5     O     4.17491  4.17491  0.00000 -0.34983
       6     C     3.13957  3.13957  0.00000 -0.27914
       7     H     0.44441  0.44441  0.00000  0.11119
       8     H     0.43881  0.43881  0.00000  0.12238
       9     H     0.44866  0.44866  0.00000  0.10269
      10     H     0.44986  0.44986  0.00000  0.10027
      11     H     0.44725  0.44725  0.00000  0.10550

   Total alpha = 20.00000, Total beta = 20.00000, Total charge = -0.00000
