  ==> Input File <==

--------------------------------------------------------------------------
set {
	reference rhf
	basis 6-31G*
}

set_num_threads( 4 )
memory 2 gb

molecule MOL {
0 1

H	 2.591676	 2.013956	 0.335017
O	 3.341076	 1.666752	 -0.126416
C	 3.569581	 0.339145	 0.272707
C	 2.539767	 -0.640285	 -0.279495
H	 4.553106	 0.084646	 -0.100901
H	 3.608576	 0.269204	 1.359154
C	 1.115811	 -0.397273	 0.226630
H	 2.556196	 -0.582511	 -1.364741
H	 2.852081	 -1.648031	 -0.010655
C	 1.011464	 -0.463042	 1.752934
H	 0.449530	 -1.133285	 -0.214643
H	 0.772668	 0.580085	 -0.113024
C	 -0.377181	 -0.142279	 2.317839
H	 1.317683	 -1.451564	 2.090426
H	 1.726664	 0.237301	 2.179208
C	 -1.466752	 -1.158773	 1.965628
H	 -0.299127	 -0.079203	 3.401235
H	 -0.683249	 0.846468	 1.979403
C	 -2.807041	 -0.852884	 2.637560
H	 -1.137513	 -2.154366	 2.259749
H	 -1.613482	 -1.192148	 0.888754
C	 -3.898133	 -1.862417	 2.282559
H	 -2.672169	 -0.832414	 3.716855
H	 -3.132870	 0.145358	 2.352543
H	 -3.616070	 -2.867060	 2.584811
H	 -4.834557	 -1.619718	 2.775351
H	 -4.083059	 -1.880298	 1.212117

	symmetry c1
}
set optking {
	frozen_dihedral = ("
		10 7 4 8
	")
}

ee = optimize('scf')
oeprop('DIPOLE', 'QUADRUPOLE', 'MULLIKEN_CHARGES')
f=open( 'psi4out.xyz', 'w' )
f.write( "27  " )
f.write( str(ee) + "\n" )
f.write( MOL.save_string_xyz() )
f.close()
--------------------------------------------------------------------------

    Molecular point group: c1
  Charge       = 0
  Multiplicity = 1
  Basis Set: 6-31G*
  Basis Set:
  @DF-RHF Final Energy:  -388.27863345048979
    Total Energy =                       -388.2786334504895649
    Molecular point group: c1
  Basis Set: 6-31G*
  Basis Set:
  Basis Set: 6-31G*
  Basis Set:
  @DF-RHF Final Energy:  -388.27920507430053
    Total Energy =                       -388.2792050743013306
  Basis Set: 6-31G*
  Basis Set:
  Basis Set: 6-31G*
  Basis Set:
  @DF-RHF Final Energy:  -388.27976602788027
    Total Energy =                       -388.2797660278804415
  Basis Set: 6-31G*
  Basis Set:
  Basis Set: 6-31G*
  Basis Set:
  @DF-RHF Final Energy:  -388.27975569821888
    Total Energy =                       -388.2797556982194465
  Basis Set: 6-31G*
  Basis Set:
  @DF-RHF Final Energy:  -388.27977335235573
    Total Energy =                       -388.2797733523559600
  Basis Set: 6-31G*
  Basis Set:
  @DF-RHF Final Energy:  -388.27981838876207
    Total Energy =                       -388.2798183887620098
  Basis Set: 6-31G*
  Basis Set:
  Basis Set: 6-31G*
  Basis Set:
  @DF-RHF Final Energy:  -388.27981738585908
    Total Energy =                       -388.2798173858591326
  Basis Set: 6-31G*
  Basis Set:
  Basis Set: 6-31G*
  Basis Set:
  @DF-RHF Final Energy:  -388.27981939881789
    Total Energy =                       -388.2798193988178355
  Basis Set: 6-31G*
  Basis Set:
  Charge       = 0
  Multiplicity = 1
  Basis Set: 6-31G*
  Basis Set:

    Orbital Energies (a.u.)
    -----------------------

    Doubly Occupied:

       1A    -20.552110     2A    -11.265789     3A    -11.220971
       4A    -11.219413     5A    -11.218362     6A    -11.217055
       7A    -11.215718     8A    -11.215541     9A    -11.210079
      10A     -1.358629    11A     -1.096423    12A     -1.061427
      13A     -1.011362    14A     -0.947658    15A     -0.893739
      16A     -0.827458    17A     -0.798583    18A     -0.773696
      19A     -0.693192    20A     -0.648651    21A     -0.645693
      22A     -0.610618    23A     -0.601279    24A     -0.586574
      25A     -0.572328    26A     -0.565327    27A     -0.544460
      28A     -0.526000    29A     -0.510488    30A     -0.498818
      31A     -0.485817    32A     -0.473078    33A     -0.466492
      34A     -0.462276    35A     -0.452755    36A     -0.441249
      37A     -0.423301

  @DF-RHF Final Energy:  -388.27981949931132

   => Energetics <=

    Nuclear Repulsion Energy =            463.3359150054761812
    One-Electron Energy =               -1444.6066434224885597
    Two-Electron Energy =                 592.9909089177010628
    DFT Exchange-Correlation Energy =       0.0000000000000000
    Empirical Dispersion Energy =           0.0000000000000000
    PCM Polarization Energy =               0.0000000000000000
    EFP Energy =                            0.0000000000000000
    Total Energy =                       -388.2798194993113157
    Molecular point group: c1
  Basis Set: 6-31G*
  Basis Set:

  -Total Gradient:
     Atom            X                  Y                   Z
    ------   -----------------  -----------------  -----------------
       1       -0.000002342812     0.000007177960    -0.000000358653
       2       -0.000012090245     0.000008975956     0.000006643059
       3        0.000015740969    -0.000011418028    -0.000013307839
       4       -0.000261672464    -0.000979768575    -0.000071357938
       5        0.000004960219    -0.000007531104     0.000001744955
       6       -0.000001606508     0.000001388873     0.000002720315
       7       -0.000239512275    -0.000902568378    -0.000065331316
       8        0.000290248708     0.001082428435     0.000075928052
       9       -0.000002972399    -0.000001731754     0.000002256917
      10        0.000211741244     0.000802331699     0.000056232079
      11       -0.000005933085    -0.000000184418    -0.000003857462
      12       -0.000000123716    -0.000001913403    -0.000000937445
      13        0.000003569925    -0.000001233513     0.000001621849
      14       -0.000000718390    -0.000002867122     0.000002257099
      15        0.000003280681     0.000003468170     0.000003332134
      16        0.000003781491     0.000006003190    -0.000006375107
      17       -0.000000126518     0.000000111084     0.000007187433
      18       -0.000002467831     0.000003794964    -0.000002510353
      19        0.000002866560    -0.000006073285     0.000008143572
      20        0.000001859151     0.000000765379     0.000004282941
      21        0.000001623041    -0.000004334242    -0.000009436943
      22       -0.000003452140     0.000005489320    -0.000004211206
      23       -0.000000055488    -0.000001283426     0.000006616814
      24       -0.000001898994     0.000002298817     0.000000839452
      25        0.000000847682    -0.000001426895     0.000004480111
      26       -0.000005874071     0.000001051776    -0.000000846684
      27        0.000000327265    -0.000002951483    -0.000005755834

  **** Optimization is complete! (in 9 steps) ****
    Final optimized geometry and variables:
    Molecular point group: c1

    Geometry (in Angstrom), charge = 0, multiplicity = 1:

    H            2.380827074432     2.334224280912    -0.775694374291
    O            3.074748282595     1.976907758726    -1.310802373616
    C            3.262548527283     0.619724129248    -0.998806873443
    C            2.128629448809    -0.269750921526    -1.502201150903
    H            4.185080501595     0.331046484929    -1.485929575257
    H            3.414828815806     0.491505335711     0.070131316245
    C            0.733962798645     0.059870241533    -0.952860667651
    H            2.101288163966    -0.184194298405    -2.584871948622
    H            2.376957167244    -1.303638598179    -1.268397903096
    C            0.607461034050    -0.017007911890     0.572857223559
    H            0.027362345234    -0.623512828486    -1.412909143285
    H            0.442287022459     1.053987252707    -1.287303126673
    C           -0.802227716014     0.266948284426     1.107700867507
    H            0.930027186379    -0.999550286869     0.914152923167
    H            1.289128640529     0.696215680491     1.030767775694
    C           -1.848618958056    -0.797632924468     0.766789982466
    H           -0.745112588236     0.360720432827     2.190115340578
    H           -1.138706593349     1.234604474104     0.738326426065
    C           -3.211444363923    -0.517533971158     1.403952452011
    H           -1.490941502055    -1.770896342140     1.099966853511
    H           -1.973329429821    -0.870476496851    -0.310534134337
    C           -4.259127061488    -1.576823310731     1.063532146395
    H           -3.098394251676    -0.456298484863     2.484245046899
    H           -3.566690234347     0.458174758757     1.079042847621
    H           -3.948248621859    -2.559925543084     1.405788892156
    H           -5.213085478281    -1.351007493771     1.529953039123
    H           -4.421709738850    -1.637440057733    -0.008913182579

  Mulliken Charges: (a.u.)
   Center  Symbol    Alpha    Beta     Spin     Total
       1     H     0.27982  0.27982  0.00000  0.44035
       2     O     4.37152  4.37152  0.00000 -0.74304
       3     C     3.00022  3.00022  0.00000 -0.00044
       4     C     3.16184  3.16184  0.00000 -0.32368
       5     H     0.41430  0.41430  0.00000  0.17140
       6     H     0.42915  0.42915  0.00000  0.14170
       7     C     3.16626  3.16626  0.00000 -0.33252
       8     H     0.41388  0.41388  0.00000  0.17223
       9     H     0.42441  0.42441  0.00000  0.15118
      10     C     3.15687  3.15687  0.00000 -0.31375
      11     H     0.41489  0.41489  0.00000  0.17021
      12     H     0.42346  0.42346  0.00000  0.15308
      13     C     3.15256  3.15256  0.00000 -0.30513
      14     H     0.42205  0.42205  0.00000  0.15591
      15     H     0.42568  0.42568  0.00000  0.14864
      16     C     3.15277  3.15277  0.00000 -0.30554
      17     H     0.42104  0.42104  0.00000  0.15793
      18     H     0.42443  0.42443  0.00000  0.15114
      19     C     3.15135  3.15135  0.00000 -0.30271
      20     H     0.42417  0.42417  0.00000  0.15166
      21     H     0.42171  0.42171  0.00000  0.15657
      22     C     3.23929  3.23929  0.00000 -0.47859
      23     H     0.42300  0.42300  0.00000  0.15399
      24     H     0.42284  0.42284  0.00000  0.15432
      25     H     0.42173  0.42173  0.00000  0.15654
      26     H     0.41904  0.41904  0.00000  0.16192
      27     H     0.42170  0.42170  0.00000  0.15660

   Total alpha = 37.00000, Total beta = 37.00000, Total charge =  0.00000
