  ==> Input File <==

--------------------------------------------------------------------------
set {
	reference rhf
	basis cc-pvtz
}

set_num_threads( 4 )
memory 2 gb

molecule MOL {
0 1

H	 -1.835082	 1.385983	 0.000069
C	 -1.300516	 0.441153	 -0.000028
O	 -0.006604	 0.654344	 -0.000106
O	 -1.828920	 -0.612308	 0.000113
C	 0.848987	 -0.463588	 0.219014
C	 2.275057	 0.031394	 0.174077
H	 0.659143	 -1.203754	 -0.545231
H	 0.609476	 -0.904381	 1.176250
H	 2.499532	 0.473486	 -0.788283
H	 2.953568	 -0.797268	 0.337771
H	 2.449610	 0.774389	 0.941839

	symmetry c1
}
set optking {
	frozen_dihedral = ("
		5 3 2 4
	")
}

ee = optimize('scf')
oeprop('DIPOLE', 'QUADRUPOLE', 'MULLIKEN_CHARGES')
f=open( 'psi4out.xyz', 'w' )
f.write( "11  " )
f.write( str(ee) + "\n" )
f.write( MOL.save_string_xyz() )
f.close()
--------------------------------------------------------------------------

    Molecular point group: c1
  Charge       = 0
  Multiplicity = 1
  Basis Set: CC-PVTZ
  Basis Set:
  @DF-RHF Final Energy:  -266.93124155650008
    Total Energy =                       -266.9312415565001402
    Molecular point group: c1
  Basis Set: CC-PVTZ
  Basis Set:
  Basis Set: CC-PVTZ
  Basis Set:
  @DF-RHF Final Energy:  -266.92934736724362
    Total Energy =                       -266.9293473672437358
  Basis Set: CC-PVTZ
  Basis Set:
  Basis Set: CC-PVTZ
  Basis Set:
  @DF-RHF Final Energy:  -266.93130926166180
    Total Energy =                       -266.9313092616617382
  Basis Set: CC-PVTZ
  Basis Set:
  Basis Set: CC-PVTZ
  Basis Set:
  @DF-RHF Final Energy:  -266.93132321426663
    Total Energy =                       -266.9313232142667403
  Basis Set: CC-PVTZ
  Basis Set:
  Charge       = 0
  Multiplicity = 1
  Basis Set: CC-PVTZ
  Basis Set:

    Orbital Energies (a.u.)
    -----------------------

    Doubly Occupied:

       1A    -20.605141     2A    -20.546065     3A    -11.370193
       4A    -11.290254     5A    -11.225208     6A     -1.479262
       7A     -1.377505     8A     -1.053817     9A     -0.903599
      10A     -0.806392    11A     -0.740670    12A     -0.693237
      13A     -0.682358    14A     -0.594853    15A     -0.577227
      16A     -0.558325    17A     -0.519435    18A     -0.516211
      19A     -0.463960    20A     -0.457873

  @DF-RHF Final Energy:  -266.93132456100500

   => Energetics <=

    Nuclear Repulsion Energy =            179.5928894305532992
    One-Electron Energy =                -720.1252594374182081
    Two-Electron Energy =                 273.6010454458599952
    DFT Exchange-Correlation Energy =       0.0000000000000000
    Empirical Dispersion Energy =           0.0000000000000000
    PCM Polarization Energy =               0.0000000000000000
    EFP Energy =                            0.0000000000000000
    Total Energy =                       -266.9313245610048853
    Molecular point group: c1
  Basis Set: CC-PVTZ
  Basis Set:

  -Total Gradient:
     Atom            X                  Y                   Z
    ------   -----------------  -----------------  -----------------
       1        0.000046921387     0.000007979556     0.000004054471
       2        0.000211396851     0.000485788747     0.006816501279
       3       -0.000157295527    -0.000896952966    -0.005884190980
       4       -0.000076494970    -0.000149699467    -0.003584227422
       5       -0.000000701306     0.000520950757     0.002632432465
       6       -0.000008366000     0.000022039839     0.000016371232
       7       -0.000013824004    -0.000009437253    -0.000005435194
       8        0.000001476630     0.000018318222    -0.000003754898
       9       -0.000007390226    -0.000005382410     0.000004098965
      10       -0.000008602733    -0.000001948222     0.000001359615
      11        0.000012879897     0.000008343197     0.000002790465

  **** Optimization is complete! (in 5 steps) ****
    Final optimized geometry and variables:
    Molecular point group: c1

    Geometry (in Angstrom), charge = 0, multiplicity = 1:

    H           -1.829493564512     1.382873243216    -0.111662214075
    C           -1.299004066192     0.436725359835    -0.068502409031
    O           -0.004072836126     0.641358146433    -0.116755224567
    O           -1.832304139731    -0.612931125947    -0.018283174780
    C            0.852212904484    -0.474591578492     0.109897857015
    C            2.276835790829     0.026093314258     0.092062505280
    H            0.679998332212    -1.212964834495    -0.660044395128
    H            0.597267885782    -0.919687729232     1.061395107910
    H            2.515415800233     0.473535040380    -0.864396770786
    H            2.955698947085    -0.800887022515     0.262754498230
    H            2.435719949522     0.766151814344     0.866050180445

  Mulliken Charges: (a.u.)
   Center  Symbol    Alpha    Beta     Spin     Total
       1     H     0.44823  0.44823  0.00000  0.10354
       2     C     2.84613  2.84613  0.00000  0.30774
       3     O     4.14464  4.14464  0.00000 -0.28929
       4     O     4.19424  4.19424  0.00000 -0.38848
       5     C     2.97233  2.97233  0.00000  0.05533
       6     C     3.13320  3.13320  0.00000 -0.26639
       7     H     0.45167  0.45167  0.00000  0.09665
       8     H     0.45467  0.45467  0.00000  0.09066
       9     H     0.44995  0.44995  0.00000  0.10009
      10     H     0.45426  0.45426  0.00000  0.09149
      11     H     0.45067  0.45067  0.00000  0.09865

   Total alpha = 20.00000, Total beta = 20.00000, Total charge = -0.00000
