  ==> Input File <==

--------------------------------------------------------------------------
set {
	reference rhf
	basis 6-31G*
}

set_num_threads( 4 )
memory 2 gb

molecule MOL {
0 1

O	 -0.291628	 1.323815	 -0.000732
C	 -0.449655	 0.146360	 0.000961
C	 -1.783294	 -0.549321	 -0.000296
O	 0.550821	 -0.724572	 0.000672
H	 -1.863538	 -1.185371	 -0.874187
H	 -2.574672	 0.185258	 -0.002793
H	 -1.866414	 -1.182381	 0.875436
C	 0.621849	 -1.620776	 1.095229
H	 0.734488	 -1.078578	 2.022963
H	 1.487941	 -2.238148	 0.914995
H	 -0.269050	 -2.229997	 1.145138

	symmetry c1
}
set optking {
	frozen_dihedral = ("
		8 4 2 1
	")
}

ee = optimize('scf')
oeprop('DIPOLE', 'QUADRUPOLE', 'MULLIKEN_CHARGES')
f=open( 'psi4out.xyz', 'w' )
f.write( "11  " )
f.write( str(ee) + "\n" )
f.write( MOL.save_string_xyz() )
f.close()
--------------------------------------------------------------------------

    Molecular point group: c1
  Charge       = 0
  Multiplicity = 1
  Basis Set: 6-31G*
  Basis Set:
  @DF-RHF Final Energy:  -266.81161791429986
    Total Energy =                       -266.8116179142996316
    Molecular point group: c1
  Basis Set: 6-31G*
  Basis Set:
  Basis Set: 6-31G*
  Basis Set:
  @DF-RHF Final Energy:  -266.81173175145693
    Total Energy =                       -266.8117317514569322
  Basis Set: 6-31G*
  Basis Set:
  Basis Set: 6-31G*
  Basis Set:
  @DF-RHF Final Energy:  -266.81468502219593
    Total Energy =                       -266.8146850221960449
  Basis Set: 6-31G*
  Basis Set:
  Basis Set: 6-31G*
  Basis Set:
  @DF-RHF Final Energy:  -266.81562740248069
    Total Energy =                       -266.8156274024806862
  Basis Set: 6-31G*
  Basis Set:
  @DF-RHF Final Energy:  -266.81584698969368
    Total Energy =                       -266.8158469896935117
  @DF-RHF Final Energy:  -266.81591508766741
    Total Energy =                       -266.8159150876673493
  @DF-RHF Final Energy:  -266.81595293477562
    Total Energy =                       -266.8159529347759644
  @DF-RHF Final Energy:  -266.81597673784700
    Total Energy =                       -266.8159767378468246
  @DF-RHF Final Energy:  -266.81599627041612
    Total Energy =                       -266.8159962704160080
  @DF-RHF Final Energy:  -266.81600903627441
    Total Energy =                       -266.8160090362745223
  @DF-RHF Final Energy:  -266.81596181634842
    Total Energy =                       -266.8159618163484765
  Basis Set: 6-31G*
  Basis Set:
  @DF-RHF Final Energy:  -266.81601675402624
    Total Energy =                       -266.8160167540263501
  Basis Set: 6-31G*
  Basis Set:
  Basis Set: 6-31G*
  Basis Set:
  @DF-RHF Final Energy:  -266.81602551890842
    Total Energy =                       -266.8160255189084182
  Basis Set: 6-31G*
  Basis Set:
  Basis Set: 6-31G*
  Basis Set:
  @DF-RHF Final Energy:  -266.81602898323479
    Total Energy =                       -266.8160289832349008
  Basis Set: 6-31G*
  Basis Set:
  Charge       = 0
  Multiplicity = 1
  Basis Set: 6-31G*
  Basis Set:

    Orbital Energies (a.u.)
    -----------------------

    Doubly Occupied:

       1A    -20.592083     2A    -20.554395     3A    -11.379242
       4A    -11.296596     5A    -11.241494     6A     -1.461723
       7A     -1.370104     8A     -1.023151     9A     -0.974344
      10A     -0.781258    11A     -0.695559    12A     -0.683942
      13A     -0.673145    14A     -0.615108    15A     -0.590872
      16A     -0.580282    17A     -0.544422    18A     -0.494815
      19A     -0.460911    20A     -0.439780

  @DF-RHF Final Energy:  -266.81602966629760

   => Energetics <=

    Nuclear Repulsion Energy =            182.5316667539530897
    One-Electron Energy =                -725.7889427780585265
    Two-Electron Energy =                 276.4412463578076995
    DFT Exchange-Correlation Energy =       0.0000000000000000
    Empirical Dispersion Energy =           0.0000000000000000
    PCM Polarization Energy =               0.0000000000000000
    EFP Energy =                            0.0000000000000000
    Total Energy =                       -266.8160296662977089
    Molecular point group: c1
  Basis Set: 6-31G*
  Basis Set:

  -Total Gradient:
     Atom            X                  Y                   Z
    ------   -----------------  -----------------  -----------------
       1        0.000007123260    -0.000071512267     0.003004919349
       2        0.000712604481     0.000964378339    -0.003451831689
       3        0.000001499025     0.000027820362    -0.000169008607
       4       -0.002177320140    -0.002637528146    -0.000739802314
       5        0.000004621639    -0.000003027915     0.000002341509
       6        0.000002857860    -0.000002311922     0.000002282146
       7       -0.000000910986    -0.000014137182     0.000015806297
       8        0.001455182517     0.001733235099     0.001339408627
       9        0.000005453233     0.000006463531    -0.000006952352
      10        0.000006224017     0.000010931818     0.000004852898
      11       -0.000017334907    -0.000014311725    -0.000002015864

  **** Optimization is complete! (in 15 steps) ****
    Final optimized geometry and variables:
    Molecular point group: c1

    Geometry (in Angstrom), charge = 0, multiplicity = 1:

    O           -0.030185067582     1.607574901745    -0.188730658505
    C           -0.210864175043     0.440847000334    -0.212837347635
    C           -1.581715991998    -0.191283145008    -0.254473922830
    O            0.828106303162    -0.417511673782    -0.232133557091
    H           -1.608329049036    -0.994510277052    -0.981138824167
    H           -2.311339966584     0.564530368635    -0.504295419556
    H           -1.834530108528    -0.608326236613     0.715196025419
    C            0.957380954970    -1.347651609625     0.819771495055
    H            0.970367555765    -0.843884233347     1.779357004989
    H            1.902194438568    -1.845340249352     0.668495718637
    H            0.162622018866    -2.084893637535     0.805122497816

  Mulliken Charges: (a.u.)
   Center  Symbol    Alpha    Beta     Spin     Total
       1     O     4.24810  4.24810  0.00000 -0.49619
       2     C     2.62648  2.62648  0.00000  0.74704
       3     C     3.29877  3.29877  0.00000 -0.59754
       4     O     4.30420  4.30420  0.00000 -0.60840
       5     H     0.40066  0.40066  0.00000  0.19868
       6     H     0.39134  0.39134  0.00000  0.21733
       7     H     0.40356  0.40356  0.00000  0.19287
       8     C     3.09379  3.09379  0.00000 -0.18758
       9     H     0.41368  0.41368  0.00000  0.17265
      10     H     0.39966  0.39966  0.00000  0.20068
      11     H     0.41976  0.41976  0.00000  0.16047

   Total alpha = 20.00000, Total beta = 20.00000, Total charge =  0.00000
