  ==> Input File <==

--------------------------------------------------------------------------
set {
	reference rhf
	basis 6-31G*
}

set_num_threads( 1 )
memory 2 gb

molecule MOL {
0 1

H	 -2.694585	 0.703168	 0.836021
C	 -2.185656	 1.662932	 0.899162
O	 -0.807899	 1.517709	 0.772542
H	 -2.523220	 2.292205	 0.087246
H	 -2.453791	 2.134111	 1.843896
C	 -0.224245	 0.730090	 1.761609
C	 1.245474	 0.555825	 1.458686
H	 -0.335305	 1.204649	 2.737393
H	 -0.699164	 -0.247812	 1.808137
O	 1.392611	 -0.295398	 0.366430
H	 1.687090	 1.528874	 1.253362
H	 1.744712	 0.137829	 2.333748
C	 2.706965	 -0.449871	 -0.062409
H	 2.756559	 -0.644779	 -1.131878
H	 3.305899	 0.433456	 0.155466
H	 3.125548	 -1.294566	 0.467107

	symmetry c1
}
set optking {
	frozen_dihedral = ("
		3 6 7 11,
		2 3 6 7
	")
}

ee = energy('scf')
oeprop('DIPOLE', 'QUADRUPOLE', 'MULLIKEN_CHARGES')
f=open( 'psi4out.xyz', 'w' )
f.write( "16  " )
f.write( str(ee) + "\n" )
f.write( MOL.save_string_xyz() )
f.close()
--------------------------------------------------------------------------

    Molecular point group: c1

    Geometry (in Angstrom), charge = 0, multiplicity = 1:

       Center              X                  Y                   Z               Mass
    ------------   -----------------  -----------------  -----------------  -----------------
           H         -3.047731673460     0.083253693087    -0.023041836160     1.007825032070
           C         -2.538802673460     1.043017693087     0.040099163840    12.000000000000
           O         -1.161045673460     0.897794693087    -0.086520836160    15.994914619560
           H         -2.876366673460     1.672290693087    -0.771816836160     1.007825032070
           H         -2.806937673460     1.514196693087     0.984833163840     1.007825032070
           C         -0.577391673460     0.110175693087     0.902546163840    12.000000000000
           C          0.892327326540    -0.064089306913     0.599623163840    12.000000000000
           H         -0.688451673460     0.584734693087     1.878330163840     1.007825032070
           H         -1.052310673460    -0.867726306913     0.949074163840     1.007825032070
           O          1.039464326540    -0.915312306913    -0.492632836160    15.994914619560
           H          1.333943326540     0.908959693087     0.394299163840     1.007825032070
           H          1.391565326540    -0.482085306913     1.474685163840     1.007825032070
           C          2.353818326540    -1.069785306913    -0.921471836160    12.000000000000
           H          2.403412326540    -1.264693306913    -1.990940836160     1.007825032070
           H          2.952752326540    -0.186458306913    -0.703596836160     1.007825032070
           H          2.772401326540    -1.914480306913    -0.391955836160     1.007825032070

  Charge       = 0
  Multiplicity = 1
  Basis Set: 6-31G*
  Basis Set:

    Orbital Energies (a.u.)
    -----------------------

    Doubly Occupied:

       1A    -20.553487     2A    -20.551258     3A    -11.269467
       4A    -11.268458     5A    -11.263467     6A    -11.263112
       7A     -1.387830     8A     -1.370183     9A     -1.030500
      10A     -0.935518    11A     -0.892141    12A     -0.824621
      13A     -0.683149    14A     -0.680502    15A     -0.656805
      16A     -0.635009    17A     -0.629672    18A     -0.597304
      19A     -0.551647    20A     -0.536576    21A     -0.508341
      22A     -0.477471    23A     -0.462780    24A     -0.418317
      25A     -0.408344

  @DF-RHF Final Energy:  -306.97462373621966

   => Energetics <=

    Nuclear Repulsion Energy =            258.8696599793289579
    One-Electron Energy =                -931.9765557184233558
    Two-Electron Energy =                 366.1322720028750837
    DFT Exchange-Correlation Energy =       0.0000000000000000
    Empirical Dispersion Energy =           0.0000000000000000
    PCM Polarization Energy =               0.0000000000000000
    EFP Energy =                            0.0000000000000000
    Total Energy =                       -306.9746237362193142

  Mulliken Charges: (a.u.)
   Center  Symbol    Alpha    Beta     Spin     Total
       1     H     0.42805  0.42805  0.00000  0.14390
       2     C     3.07948  3.07948  0.00000 -0.15897
       3     O     4.30086  4.30086  0.00000 -0.60172
       4     H     0.41132  0.41132  0.00000  0.17736
       5     H     0.43192  0.43192  0.00000  0.13615
       6     C     2.99338  2.99338  0.00000  0.01325
       7     C     2.99419  2.99419  0.00000  0.01163
       8     H     0.43233  0.43233  0.00000  0.13535
       9     H     0.42269  0.42269  0.00000  0.15462
      10     O     4.30256  4.30256  0.00000 -0.60511
      11     H     0.42162  0.42162  0.00000  0.15675
      12     H     0.43280  0.43280  0.00000  0.13440
      13     C     3.07787  3.07787  0.00000 -0.15575
      14     H     0.41362  0.41362  0.00000  0.17277
      15     H     0.43074  0.43074  0.00000  0.13852
      16     H     0.42657  0.42657  0.00000  0.14687

   Total alpha = 25.00000, Total beta = 25.00000, Total charge =  0.00000
