  ==> Input File <==

--------------------------------------------------------------------------
set {
	reference rhf
	basis 6-31G*
}

set_num_threads( 1 )
memory 2 gb

molecule MOL {
0 1

H	 -2.499865	 1.822939	 -1.270686
C	 -1.758026	 1.200507	 -0.809260
C	 -2.076860	 -0.007332	 -0.404944
H	 -0.764003	 1.588673	 -0.690281
O	 -1.180634	 -0.819263	 0.215062
H	 -3.064568	 -0.417313	 -0.521321
C	 0.051604	 -1.018856	 -0.387932
C	 1.043764	 0.054862	 -0.001873
H	 -0.017620	 -1.041351	 -1.469781
H	 0.437898	 -1.966374	 -0.042284
F	 2.212596	 -0.199467	 -0.571921
F	 0.652529	 1.252447	 -0.405055
F	 1.230877	 0.110694	 1.300533

	symmetry c1
}
set optking {
	frozen_dihedral = ("
		11 8 7 9,
		3 5 7 9,
		6 3 2 1
	")
}

ee = energy('scf')
oeprop('DIPOLE', 'QUADRUPOLE', 'MULLIKEN_CHARGES')
f=open( 'psi4out.xyz', 'w' )
f.write( "13  " )
f.write( str(ee) + "\n" )
f.write( MOL.save_string_xyz() )
f.close()
--------------------------------------------------------------------------

    Molecular point group: c1

    Geometry (in Angstrom), charge = 0, multiplicity = 1:

       Center              X                  Y                   Z               Mass
    ------------   -----------------  -----------------  -----------------  -----------------
           H         -2.659389492425     1.729781680334    -1.162086192257     1.007825032070
           C         -1.917550492425     1.107349680334    -0.700660192257    12.000000000000
           C         -2.236384492425    -0.100489319666    -0.296344192257    12.000000000000
           H         -0.923527492425     1.495515680334    -0.581681192257     1.007825032070
           O         -1.340158492425    -0.912420319666     0.323661807743    15.994914619560
           H         -3.224092492425    -0.510470319666    -0.412721192257     1.007825032070
           C         -0.107920492425    -1.112013319666    -0.279332192257    12.000000000000
           C          0.884239507575    -0.038295319666     0.106726807743    12.000000000000
           H         -0.177144492425    -1.134508319666    -1.361181192257     1.007825032070
           H          0.278373507575    -2.059531319666     0.066315807743     1.007825032070
           F          2.053071507575    -0.292624319666    -0.463321192257    18.998403224000
           F          0.493004507575     1.159289680334    -0.296455192257    18.998403224000
           F          1.071352507575     0.017536680334     1.409132807743    18.998403224000

  Charge       = 0
  Multiplicity = 1
  Basis Set: 6-31G*
  Basis Set:

    Orbital Energies (a.u.)
    -----------------------

    Doubly Occupied:

       1A    -26.356706     2A    -26.348569     3A    -26.344993
       4A    -20.597475     5A    -11.508452     6A    -11.315737
       7A    -11.286007     8A    -11.199440     9A     -1.752328
      10A     -1.656199    11A     -1.642932    12A     -1.430641
      13A     -1.078989    14A     -1.015398    15A     -0.948875
      16A     -0.847000    17A     -0.840680    18A     -0.816503
      19A     -0.787801    20A     -0.737736    21A     -0.719029
      22A     -0.699045    23A     -0.683189    24A     -0.669700
      25A     -0.653213    26A     -0.645385    27A     -0.637560
      28A     -0.598786    29A     -0.536672    30A     -0.508840
      31A     -0.477681    32A     -0.357037

  @DF-RHF Final Energy:  -527.49758590089255

   => Energetics <=

    Nuclear Repulsion Energy =            427.7054611651143432
    One-Electron Energy =               -1579.0090134833972115
    Two-Electron Energy =                 623.8059664173904366
    DFT Exchange-Correlation Energy =       0.0000000000000000
    Empirical Dispersion Energy =           0.0000000000000000
    PCM Polarization Energy =               0.0000000000000000
    EFP Energy =                            0.0000000000000000
    Total Energy =                       -527.4975859008925454

  Mulliken Charges: (a.u.)
   Center  Symbol    Alpha    Beta     Spin     Total
       1     H     0.41338  0.41338  0.00000  0.17325
       2     C     3.25367  3.25367  0.00000 -0.50735
       3     C     2.92030  2.92030  0.00000  0.15939
       4     H     0.36100  0.36100  0.00000  0.27800
       5     O     4.30705  4.30705  0.00000 -0.61410
       6     H     0.40202  0.40202  0.00000  0.19597
       7     C     3.05781  3.05781  0.00000 -0.11563
       8     C     2.45470  2.45470  0.00000  1.09060
       9     H     0.40299  0.40299  0.00000  0.19402
      10     H     0.39272  0.39272  0.00000  0.21456
      11     F     4.68188  4.68188  0.00000 -0.36377
      12     F     4.67881  4.67881  0.00000 -0.35761
      13     F     4.67367  4.67367  0.00000 -0.34733

   Total alpha = 32.00000, Total beta = 32.00000, Total charge =  0.00000
