  ==> Input File <==

--------------------------------------------------------------------------
set {
	reference rhf
	basis cc-pvtz
}

set_num_threads( 4 )
memory 2 gb

molecule MOL {
0 1

H	 -3.397859	 1.855887	 -0.655014
O	 -2.698538	 1.272371	 -0.884481
C	 -2.302264	 0.528872	 0.237390
C	 -1.175688	 -0.398187	 -0.171891
H	 -1.967052	 1.190414	 1.033486
H	 -3.137523	 -0.051461	 0.623895
C	 0.196029	 0.106276	 0.266738
H	 -1.201873	 -0.515469	 -1.250677
H	 -1.365975	 -1.378728	 0.252664
C	 1.330220	 -0.826136	 -0.155230
H	 0.359542	 1.097229	 -0.145561
H	 0.212134	 0.218135	 1.348778
C	 2.719700	 -0.407669	 0.328325
H	 1.339388	 -0.911200	 -1.239363
H	 1.119001	 -1.821953	 0.224128
C	 3.241564	 0.893452	 -0.276737
H	 3.418299	 -1.204729	 0.093035
H	 2.711776	 -0.323368	 1.411960
H	 3.254204	 0.841071	 -1.360784
H	 2.634460	 1.745075	 0.005842
H	 4.254264	 1.092401	 0.054971

	symmetry c1
}
set optking {
	frozen_dihedral = ("
		2 3 4 8
	")
}

ee = optimize('scf')
oeprop('DIPOLE', 'QUADRUPOLE', 'MULLIKEN_CHARGES')
f=open( 'psi4out.xyz', 'w' )
f.write( "21  " )
f.write( str(ee) + "\n" )
f.write( MOL.save_string_xyz() )
f.close()
--------------------------------------------------------------------------

    Molecular point group: c1
  Charge       = 0
  Multiplicity = 1
  Basis Set: CC-PVTZ
  Basis Set:
  @DF-RHF Final Energy:  -310.32831416775230
    Total Energy =                       -310.3283141677525805
    Molecular point group: c1
  Basis Set: CC-PVTZ
  Basis Set:
  Basis Set: CC-PVTZ
  Basis Set:
  @DF-RHF Final Energy:  -310.32872956291789
    Total Energy =                       -310.3287295629183404
  Basis Set: CC-PVTZ
  Basis Set:
  Basis Set: CC-PVTZ
  Basis Set:
  @DF-RHF Final Energy:  -310.32884164277175
    Total Energy =                       -310.3288416427718630
  Basis Set: CC-PVTZ
  Basis Set:
  Basis Set: CC-PVTZ
  Basis Set:
  @DF-RHF Final Energy:  -310.32884551712931
    Total Energy =                       -310.3288455171298210
  Basis Set: CC-PVTZ
  Basis Set:
  Charge       = 0
  Multiplicity = 1
  Basis Set: CC-PVTZ
  Basis Set:

    Orbital Energies (a.u.)
    -----------------------

    Doubly Occupied:

       1A    -20.545593     2A    -11.265389     3A    -11.211174
       4A    -11.209492     5A    -11.209006     6A    -11.208491
       7A    -11.203605     8A     -1.362573     9A     -1.084296
      10A     -1.031340    11A     -0.953705    12A     -0.876127
      13A     -0.805907    14A     -0.776483    15A     -0.706504
      16A     -0.642390    17A     -0.626861    18A     -0.603289
      19A     -0.592292    20A     -0.564014    21A     -0.541384
      22A     -0.519822    23A     -0.506269    24A     -0.493307
      25A     -0.477278    26A     -0.459532    27A     -0.456235
      28A     -0.447252    29A     -0.425696

  @DF-RHF Final Energy:  -310.32884563848796

   => Energetics <=

    Nuclear Repulsion Energy =            315.2147839409720405
    One-Electron Energy =               -1045.4766537490718292
    Two-Electron Energy =                 419.9330241696120538
    DFT Exchange-Correlation Energy =       0.0000000000000000
    Empirical Dispersion Energy =           0.0000000000000000
    PCM Polarization Energy =               0.0000000000000000
    EFP Energy =                            0.0000000000000000
    Total Energy =                       -310.3288456384877918
    Molecular point group: c1
  Basis Set: CC-PVTZ
  Basis Set:

  -Total Gradient:
     Atom            X                  Y                   Z
    ------   -----------------  -----------------  -----------------
       1       -0.000038677078     0.000066620576    -0.000048262385
       2       -0.002186751279    -0.002255771190    -0.000715160973
       3        0.003442670953     0.003493829987     0.001020234158
       4       -0.003801733564    -0.004725322650     0.000112441958
       5       -0.000019528185     0.000035965015    -0.000043623939
       6       -0.000018815578     0.000018147579    -0.000014420795
       7       -0.000028724995     0.000037766183     0.000004164776
       8        0.002621576059     0.003258746571    -0.000340638000
       9       -0.000013368432     0.000065359758     0.000019828827
      10       -0.000013245889     0.000028230619    -0.000023622712
      11       -0.000024435481    -0.000038740802     0.000000879090
      12        0.000002662748     0.000015260017     0.000012458648
      13        0.000001255512    -0.000000503396     0.000032878797
      14       -0.000000046084     0.000005224579     0.000001202644
      15        0.000008706259    -0.000000339383    -0.000013749462
      16        0.000024683994     0.000007169793    -0.000005816557
      17        0.000010550887    -0.000000602336     0.000014850964
      18       -0.000003345192     0.000006559629     0.000002239034
      19       -0.000003270568     0.000006068418    -0.000009584390
      20        0.000040303253    -0.000016753768     0.000002559055
      21       -0.000000467351    -0.000006915196    -0.000008858740

  **** Optimization is complete! (in 5 steps) ****
    Final optimized geometry and variables:
    Molecular point group: c1

    Geometry (in Angstrom), charge = 0, multiplicity = 1:

    H           -3.446574235963     1.714577568985    -0.581447362597
    O           -2.800109777597     1.069606345109    -0.802167516884
    C           -2.449524688067     0.327344885935     0.339608701071
    C           -1.312208651238    -0.625134743875    -0.024682980703
    H           -2.146833808322     0.989655645253     1.146324234835
    H           -3.312287186576    -0.234816506354     0.686471498240
    C            0.065226006077    -0.112516847278     0.395987370342
    H           -1.320008358541    -0.737022454654    -1.102499218792
    H           -1.488627519398    -1.601061060698     0.414038381153
    C            1.200913977864    -1.030165263616    -0.050488279464
    H            0.203389065035     0.881931632429    -0.015448634699
    H            0.096377868183    -0.006825843464     1.478454151786
    C            2.593029211519    -0.608336224247     0.422980958191
    H            1.198470993069    -1.100631877175    -1.135730256576
    H            1.001937675266    -2.033375090479     0.317533771018
    C            3.099117107237     0.702686511632    -0.173882807859
    H            3.294720338344    -1.397939380222     0.171952222817
    H            2.595991835497    -0.535416957467     1.507508524456
    H            3.100335735009     0.661490974899    -1.258393919920
    H            2.488236450160     1.546376024320     0.123402492952
    H            4.113836794823     0.905668681971     0.149280639499

  Mulliken Charges: (a.u.)
   Center  Symbol    Alpha    Beta     Spin     Total
       1     H     0.39537  0.39537  0.00000  0.20926
       2     O     4.19910  4.19910  0.00000 -0.39820
       3     C     2.96839  2.96839  0.00000  0.06322
       4     C     3.09010  3.09010  0.00000 -0.18021
       5     H     0.47491  0.47491  0.00000  0.05018
       6     H     0.46950  0.46950  0.00000  0.06099
       7     C     3.09741  3.09741  0.00000 -0.19482
       8     H     0.44788  0.44788  0.00000  0.10425
       9     H     0.45072  0.45072  0.00000  0.09855
      10     C     3.09632  3.09632  0.00000 -0.19264
      11     H     0.44751  0.44751  0.00000  0.10497
      12     H     0.45758  0.45758  0.00000  0.08484
      13     C     3.08998  3.08998  0.00000 -0.17997
      14     H     0.45255  0.45255  0.00000  0.09490
      15     H     0.45080  0.45080  0.00000  0.09840
      16     C     3.15170  3.15170  0.00000 -0.30341
      17     H     0.44895  0.44895  0.00000  0.10209
      18     H     0.45563  0.45563  0.00000  0.08875
      19     H     0.45446  0.45446  0.00000  0.09108
      20     H     0.45383  0.45383  0.00000  0.09234
      21     H     0.44730  0.44730  0.00000  0.10540

   Total alpha = 29.00000, Total beta = 29.00000, Total charge = -0.00000
