                              Psi4 1.0.54 Driver

  ==> Input File <==

--------------------------------------------------------------------------
set {
	reference rhf
	basis cc-pvtz
}

set_num_threads( 4 )
memory 2 gb

molecule MOL {
0 1

H	 3.060288	 -0.887709	 -0.824949
N	 3.091268	 -0.241216	 -0.065538
C	 1.860978	 0.530248	 0.016256
H	 3.876808	 0.356026	 -0.219087
C	 0.644130	 -0.381765	 -0.031064
H	 1.835721	 1.204666	 -0.833114
H	 1.808789	 1.151975	 0.911067
C	 -0.678115	 0.376691	 0.025731
H	 0.693998	 -0.977147	 -0.936845
H	 0.693309	 -1.082142	 0.800523
C	 -1.900706	 -0.535531	 -0.022488
H	 -0.725296	 1.079516	 -0.802982
H	 -0.715474	 0.974884	 0.933278
C	 -3.220513	 0.226854	 0.028039
H	 -1.865036	 -1.134397	 -0.928236
H	 -1.857948	 -1.236381	 0.806820
H	 -3.309098	 0.911849	 -0.808725
H	 -4.066838	 -0.449485	 -0.008086
H	 -3.301685	 0.809374	 0.939860

	symmetry c1
}
set optking {
	frozen_dihedral = ("
		1 2 3 6
	")
}

ee,wfn = optimize('scf', return_wfn=True)
oeprop( wfn, 'DIPOLE', 'QUADRUPOLE', 'MULLIKEN_CHARGES')
f=open( 'psi4out.xyz', 'w' )
f.write( "19  " )
f.write( str(ee) + "\n" )
f.write( MOL.save_string_xyz() )
f.close()
--------------------------------------------------------------------------

    Molecular point group: c1
  Charge       = 0
  Multiplicity = 1
  Basis Set: CC-PVTZ
  Basis Set:
  @DF-RHF Final Energy:  -251.44590264850063
    Total Energy =                       -251.4459026485006348
    Molecular point group: c1
  Basis Set: CC-PVTZ
  Basis Set:
  Basis Set: CC-PVTZ
  Basis Set:
  @DF-RHF Final Energy:  -251.44762498819054
    Total Energy =                       -251.4476249881907393
  Basis Set: CC-PVTZ
  Basis Set:
  Basis Set: CC-PVTZ
  Basis Set:
  @DF-RHF Final Energy:  -251.44786493469405
    Total Energy =                       -251.4478649346937686
  Basis Set: CC-PVTZ
  Basis Set:
  Basis Set: CC-PVTZ
  Basis Set:
  @DF-RHF Final Energy:  -251.44786819480984
    Total Energy =                       -251.4478681948098711
  Basis Set: CC-PVTZ
  Basis Set:
  Charge       = 0
  Multiplicity = 1
  Basis Set: CC-PVTZ
  Basis Set:

    Orbital Energies (a.u.)
    -----------------------

    Doubly Occupied:

       1A    -15.525428     2A    -11.237582     3A    -11.212492
       4A    -11.211239     5A    -11.209402     6A    -11.205874
       7A     -1.177645     8A     -1.074926     9A     -1.000062
      10A     -0.901171    11A     -0.814434    12A     -0.790824
      13A     -0.662069    14A     -0.647250    15A     -0.617164
      16A     -0.592300    17A     -0.565228    18A     -0.547609
      19A     -0.534238    20A     -0.497812    21A     -0.482902
      22A     -0.465923    23A     -0.462359    24A     -0.450510
      25A     -0.382424

  @DF-RHF Final Energy:  -251.44786858294822

   => Energetics <=

    Nuclear Repulsion Energy =            246.1522912480260743
    One-Electron Energy =                -826.6625846357206910
    Two-Electron Energy =                 329.0624248047462288
    DFT Exchange-Correlation Energy =       0.0000000000000000
    Empirical Dispersion Energy =           0.0000000000000000
    PCM Polarization Energy =               0.0000000000000000
    EFP Energy =                            0.0000000000000000
    Total Energy =                       -251.4478685829484448
    Molecular point group: c1
  Basis Set: CC-PVTZ
  Basis Set:

  -Total Gradient:
     Atom            X                  Y                   Z
    ------   -----------------  -----------------  -----------------
       1       -0.000606515900    -0.001057987331     0.000948315814
       2        0.000981826618     0.001595191097    -0.000951747619
       3       -0.001107954220    -0.001564249967    -0.000773816054
       4        0.000001654099     0.000005610538    -0.000011257371
       5        0.000038743708     0.000024694693     0.000010771896
       6        0.000693350229     0.000992543040     0.000762442104
       7       -0.000004895799    -0.000017054865     0.000012598641
       8        0.000001986297    -0.000001875438     0.000004623764
       9        0.000011934390     0.000014912823     0.000006239600
      10        0.000005604329     0.000014326365    -0.000001489959
      11       -0.000008868912     0.000009729195    -0.000012280400
      12        0.000005099307    -0.000006370061     0.000002651814
      13        0.000001860517    -0.000004251826    -0.000001263116
      14       -0.000010011778    -0.000010544219     0.000007482549
      15        0.000001313349    -0.000001133427    -0.000001335447
      16       -0.000002939809     0.000005625280    -0.000001958835
      17        0.000003332747    -0.000003179274    -0.000000162368
      18       -0.000006506590     0.000002044655     0.000002087454
      19        0.000000987413     0.000001968722    -0.000001902465

  **** Optimization is complete! (in 5 steps) ****
    Final optimized geometry and variables:
    Molecular point group: c1

    Geometry (in Angstrom), charge = 0, multiplicity = 1:

    H            3.049513605720    -0.881156291864    -0.974986774549
    N            3.085164179899    -0.230803795302    -0.218483042304
    C            1.854591852446     0.538806630305    -0.132016227834
    H            3.877077503149     0.358371791320    -0.361241969679
    C            0.642996490292    -0.378076060599    -0.071155197786
    H            1.736970822501     1.244781571012    -0.955208150243
    H            1.897203176773     1.132619045222     0.775522293735
    C           -0.674998274361     0.375953881486     0.073947609727
    H            0.611566262037    -0.985880194825    -0.973530578270
    H            0.771016265354    -1.065279057446     0.759100165150
    C           -1.892786490156    -0.542018398084     0.132586799494
    H           -0.790262942404     1.068450697843    -0.756601331407
    H           -0.643532606317     0.984272907289     0.974760248797
    C           -3.207959056994     0.215394578216     0.281622570535
    H           -1.927513812305    -1.149638012282    -0.767620145577
    H           -1.779764922194    -1.234216855134     0.962267818903
    H           -3.366894020036     0.891764733266    -0.551786398390
    H           -4.051104651191    -0.464784881165     0.320286425084
    H           -3.218190747659     0.806407371579     1.191444143489

  Mulliken Charges: (a.u.)
   Center  Symbol    Alpha    Beta     Spin     Total
       1     H     0.43066  0.43066  0.00000  0.13868
       2     N     3.69035  3.69035  0.00000 -0.38071
       3     C     3.02234  3.02234  0.00000 -0.04467
       4     H     0.43032  0.43032  0.00000  0.13935
       5     C     3.08460  3.08460  0.00000 -0.16921
       6     H     0.46943  0.46943  0.00000  0.06115
       7     H     0.45837  0.45837  0.00000  0.08326
       8     C     3.09286  3.09286  0.00000 -0.18573
       9     H     0.46072  0.46072  0.00000  0.07856
      10     H     0.44839  0.44839  0.00000  0.10323
      11     C     3.08327  3.08327  0.00000 -0.16653
      12     H     0.45638  0.45638  0.00000  0.08724
      13     H     0.45437  0.45437  0.00000  0.09126
      14     C     3.14996  3.14996  0.00000 -0.29993
      15     H     0.45502  0.45502  0.00000  0.08995
      16     H     0.45380  0.45380  0.00000  0.09241
      17     H     0.45557  0.45557  0.00000  0.08885
      18     H     0.44850  0.44850  0.00000  0.10299
      19     H     0.45508  0.45508  0.00000  0.08984

   Total alpha = 25.00000, Total beta = 25.00000, Total charge =  0.00000

*** Psi4 exiting successfully. Buy a developer a beer!
