                              Psi4 1.0.54 Driver

  ==> Input File <==

--------------------------------------------------------------------------
set {
	reference rhf
	basis cc-pvtz
}

set_num_threads( 4 )
memory 2 gb

molecule MOL {
0 1

H	 -0.000105	 1.988529	 0.748933
O	 -0.000098	 1.879786	 -0.188206
C	 -0.000014	 0.545691	 -0.532416
C	 1.315375	 -0.109299	 -0.107541
C	 -0.337917	 0.382826	 -2.015343
H	 -0.787372	 0.059203	 0.024412
F	 1.458757	 0.008469	 1.189545
F	 1.354458	 -1.384206	 -0.402154
F	 2.347249	 0.474989	 -0.677820
F	 -1.520959	 0.895404	 -2.248864
F	 -0.363780	 -0.872744	 -2.384922
F	 0.528767	 1.016296	 -2.776230

	symmetry c1
}
set optking {
	frozen_dihedral = ("
		6 3 2 1
	")
}

ee,wfn = optimize('scf', return_wfn=True)
oeprop( wfn, 'DIPOLE', 'QUADRUPOLE', 'MULLIKEN_CHARGES')
f=open( 'psi4out.xyz', 'w' )
f.write( "12  " )
f.write( str(ee) + "\n" )
f.write( MOL.save_string_xyz() )
f.close()
--------------------------------------------------------------------------

    Molecular point group: c1
  Charge       = 0
  Multiplicity = 1
  Basis Set: CC-PVTZ
  Basis Set:
  @DF-RHF Final Energy:  -786.58591661839307
    Total Energy =                       -786.5859166183932984
    Molecular point group: c1
  Basis Set: CC-PVTZ
  Basis Set:
  Basis Set: CC-PVTZ
  Basis Set:
  @DF-RHF Final Energy:  -786.57290209471296
    Total Energy =                       -786.5729020947126173
  Basis Set: CC-PVTZ
  Basis Set:
  Basis Set: CC-PVTZ
  Basis Set:
  @DF-RHF Final Energy:  -786.58761710264366
    Total Energy =                       -786.5876171026436623
  Basis Set: CC-PVTZ
  Basis Set:
  Basis Set: CC-PVTZ
  Basis Set:
  @DF-RHF Final Energy:  -786.58807284372676
    Total Energy =                       -786.5880728437271046
  Basis Set: CC-PVTZ
  Basis Set:
  @DF-RHF Final Energy:  -786.58815475470669
    Total Energy =                       -786.5881547547066930
  Basis Set: CC-PVTZ
  Basis Set:
  @DF-RHF Final Energy:  -786.58817481504934
    Total Energy =                       -786.5881748150495696
  Basis Set: CC-PVTZ
  Basis Set:
  Basis Set: CC-PVTZ
  Basis Set:
  @DF-RHF Final Energy:  -786.58817893177650
    Total Energy =                       -786.5881789317766106
  Basis Set: CC-PVTZ
  Basis Set:
  Basis Set: CC-PVTZ
  Basis Set:
  @DF-RHF Final Energy:  -786.58818030636144
    Total Energy =                       -786.5881803063612097
  Basis Set: CC-PVTZ
  Basis Set:
  Charge       = 0
  Multiplicity = 1
  Basis Set: CC-PVTZ
  Basis Set:

    Orbital Energies (a.u.)
    -----------------------

    Doubly Occupied:

       1A    -26.357981     2A    -26.355831     3A    -26.353875
       4A    -26.351842     5A    -26.348550     6A    -26.348065
       7A    -20.609428     8A    -11.518345     9A    -11.516209
      10A    -11.351611    11A     -1.769434    12A     -1.762029
      13A     -1.664083    14A     -1.663051    15A     -1.657485
      16A     -1.656001    17A     -1.439769    18A     -1.103845
      19A     -0.999448    20A     -0.940503    21A     -0.871970
      22A     -0.863126    23A     -0.858966    24A     -0.848130
      25A     -0.837479    26A     -0.788608    27A     -0.763917
      28A     -0.735365    29A     -0.727944    30A     -0.723629
      31A     -0.721328    32A     -0.688785    33A     -0.685239
      34A     -0.674073    35A     -0.673970    36A     -0.666114
      37A     -0.658704    38A     -0.637050    39A     -0.622795
      40A     -0.553432    41A     -0.509908

  @DF-RHF Final Energy:  -786.58818050609943

   => Energetics <=

    Nuclear Repulsion Energy =            670.7426163209147489
    One-Electron Energy =               -2428.9057553290012947
    Two-Electron Energy =                 971.5749585019873393
    DFT Exchange-Correlation Energy =       0.0000000000000000
    Empirical Dispersion Energy =           0.0000000000000000
    PCM Polarization Energy =               0.0000000000000000
    EFP Energy =                            0.0000000000000000
    Total Energy =                       -786.5881805060992065
    Molecular point group: c1
  Basis Set: CC-PVTZ
  Basis Set:

  -Total Gradient:
     Atom            X                  Y                   Z
    ------   -----------------  -----------------  -----------------
       1       -0.000010606175     0.000008959157     0.000014059260
       2        0.000027806756     0.000004883546    -0.000007613903
       3       -0.000017479653    -0.000028699026     0.000012583156
       4        0.000035325894     0.000035943489    -0.000040781398
       5        0.000054593793    -0.000000989690     0.000034520907
       6       -0.000005744051    -0.000011811325     0.000018747085
       7       -0.000014711166     0.000001665678     0.000009579397
       8       -0.000026604186    -0.000028678760     0.000007289705
       9       -0.000000006391     0.000009966772    -0.000009231424
      10        0.000005233770     0.000003801785    -0.000041698994
      11       -0.000005021033     0.000008867216     0.000008938245
      12       -0.000042787559    -0.000003908836    -0.000006392038

  **** Optimization is complete! (in 9 steps) ****
    Final optimized geometry and variables:
    Molecular point group: c1

    Geometry (in Angstrom), charge = 0, multiplicity = 1:

    H           -0.502771784450     2.002390030041     1.429671922696
    O           -0.615120407900     1.667841954639     0.557406293429
    C           -0.452226818582     0.299385314295     0.529780928396
    C            1.007098026778    -0.072619179788     0.797593963623
    C           -0.982929065692    -0.180081226166    -0.819144391145
    H           -1.040500578235    -0.208222188467     1.286203975966
    F            1.371939893105     0.490566086340     1.934555031165
    F            1.158718269574    -1.367021841682     0.932705214265
    F            1.823464756765     0.343959660437    -0.132719103733
    F           -2.269523752960     0.063043414449    -0.888496262402
    F           -0.812038241616    -1.474965067561    -0.954301880744
    F           -0.402443525077     0.415583167369    -1.826114144781

  Mulliken Charges: (a.u.)
   Center  Symbol    Alpha    Beta     Spin     Total
       1     H     0.38331  0.38331  0.00000  0.23338
       2     O     4.18469  4.18469  0.00000 -0.36938
       3     C     2.99943  2.99943  0.00000  0.00114
       4     C     2.68251  2.68251  0.00000  0.63498
       5     C     2.67643  2.67643  0.00000  0.64715
       6     H     0.44463  0.44463  0.00000  0.11075
       7     F     4.61367  4.61367  0.00000 -0.22735
       8     F     4.60407  4.60407  0.00000 -0.20815
       9     F     4.59993  4.59993  0.00000 -0.19986
      10     F     4.60426  4.60426  0.00000 -0.20851
      11     F     4.60574  4.60574  0.00000 -0.21148
      12     F     4.60133  4.60133  0.00000 -0.20266

   Total alpha = 41.00000, Total beta = 41.00000, Total charge = -0.00000

*** Psi4 exiting successfully. Buy a developer a beer!
