  ==> Input File <==

--------------------------------------------------------------------------
set {
	reference rhf
	basis cc-pvtz
}

set_num_threads( 4 )
memory 2 gb

molecule MOL {
0 1

H	 -2.498963	 -0.741158	 -0.729149
O	 -2.346257	 -0.289210	 0.080372
C	 -1.183935	 0.486039	 -0.009831
C	 0.062853	 -0.375310	 0.027457
H	 -1.178881	 1.094526	 -0.908634
H	 -1.184406	 1.155156	 0.838676
O	 0.020161	 -1.156166	 1.176322
H	 0.952218	 0.257086	 0.027572
H	 0.103337	 -0.995054	 -0.865769
C	 1.094451	 -2.024793	 1.326687
H	 2.037029	 -1.484888	 1.384345
H	 0.950745	 -2.573029	 2.246182
H	 1.152435	 -2.731396	 0.502144

	symmetry c1
}
set optking {
	frozen_dihedral = ("
		8 4 3 5
	")
}

ee = optimize('scf')
oeprop('DIPOLE', 'QUADRUPOLE', 'MULLIKEN_CHARGES')
f=open( 'psi4out.xyz', 'w' )
f.write( "13  " )
f.write( str(ee) + "\n" )
f.write( MOL.save_string_xyz() )
f.close()
--------------------------------------------------------------------------

    Molecular point group: c1
  Charge       = 0
  Multiplicity = 1
  Basis Set: CC-PVTZ
  Basis Set:
  @DF-RHF Final Energy:  -268.05911740303173
    Total Energy =                       -268.0591174030315642
    Molecular point group: c1
  Basis Set: CC-PVTZ
  Basis Set:
  Basis Set: CC-PVTZ
  Basis Set:
  @DF-RHF Final Energy:  -268.05967958101837
    Total Energy =                       -268.0596795810185426
  Basis Set: CC-PVTZ
  Basis Set:
  Basis Set: CC-PVTZ
  Basis Set:
  @DF-RHF Final Energy:  -268.05983675619188
    Total Energy =                       -268.0598367561919986
  Basis Set: CC-PVTZ
  Basis Set:
  Basis Set: CC-PVTZ
  Basis Set:
  @DF-RHF Final Energy:  -268.05991244258757
    Total Energy =                       -268.0599124425874038
  Basis Set: CC-PVTZ
  Basis Set:
  Basis Set: CC-PVTZ
  Basis Set:
  @DF-RHF Final Energy:  -268.05993679646087
    Total Energy =                       -268.0599367964609883
  Basis Set: CC-PVTZ
  Basis Set:
  Basis Set: CC-PVTZ
  Basis Set:
  @DF-RHF Final Energy:  -268.05993851888297
    Total Energy =                       -268.0599385188829160
  Basis Set: CC-PVTZ
  Basis Set:
  Charge       = 0
  Multiplicity = 1
  Basis Set: CC-PVTZ
  Basis Set:

    Orbital Energies (a.u.)
    -----------------------

    Doubly Occupied:

       1A    -20.553144     2A    -20.545293     3A    -11.273766
       4A    -11.269156     5A    -11.266636     6A     -1.392599
       7A     -1.361310     8A     -1.021069     9A     -0.918718
      10A     -0.840796    11A     -0.697380    12A     -0.682196
      13A     -0.667167    14A     -0.628615    15A     -0.608373
      16A     -0.569359    17A     -0.539025    18A     -0.503711
      19A     -0.470468    20A     -0.439885    21A     -0.424085

  @DF-RHF Final Energy:  -268.05993863510798

   => Energetics <=

    Nuclear Repulsion Energy =            193.6565772034576298
    One-Electron Energy =                -750.0875201721773919
    Two-Electron Energy =                 288.3710043336117224
    DFT Exchange-Correlation Energy =       0.0000000000000000
    Empirical Dispersion Energy =           0.0000000000000000
    PCM Polarization Energy =               0.0000000000000000
    EFP Energy =                            0.0000000000000000
    Total Energy =                       -268.0599386351080966
    Molecular point group: c1
  Basis Set: CC-PVTZ
  Basis Set:

  -Total Gradient:
     Atom            X                  Y                   Z
    ------   -----------------  -----------------  -----------------
       1        0.000004906368     0.000005819582     0.000000869391
       2        0.000023294707     0.000017960915     0.000016021525
       3        0.001525334833     0.002236294557     0.002155664018
       4       -0.000206898411    -0.000465366253    -0.003447013538
       5       -0.001286833850    -0.001825735241    -0.001306384968
       6       -0.000009959385    -0.000004787933    -0.000000221502
       7        0.000015613451     0.000005971823    -0.000025955166
       8       -0.000068136563     0.000040602585     0.002599862504
       9        0.000002284234    -0.000005444489    -0.000001883591
      10       -0.000007964007     0.000001414329     0.000008713223
      11        0.000002562017    -0.000001830980    -0.000000121696
      12        0.000004054531    -0.000003709306     0.000000021970
      13        0.000001742069    -0.000001189590     0.000000427830

  **** Optimization is complete! (in 7 steps) ****
    Final optimized geometry and variables:
    Molecular point group: c1

    Geometry (in Angstrom), charge = 0, multiplicity = 1:

    H           -1.909303663421    -0.181978917720    -1.138238082394
    O           -1.889468360752     0.478544640517    -0.469620458347
    C           -0.679948222691     1.176053582693    -0.511434727282
    C            0.542873124020     0.284835113744    -0.462305603293
    H           -0.621141877747     1.776337777180    -1.417553821271
    H           -0.681673485610     1.839944950200     0.341233510275
    O            0.509386343134    -0.508971932921     0.675980085747
    H            1.430007680969     0.918497123538    -0.448885943398
    H            0.591736946645    -0.337886112581    -1.357840693252
    C            1.600126949382    -1.356674165192     0.818033890957
    H            2.532790169016    -0.800331244199     0.886331591535
    H            1.463902822208    -1.920299736407     1.729205907762
    H            1.676276786617    -2.052245198917    -0.015359606099

  Mulliken Charges: (a.u.)
   Center  Symbol    Alpha    Beta     Spin     Total
       1     H     0.39618  0.39618  0.00000  0.20765
       2     O     4.19580  4.19580  0.00000 -0.39159
       3     C     2.96287  2.96287  0.00000  0.07426
       4     C     2.97534  2.97534  0.00000  0.04931
       5     H     0.47492  0.47492  0.00000  0.05015
       6     H     0.45575  0.45575  0.00000  0.08850
       7     O     4.16653  4.16653  0.00000 -0.33305
       8     H     0.47264  0.47264  0.00000  0.05473
       9     H     0.47903  0.47903  0.00000  0.04193
      10     C     3.03124  3.03124  0.00000 -0.06249
      11     H     0.47194  0.47194  0.00000  0.05612
      12     H     0.44512  0.44512  0.00000  0.10976
      13     H     0.47265  0.47265  0.00000  0.05471

   Total alpha = 21.00000, Total beta = 21.00000, Total charge = -0.00000
