                              Psi4 1.0.54 Driver

  ==> Input File <==

--------------------------------------------------------------------------
set {
	reference rhf
	basis cc-pvtz
}

set_num_threads( 4 )
memory 2 gb

molecule MOL {
0 1

O	 -1.510770	 1.240811	 -0.054933
C	 -1.081510	 0.147522	 0.122720
C	 0.327029	 -0.064006	 0.641890
C	 -1.903028	 -1.084121	 -0.174656
C	 1.349460	 -0.017068	 -0.500215
H	 0.399029	 -1.014606	 1.159950
H	 0.538021	 0.726928	 1.350471
C	 1.660359	 1.407479	 -0.944906
H	 2.268493	 -0.505851	 -0.189882
H	 0.961066	 -0.587039	 -1.336045
H	 2.375450	 1.411699	 -1.758944
H	 2.079625	 1.990705	 -0.132000
H	 0.764170	 1.912747	 -1.287571
H	 -1.341891	 -1.779207	 -0.789259
H	 -2.820449	 -0.808163	 -0.671328
H	 -2.133314	 -1.593056	 0.755831

	symmetry c1
}
set optking {
	frozen_dihedral = ("
		9 5 3 2
	")
}

ee,wfn = optimize('scf', return_wfn=True)
oeprop( wfn, 'DIPOLE', 'QUADRUPOLE', 'MULLIKEN_CHARGES')
f=open( 'psi4out.xyz', 'w' )
f.write( "16  " )
f.write( str(ee) + "\n" )
f.write( MOL.save_string_xyz() )
f.close()
--------------------------------------------------------------------------

    Molecular point group: c1
  Charge       = 0
  Multiplicity = 1
  Basis Set: CC-PVTZ
  Basis Set:
  @DF-RHF Final Energy:  -270.12735473240633
    Total Energy =                       -270.1273547324065589
    Molecular point group: c1
  Basis Set: CC-PVTZ
  Basis Set:
  Basis Set: CC-PVTZ
  Basis Set:
  @DF-RHF Final Energy:  -270.12769977954076
    Total Energy =                       -270.1276997795407055
  Basis Set: CC-PVTZ
  Basis Set:
  Basis Set: CC-PVTZ
  Basis Set:
  @DF-RHF Final Energy:  -270.12766408440388
    Total Energy =                       -270.1276640844041594
  Basis Set: CC-PVTZ
  Basis Set:
  Basis Set: CC-PVTZ
  Basis Set:
  @DF-RHF Final Energy:  -270.12780558922412
    Total Energy =                       -270.1278055892241809
  Basis Set: CC-PVTZ
  Basis Set:
  Basis Set: CC-PVTZ
  Basis Set:
  @DF-RHF Final Energy:  -270.12783790229389
    Total Energy =                       -270.1278379022941181
  Basis Set: CC-PVTZ
  Basis Set:
  Basis Set: CC-PVTZ
  Basis Set:
  @DF-RHF Final Energy:  -270.12785075683712
    Total Energy =                       -270.1278507568370060
  Basis Set: CC-PVTZ
  Basis Set:
  Charge       = 0
  Multiplicity = 1
  Basis Set: CC-PVTZ
  Basis Set:

    Orbital Energies (a.u.)
    -----------------------

    Doubly Occupied:

       1A    -20.537949     2A    -11.320112     3A    -11.232739
       4A    -11.228910     5A    -11.227236     6A    -11.210375
       7A     -1.397714     8A     -1.082498     9A     -1.012451
      10A     -0.948113    11A     -0.831913    12A     -0.734309
      13A     -0.659468    14A     -0.647113    15A     -0.620297
      16A     -0.591161    17A     -0.588641    18A     -0.562425
      19A     -0.540172    20A     -0.510289    21A     -0.498345
      22A     -0.488352    23A     -0.474083    24A     -0.399820

  @DF-RHF Final Energy:  -270.12785160902956

   => Energetics <=

    Nuclear Repulsion Energy =            241.4159001237928521
    One-Electron Energy =                -844.3985290216600106
    Two-Electron Energy =                 332.8547772888375675
    DFT Exchange-Correlation Energy =       0.0000000000000000
    Empirical Dispersion Energy =           0.0000000000000000
    PCM Polarization Energy =               0.0000000000000000
    EFP Energy =                            0.0000000000000000
    Total Energy =                       -270.1278516090295625
    Molecular point group: c1
  Basis Set: CC-PVTZ
  Basis Set:

  -Total Gradient:
     Atom            X                  Y                   Z
    ------   -----------------  -----------------  -----------------
       1        0.000011931626    -0.000005446601    -0.000001285871
       2       -0.000186006764    -0.001411715717    -0.000169481842
       3        0.000026278588     0.001568101020     0.000112434860
       4       -0.000045432985     0.000002470897     0.000088145926
       5        0.000818429060     0.001570307320     0.000687473069
       6       -0.000004396683     0.000003666232    -0.000003445645
       7       -0.000000733422    -0.000000590903    -0.000011529918
       8        0.000040892483    -0.000037107551     0.000011035527
       9       -0.000696317109    -0.001727327801    -0.000641409962
      10        0.000014359720     0.000021533075     0.000016821105
      11        0.000001671773     0.000016333120    -0.000013508352
      12       -0.000004784203     0.000003129564     0.000000003885
      13       -0.000012121339     0.000015210268    -0.000011634248
      14        0.000008031651     0.000002411247    -0.000025657020
      15        0.000010930853    -0.000000827322    -0.000013975692
      16        0.000017266752    -0.000020146844    -0.000023985823

  **** Optimization is complete! (in 7 steps) ****
    Final optimized geometry and variables:
    Molecular point group: c1

    Geometry (in Angstrom), charge = 0, multiplicity = 1:

    O           -1.382693707590     0.959117840746     0.262638317339
    C           -0.890000734567    -0.120954959748     0.317076608800
    C            0.529827551171    -0.323294678573     0.806782250332
    C           -1.654244065047    -1.355819840466    -0.102018411358
    C            1.546524831862    -0.305814648779    -0.349363309001
    H            0.592133928901    -1.275334282001     1.322638862175
    H            0.758173678635     0.462357472894     1.514900335787
    C            1.864959185452     1.093736051065    -0.863907853462
    H            2.454353553138    -0.793575272743    -0.013018994624
    H            1.175520658732    -0.916660820501    -1.167487518593
    H            2.565205631256     1.047318984417    -1.689892868194
    H            2.310293305932     1.699994723169    -0.083002792338
    H            0.972758368550     1.602597204951    -1.205950612057
    H           -1.054167091761    -1.990195040616    -0.743430437273
    H           -2.565057179850    -1.072853453930    -0.606887552980
    H           -1.899496994608    -1.934071913517     0.783203614598

  Mulliken Charges: (a.u.)
   Center  Symbol    Alpha    Beta     Spin     Total
       1     O     4.17616  4.17616  0.00000 -0.35232
       2     C     2.85873  2.85873  0.00000  0.28255
       3     C     3.10471  3.10471  0.00000 -0.20942
       4     C     3.15412  3.15412  0.00000 -0.30824
       5     C     3.09641  3.09641  0.00000 -0.19282
       6     H     0.44270  0.44270  0.00000  0.11460
       7     H     0.44016  0.44016  0.00000  0.11968
       8     C     3.14250  3.14250  0.00000 -0.28500
       9     H     0.44554  0.44554  0.00000  0.10893
      10     H     0.45358  0.45358  0.00000  0.09284
      11     H     0.45016  0.45016  0.00000  0.09969
      12     H     0.45454  0.45454  0.00000  0.09092
      13     H     0.44517  0.44517  0.00000  0.10966
      14     H     0.45094  0.45094  0.00000  0.09813
      15     H     0.43644  0.43644  0.00000  0.12713
      16     H     0.44816  0.44816  0.00000  0.10367

   Total alpha = 24.00000, Total beta = 24.00000, Total charge =  0.00000

*** Psi4 exiting successfully. Buy a developer a beer!
