  ==> Input File <==

--------------------------------------------------------------------------
set {
	reference rhf
	basis cc-pvtz
}

set_num_threads( 4 )
memory 2 gb

molecule MOL {
0 1

H	 -1.270228	 1.374346	 1.961832
C	 -0.993581	 0.762561	 1.129293
C	 -1.916225	 0.457929	 0.078065
C	 0.237575	 0.253692	 1.037973
H	 -2.914285	 0.851789	 0.121731
C	 -1.544577	 -0.309407	 -0.951328
H	 0.983818	 0.437038	 1.785400
N	 0.640204	 -0.530428	 -0.000115
H	 -2.207339	 -0.557654	 -1.754496
C	 -0.201385	 -0.862387	 -1.047665
C	 2.006991	 -1.033007	 -0.000020
O	 0.169810	 -1.555128	 -1.955722
H	 2.182444	 -1.636914	 -0.880881
H	 2.678769	 -0.195442	 -0.002236
H	 2.183828	 -1.633244	 0.883082

	symmetry c1
}
set optking {
	frozen_dihedral = ("
		10 8 11 13
	")
}

ee = optimize('scf')
oeprop('DIPOLE', 'QUADRUPOLE', 'MULLIKEN_CHARGES')
f=open( 'psi4out.xyz', 'w' )
f.write( "15  " )
f.write( str(ee) + "\n" )
f.write( MOL.save_string_xyz() )
f.close()
--------------------------------------------------------------------------

    Molecular point group: c1
  Charge       = 0
  Multiplicity = 1
  Basis Set: CC-PVTZ
  Basis Set:
  @DF-RHF Final Energy:  -360.72224441629328
    Total Energy =                       -360.7222444162930515
    Molecular point group: c1
  Basis Set: CC-PVTZ
  Basis Set:
  Basis Set: CC-PVTZ
  Basis Set:
  @DF-RHF Final Energy:  -360.72249556135540
    Total Energy =                       -360.7224955613557427
  Basis Set: CC-PVTZ
  Basis Set:
  Basis Set: CC-PVTZ
  Basis Set:
  @DF-RHF Final Energy:  -360.72252926587004
    Total Energy =                       -360.7225292658698095
  Basis Set: CC-PVTZ
  Basis Set:
  Basis Set: CC-PVTZ
  Basis Set:
  @DF-RHF Final Energy:  -360.72251636648883
    Total Energy =                       -360.7225163664892307
  Basis Set: CC-PVTZ
  Basis Set:
  Charge       = 0
  Multiplicity = 1
  Basis Set: CC-PVTZ
  Basis Set:

    Orbital Energies (a.u.)
    -----------------------

    Doubly Occupied:

       1A    -20.501769     2A    -15.616382     3A    -11.339703
       4A    -11.293135     5A    -11.263343     6A    -11.258228
       7A    -11.230784     8A    -11.228426     9A     -1.390517
      10A     -1.285765    11A     -1.118806    12A     -1.028853
      13A     -0.972273    14A     -0.875702    15A     -0.838538
      16A     -0.719086    17A     -0.703180    18A     -0.663339
      19A     -0.652663    20A     -0.625136    21A     -0.611948
      22A     -0.573854    23A     -0.558550    24A     -0.550467
      25A     -0.529218    26A     -0.482671    27A     -0.420023
      28A     -0.410901    29A     -0.311081

  @DF-RHF Final Energy:  -360.72253153872742

   => Energetics <=

    Nuclear Repulsion Energy =            358.4277369478191417
    One-Electron Energy =               -1200.1918635106555939
    Two-Electron Energy =                 481.0415950241089149
    DFT Exchange-Correlation Energy =       0.0000000000000000
    Empirical Dispersion Energy =           0.0000000000000000
    PCM Polarization Energy =               0.0000000000000000
    EFP Energy =                            0.0000000000000000
    Total Energy =                       -360.7225315387275941
    Molecular point group: c1
  Basis Set: CC-PVTZ
  Basis Set:

  -Total Gradient:
     Atom            X                  Y                   Z
    ------   -----------------  -----------------  -----------------
       1       -0.000002128830     0.000000779982    -0.000000704394
       2       -0.000020631090     0.000014173223    -0.000001605185
       3        0.000009250219     0.000002325776     0.000016020941
       4        0.000019446082    -0.000012762056     0.000005369501
       5       -0.000000753966     0.000000390210    -0.000001581640
       6        0.000012837017    -0.000006436348    -0.000009303567
       7       -0.000003934643     0.000000806037    -0.000001819449
       8       -0.000036017082     0.000006649583    -0.000013911623
       9       -0.000002487423     0.000003909621     0.000000861314
      10       -0.000001852724     0.000001636852     0.000018846189
      11        0.000032280076     0.000011797756    -0.000002514125
      12        0.000004827624    -0.000005148148    -0.000009436511
      13        0.000001745796    -0.000011788145     0.000015916965
      14       -0.000007258516     0.000012659815    -0.000005860142
      15       -0.000005322544    -0.000018994160    -0.000010278274

  **** Optimization is complete! (in 5 steps) ****
    Final optimized geometry and variables:
    Molecular point group: c1

    Geometry (in Angstrom), charge = 0, multiplicity = 1:

    H           -1.129971738878     1.763441657102     2.200791207337
    C           -0.852385354263     1.151533760559     1.368637782993
    C           -1.774475520101     0.845087489232     0.317184388483
    C            0.379466455572     0.644252858305     1.277997847883
    H           -2.773056800102     1.237713189213     0.360227042019
    C           -1.401471257556     0.077661916698    -0.711511163800
    H            1.125176060639     0.829134051824     2.025594716972
    N            0.783549257779    -0.139919745742     0.240454236554
    H           -2.063481599347    -0.172055861067    -1.514941346422
    C           -0.057319855425    -0.473852219340    -0.807056228663
    C            2.151044577927    -0.640451834131     0.241237033808
    O            0.314927207946    -1.166645811401    -1.714435524156
    H            2.297626028344    -1.234794048226    -0.640908784056
    H            2.850715254758     0.185348386276     0.238611815714
    H            2.324758543798    -1.250493028825     1.118262398960

  Mulliken Charges: (a.u.)
   Center  Symbol    Alpha    Beta     Spin     Total
       1     H     0.41416  0.41416  0.00000  0.17169
       2     C     3.10190  3.10190  0.00000 -0.20380
       3     C     3.06196  3.06196  0.00000 -0.12392
       4     C     3.03304  3.03304  0.00000 -0.06608
       5     H     0.41832  0.41832  0.00000  0.16335
       6     C     3.11587  3.11587  0.00000 -0.23173
       7     H     0.42020  0.42020  0.00000  0.15960
       8     N     3.51286  3.51286  0.00000 -0.02571
       9     H     0.40887  0.40887  0.00000  0.18226
      10     C     2.84559  2.84559  0.00000  0.30882
      11     C     3.11045  3.11045  0.00000 -0.22089
      12     O     4.23664  4.23664  0.00000 -0.47327
      13     H     0.42053  0.42053  0.00000  0.15895
      14     H     0.44982  0.44982  0.00000  0.10037
      15     H     0.44981  0.44981  0.00000  0.10037

   Total alpha = 29.00000, Total beta = 29.00000, Total charge = -0.00000
