  ==> Input File <==

--------------------------------------------------------------------------
set {
	reference rhf
	basis cc-pvtz
}

set_num_threads( 4 )
memory 2 gb

molecule MOL {
0 1

H	 -3.941973	 0.934228	 -0.390224
C	 -3.240162	 0.342701	 0.161016
C	 -2.105997	 -0.000418	 -0.398703
H	 -3.485368	 0.047206	 1.162193
O	 -1.189946	 -0.765863	 0.237511
H	 -1.846458	 0.297311	 -1.398265
C	 0.026572	 -0.995256	 -0.379403
C	 1.057223	 0.049888	 -0.004615
H	 -0.054361	 -1.010670	 -1.459674
H	 0.397526	 -1.952058	 -0.044198
F	 0.558313	 0.846775	 0.919041
F	 2.151442	 -0.492910	 0.484835
F	 1.404265	 0.789678	 -1.029666

	symmetry c1
}
set optking {
	frozen_dihedral = ("
		11 8 7 9
	")
}

ee = optimize('scf')
oeprop('DIPOLE', 'QUADRUPOLE', 'MULLIKEN_CHARGES')
f=open( 'psi4out.xyz', 'w' )
f.write( "13  " )
f.write( str(ee) + "\n" )
f.write( MOL.save_string_xyz() )
f.close()
--------------------------------------------------------------------------

    Molecular point group: c1
  Charge       = 0
  Multiplicity = 1
  Basis Set: CC-PVTZ
  Basis Set:
  @DF-RHF Final Energy:  -527.73416684082372
    Total Energy =                       -527.7341668408239457
    Molecular point group: c1
  Basis Set: CC-PVTZ
  Basis Set:
  Basis Set: CC-PVTZ
  Basis Set:
  @DF-RHF Final Energy:  -527.73538857560425
    Total Energy =                       -527.7353885756043610
  Basis Set: CC-PVTZ
  Basis Set:
  Basis Set: CC-PVTZ
  Basis Set:
  @DF-RHF Final Energy:  -527.73572075141658
    Total Energy =                       -527.7357207514162383
  Basis Set: CC-PVTZ
  Basis Set:
  Basis Set: CC-PVTZ
  Basis Set:
  @DF-RHF Final Energy:  -527.73576087502170
    Total Energy =                       -527.7357608750215832
  Basis Set: CC-PVTZ
  Basis Set:
  Basis Set: CC-PVTZ
  Basis Set:
  @DF-RHF Final Energy:  -527.73576876736945
    Total Energy =                       -527.7357687673695636
  Basis Set: CC-PVTZ
  Basis Set:
  Basis Set: CC-PVTZ
  Basis Set:
  @DF-RHF Final Energy:  -527.73577184119438
    Total Energy =                       -527.7357718411942642
  Basis Set: CC-PVTZ
  Basis Set:
  Basis Set: CC-PVTZ
  Basis Set:
  @DF-RHF Final Energy:  -527.73577324384837
    Total Energy =                       -527.7357732438481435
  Basis Set: CC-PVTZ
  Basis Set:
  Charge       = 0
  Multiplicity = 1
  Basis Set: CC-PVTZ
  Basis Set:

    Orbital Energies (a.u.)
    -----------------------

    Doubly Occupied:

       1A    -26.340022     2A    -26.339602     3A    -26.338414
       4A    -20.602744     5A    -11.499496     6A    -11.319777
       7A    -11.298141     8A    -11.214799     9A     -1.750475
      10A     -1.646984    11A     -1.643730    12A     -1.443705
      13A     -1.083713    14A     -1.019207    15A     -0.932309
      16A     -0.843120    17A     -0.838131    18A     -0.827567
      19A     -0.797362    20A     -0.729121    21A     -0.722838
      22A     -0.701284    23A     -0.680318    24A     -0.668715
      25A     -0.661893    26A     -0.649699    27A     -0.634916
      28A     -0.587337    29A     -0.565419    30A     -0.527995
      31A     -0.516329    32A     -0.357359

  @DF-RHF Final Energy:  -527.73577344313173

   => Energetics <=

    Nuclear Repulsion Energy =            413.4683439705396495
    One-Electron Energy =               -1550.8431928066097498
    Two-Electron Energy =                 609.6390753929383663
    DFT Exchange-Correlation Energy =       0.0000000000000000
    Empirical Dispersion Energy =           0.0000000000000000
    PCM Polarization Energy =               0.0000000000000000
    EFP Energy =                            0.0000000000000000
    Total Energy =                       -527.7357734431318477
    Molecular point group: c1
  Basis Set: CC-PVTZ
  Basis Set:

  -Total Gradient:
     Atom            X                  Y                   Z
    ------   -----------------  -----------------  -----------------
       1        0.000006424590     0.000009332551     0.000006076037
       2        0.000003244163    -0.000000309098     0.000002103560
       3       -0.000005439154    -0.000041890599    -0.000028879381
       4        0.000000230829    -0.000000029987     0.000001384438
       5       -0.000007696465     0.000001498374     0.000023087049
       6        0.000004946426     0.000011776960     0.000004076517
       7        0.001772219281    -0.001362310791    -0.000538716655
       8        0.000550312433    -0.001121704328     0.001886070784
       9       -0.001609317519     0.001437340320     0.000053505011
      10       -0.000012916995    -0.000003653155    -0.000001037963
      11       -0.000721338805     0.001102298828    -0.001305981715
      12       -0.000003580363    -0.000011755506    -0.000049057577
      13        0.000022911585    -0.000020593571    -0.000052630107

  **** Optimization is complete! (in 8 steps) ****
    Final optimized geometry and variables:
    Molecular point group: c1

    Geometry (in Angstrom), charge = 0, multiplicity = 1:

    H           -3.865094733856     1.001132244695    -0.362636240460
    C           -3.211526183179     0.332984951812     0.159654453050
    C           -2.062394053451     0.003026214745    -0.376857075555
    H           -3.516675786078    -0.049635632916     1.113784302652
    O           -1.204145500414    -0.854604988473     0.220245877868
    H           -1.744893720315     0.387507235021    -1.330060399140
    C            0.037750354329    -1.039518012973    -0.359995812198
    C            1.048027826865     0.063666409236    -0.001719493850
    H           -0.036804441235    -1.077819425343    -1.439277202423
    H            0.425531503773    -1.975791348399     0.005736396317
    F            0.587540735672     0.896533248195     0.894968574422
    F            2.165702476724    -0.457163263932     0.459923460216
    F            1.369430679023     0.775229083843    -1.067899400574

  Mulliken Charges: (a.u.)
   Center  Symbol    Alpha    Beta     Spin     Total
       1     H     0.42534  0.42534  0.00000  0.14931
       2     C     3.19507  3.19507  0.00000 -0.39014
       3     C     2.96050  2.96050  0.00000  0.07899
       4     H     0.42482  0.42482  0.00000  0.15035
       5     O     4.13912  4.13912  0.00000 -0.27825
       6     H     0.43395  0.43395  0.00000  0.13210
       7     C     3.03253  3.03253  0.00000 -0.06505
       8     C     2.67343  2.67343  0.00000  0.65314
       9     H     0.45497  0.45497  0.00000  0.09005
      10     H     0.43385  0.43385  0.00000  0.13230
      11     F     4.60212  4.60212  0.00000 -0.20424
      12     F     4.61002  4.61002  0.00000 -0.22003
      13     F     4.61427  4.61427  0.00000 -0.22855

   Total alpha = 32.00000, Total beta = 32.00000, Total charge = -0.00000
