  ==> Input File <==

--------------------------------------------------------------------------
set {
	reference rhf
	basis cc-pvtz
}

set_num_threads( 4 )
memory 2 gb

molecule MOL {
0 1

H	 -2.123894	 -0.667238	 -0.609809
O	 -2.041679	 -0.058866	 0.103463
C	 -0.959304	 0.780994	 -0.094939
C	 0.354905	 0.037902	 -0.006215
H	 -0.985899	 1.279578	 -1.057596
H	 -0.969809	 1.529522	 0.682889
F	 0.237005	 -1.190085	 -0.479436
F	 1.276532	 0.652016	 -0.718299
F	 0.795628	 -0.057402	 1.225309

	symmetry c1
}
set optking {
	frozen_dihedral = ("
		7 4 3 5
	")
}

ee = optimize('scf')
oeprop('DIPOLE', 'QUADRUPOLE', 'MULLIKEN_CHARGES')
f=open( 'psi4out.xyz', 'w' )
f.write( "9  " )
f.write( str(ee) + "\n" )
f.write( MOL.save_string_xyz() )
f.close()
--------------------------------------------------------------------------

    Molecular point group: c1
  Charge       = 0
  Multiplicity = 1
  Basis Set: CC-PVTZ
  Basis Set:
  @DF-RHF Final Energy:  -450.84430038299138
    Total Energy =                       -450.8443003829912072
    Molecular point group: c1
  Basis Set: CC-PVTZ
  Basis Set:
  Basis Set: CC-PVTZ
  Basis Set:
  @DF-RHF Final Energy:  -450.84461685656828
    Total Energy =                       -450.8446168565684502
  Basis Set: CC-PVTZ
  Basis Set:
  Basis Set: CC-PVTZ
  Basis Set:
  @DF-RHF Final Energy:  -450.84476521414081
    Total Energy =                       -450.8447652141406934
  Basis Set: CC-PVTZ
  Basis Set:
  Basis Set: CC-PVTZ
  Basis Set:
  @DF-RHF Final Energy:  -450.84477407165025
    Total Energy =                       -450.8447740716500789
  Basis Set: CC-PVTZ
  Basis Set:
  Basis Set: CC-PVTZ
  Basis Set:
  @DF-RHF Final Energy:  -450.84477529132818
    Total Energy =                       -450.8447752913283466
  Basis Set: CC-PVTZ
  Basis Set:
  Charge       = 0
  Multiplicity = 1
  Basis Set: CC-PVTZ
  Basis Set:

    Orbital Energies (a.u.)
    -----------------------

    Doubly Occupied:

       1A    -26.340981     2A    -26.340959     3A    -26.334392
       4A    -20.583869     5A    -11.495269     6A    -11.309821
       7A     -1.748613     8A     -1.647093     9A     -1.641587
      10A     -1.407745    11A     -1.048835    12A     -0.930473
      13A     -0.837404    14A     -0.836990    15A     -0.814916
      16A     -0.729384    17A     -0.719540    18A     -0.705126
      19A     -0.672549    20A     -0.666734    21A     -0.649429
      22A     -0.632111    23A     -0.619823    24A     -0.531420
      25A     -0.484605

  @DF-RHF Final Energy:  -450.84477539332886

   => Energetics <=

    Nuclear Repulsion Energy =            277.3719679419538124
    One-Electron Energy =               -1176.9741455046685132
    Two-Electron Energy =                 448.7574021693858413
    DFT Exchange-Correlation Energy =       0.0000000000000000
    Empirical Dispersion Energy =           0.0000000000000000
    PCM Polarization Energy =               0.0000000000000000
    EFP Energy =                            0.0000000000000000
    Total Energy =                       -450.8447753933288595
    Molecular point group: c1
  Basis Set: CC-PVTZ
  Basis Set:

  -Total Gradient:
     Atom            X                  Y                   Z
    ------   -----------------  -----------------  -----------------
       1       -0.000016077575    -0.000008308663     0.000002796527
       2        0.000021364204     0.000003245598    -0.000018707774
       3       -0.003065881249    -0.005617750442    -0.001424235428
       4        0.001946206402     0.002866317664    -0.004794158486
       5        0.002214950715     0.004210645788     0.002211701969
       6        0.000008777433     0.000001274575     0.000000373552
       7       -0.001134522548    -0.001465565457     0.003994159003
       8        0.000011003253     0.000008058387    -0.000015189329
       9        0.000014179363     0.000002082552     0.000043259966

  **** Optimization is complete! (in 6 steps) ****
    Final optimized geometry and variables:
    Molecular point group: c1

    Geometry (in Angstrom), charge = 0, multiplicity = 1:

    H           -2.116288409343    -0.698989013772    -0.549303209456
    O           -2.055722814578    -0.033589136769     0.113158245798
    C           -0.964148598752     0.782124489408    -0.111868599755
    C            0.358276882846     0.036155797447    -0.017574586598
    H           -0.987914211716     1.299544266855    -1.064608458347
    H           -0.956971029352     1.537264365735     0.660199622926
    F            0.260074015457    -1.183820283144    -0.508839034463
    F            1.301785358777     0.668762768032    -0.681089868375
    F            0.766995500270    -0.086922349119     1.227012894587

  Mulliken Charges: (a.u.)
   Center  Symbol    Alpha    Beta     Spin     Total
       1     H     0.38569  0.38569  0.00000  0.22863
       2     O     4.18970  4.18970  0.00000 -0.37939
       3     C     2.99597  2.99597  0.00000  0.00806
       4     C     2.68034  2.68034  0.00000  0.63931
       5     H     0.46352  0.46352  0.00000  0.07295
       6     H     0.44914  0.44914  0.00000  0.10172
       7     F     4.61533  4.61533  0.00000 -0.23065
       8     F     4.61045  4.61045  0.00000 -0.22090
       9     F     4.60987  4.60987  0.00000 -0.21973

   Total alpha = 25.00000, Total beta = 25.00000, Total charge = -0.00000
