  ==> Input File <==

--------------------------------------------------------------------------
set {
	reference rhf
	basis 6-31G*
}

set_num_threads( 4 )
memory 2 gb

molecule MOL {
0 1

H	 1.136379	 0.211822	 1.465562
C	 1.135357	 0.094285	 0.374742
C	 0.065331	 0.871482	 -0.349150
O	 1.941633	 -0.601957	 -0.151457
C	 -1.051793	 1.345739	 0.591379
H	 -0.325532	 0.252317	 -1.148383
H	 0.546284	 1.738077	 -0.800657
C	 -1.881185	 0.199259	 1.171135
H	 -1.700879	 2.020312	 0.042153
H	 -0.619320	 1.931996	 1.399407
H	 -2.350722	 -0.378564	 0.381083
H	 -2.665283	 0.578745	 1.818050
H	 -1.271824	 -0.482527	 1.756999

	symmetry c1
}
set optking {
	frozen_dihedral = ("
		6 3 2 4
	")
}

ee = optimize('scf')
oeprop('DIPOLE', 'QUADRUPOLE', 'MULLIKEN_CHARGES')
f=open( 'psi4out.xyz', 'w' )
f.write( "13  " )
f.write( str(ee) + "\n" )
f.write( MOL.save_string_xyz() )
f.close()
--------------------------------------------------------------------------

    Molecular point group: c1
  Charge       = 0
  Multiplicity = 1
  Basis Set: 6-31G*
  Basis Set:
  @DF-RHF Final Energy:  -230.98332086721027
    Total Energy =                       -230.9833208672104092
    Molecular point group: c1
  Basis Set: 6-31G*
  Basis Set:
  Basis Set: 6-31G*
  Basis Set:
  @DF-RHF Final Energy:  -230.98181338029983
    Total Energy =                       -230.9818133802997977
  Basis Set: 6-31G*
  Basis Set:
  Basis Set: 6-31G*
  Basis Set:
  @DF-RHF Final Energy:  -230.98349696198034
    Total Energy =                       -230.9834969619803076
  Basis Set: 6-31G*
  Basis Set:
  Basis Set: 6-31G*
  Basis Set:
  @DF-RHF Final Energy:  -230.98337361493165
    Total Energy =                       -230.9833736149318497
  Basis Set: 6-31G*
  Basis Set:
  Basis Set: 6-31G*
  Basis Set:
  @DF-RHF Final Energy:  -230.98357470414447
    Total Energy =                       -230.9835747041444449
  Basis Set: 6-31G*
  Basis Set:
  Basis Set: 6-31G*
  Basis Set:
  @DF-RHF Final Energy:  -230.98364839539695
    Total Energy =                       -230.9836483953969548
  Basis Set: 6-31G*
  Basis Set:
  Charge       = 0
  Multiplicity = 1
  Basis Set: 6-31G*
  Basis Set:

    Orbital Energies (a.u.)
    -----------------------

    Doubly Occupied:

       1A    -20.562004     2A    -11.328081     3A    -11.237105
       4A    -11.236155     5A    -11.224455     6A     -1.402920
       7A     -1.087540     8A     -0.972332     9A     -0.848520
      10A     -0.792246    11A     -0.658856    12A     -0.648969
      13A     -0.633427    14A     -0.593031    15A     -0.569557
      16A     -0.527489    17A     -0.508433    18A     -0.493253
      19A     -0.482362    20A     -0.410169

  @DF-RHF Final Energy:  -230.98364853929044

   => Energetics <=

    Nuclear Repulsion Energy =            172.5939990137841562
    One-Electron Energy =                -654.7214851803355486
    Two-Electron Energy =                 251.1438376272609503
    DFT Exchange-Correlation Energy =       0.0000000000000000
    Empirical Dispersion Energy =           0.0000000000000000
    PCM Polarization Energy =               0.0000000000000000
    EFP Energy =                            0.0000000000000000
    Total Energy =                       -230.9836485392904706
    Molecular point group: c1
  Basis Set: 6-31G*
  Basis Set:

  -Total Gradient:
     Atom            X                  Y                   Z
    ------   -----------------  -----------------  -----------------
       1        0.000002820718    -0.000004647187    -0.000000157501
       2       -0.001366468757    -0.001580003990     0.000373945225
       3        0.001406701844     0.001014585224    -0.001022785861
       4        0.000809932281     0.001036490234    -0.000133822473
       5       -0.000008017216    -0.000002873719    -0.000012730605
       6       -0.000858664987    -0.000474809014     0.000818894405
       7       -0.000012778058     0.000024782930     0.000005388939
       8        0.000013001718    -0.000021950939     0.000006693820
       9        0.000016388329    -0.000001329449    -0.000027853991
      10        0.000002917949    -0.000006703073    -0.000002753551
      11       -0.000021198290     0.000010022080     0.000001129537
      12        0.000012876465     0.000006176494     0.000009611104
      13        0.000002488004     0.000000260410    -0.000015559049

  **** Optimization is complete! (in 7 steps) ****
    Final optimized geometry and variables:
    Molecular point group: c1

    Geometry (in Angstrom), charge = 0, multiplicity = 1:

    H            1.175910662796    -0.130535181519     1.135361638278
    C            1.117537855798    -0.269202796934     0.049091264363
    C            0.018471863111     0.491313495509    -0.660385840680
    O            1.914267903822    -0.951990443392    -0.507817107479
    C           -1.099764774554     0.972673394071     0.266773265979
    H           -0.373817440019    -0.144968597903    -1.447379390552
    H            0.495089986232     1.338877498932    -1.148821121301
    C           -1.948090329299    -0.168258291261     0.831088162847
    H           -1.739171170924     1.657053973638    -0.281865235397
    H           -0.670304304647     1.549272015432     1.083456582540
    H           -2.427664079725    -0.726588034885     0.032614102234
    H           -2.726175735957     0.211941292459     1.484637813146
    H           -1.350673233153    -0.868940643548     1.407953464555

  Mulliken Charges: (a.u.)
   Center  Symbol    Alpha    Beta     Spin     Total
       1     H     0.42964  0.42964  0.00000  0.14073
       2     C     2.83591  2.83591  0.00000  0.32818
       3     C     3.20654  3.20654  0.00000 -0.41307
       4     O     4.23968  4.23968  0.00000 -0.47937
       5     C     3.16644  3.16644  0.00000 -0.33289
       6     H     0.39905  0.39905  0.00000  0.20189
       7     H     0.39880  0.39880  0.00000  0.20240
       8     C     3.24315  3.24315  0.00000 -0.48631
       9     H     0.41207  0.41207  0.00000  0.17586
      10     H     0.41876  0.41876  0.00000  0.16248
      11     H     0.41651  0.41651  0.00000  0.16698
      12     H     0.41394  0.41394  0.00000  0.17212
      13     H     0.41950  0.41950  0.00000  0.16100

   Total alpha = 20.00000, Total beta = 20.00000, Total charge = -0.00000
