  ==> Input File <==

--------------------------------------------------------------------------
set {
	reference rhf
	basis cc-pvtz
}

set_num_threads( 4 )
memory 2 gb

molecule MOL {
0 1

H	 2.867672	 -0.456275	 0.875795
C	 2.403497	 -0.020426	 0.000000
N	 0.989899	 -0.304564	 0.000000
H	 2.867672	 -0.456275	 -0.875795
H	 2.620366	 1.051270	 0.000000
C	 0.675785	 -1.549982	 -0.669205
C	 0.206962	 0.782434	 -0.550465
H	 0.980050	 -1.526806	 -1.720218
H	 1.215103	 -2.358477	 -0.189413
C	 -0.814086	 -1.822267	 -0.589283
H	 0.402288	 1.685308	 0.016449
H	 0.475964	 0.981042	 -1.592548
C	 -1.270863	 0.450219	 -0.473595
H	 -1.070432	 -2.701160	 -1.164140
H	 -1.097356	 -1.993304	 0.447348
O	 -1.550483	 -0.758395	 -1.115630
H	 -1.857386	 1.213966	 -0.964828
H	 -1.577770	 0.396777	 0.569023

	symmetry c1
}
set optking {
	frozen_dihedral = ("
		6 3 2 5
	")
}

ee = optimize('scf')
oeprop('DIPOLE', 'QUADRUPOLE', 'MULLIKEN_CHARGES')
f=open( 'psi4out.xyz', 'w' )
f.write( "18  " )
f.write( str(ee) + "\n" )
f.write( MOL.save_string_xyz() )
f.close()
--------------------------------------------------------------------------

    Molecular point group: c1
  Charge       = 0
  Multiplicity = 1
  Basis Set: CC-PVTZ
  Basis Set:
  @DF-RHF Final Energy:  -325.14156334737635
    Total Energy =                       -325.1415633473764615
    Molecular point group: c1
  Basis Set: CC-PVTZ
  Basis Set:
  Basis Set: CC-PVTZ
  Basis Set:
  @DF-RHF Final Energy:  -325.14225092600145
    Total Energy =                       -325.1422509260016795
  Basis Set: CC-PVTZ
  Basis Set:
  Basis Set: CC-PVTZ
  Basis Set:
  @DF-RHF Final Energy:  -325.14234017380585
    Total Energy =                       -325.1423401738060193
  Basis Set: CC-PVTZ
  Basis Set:
  Charge       = 0
  Multiplicity = 1
  Basis Set: CC-PVTZ
  Basis Set:

    Orbital Energies (a.u.)
    -----------------------

    Doubly Occupied:

       1A    -20.547264     2A    -15.543938     3A    -11.263973
       4A    -11.263952     5A    -11.242618     6A    -11.242389
       7A    -11.239025     8A     -1.386278     9A     -1.231978
      10A     -1.038661    11A     -0.981449    12A     -0.883368
      13A     -0.870134    14A     -0.775199    15A     -0.684815
      16A     -0.645776    17A     -0.644453    18A     -0.633365
      19A     -0.629960    20A     -0.573598    21A     -0.557868
      22A     -0.544653    23A     -0.526598    24A     -0.500662
      25A     -0.483503    26A     -0.453541    27A     -0.410227
      28A     -0.355085

  @DF-RHF Final Energy:  -325.14234259218927

   => Energetics <=

    Nuclear Repulsion Energy =            341.7370989182389849
    One-Electron Energy =               -1119.4502218763268502
    Two-Electron Energy =                 452.5707803658985426
    DFT Exchange-Correlation Energy =       0.0000000000000000
    Empirical Dispersion Energy =           0.0000000000000000
    PCM Polarization Energy =               0.0000000000000000
    EFP Energy =                            0.0000000000000000
    Total Energy =                       -325.1423425921893227
    Molecular point group: c1
  Basis Set: CC-PVTZ
  Basis Set:

  -Total Gradient:
     Atom            X                  Y                   Z
    ------   -----------------  -----------------  -----------------
       1        0.000010507912    -0.000011297279     0.000014546225
       2       -0.000162455709     0.000636457509     0.004923708057
       3        0.000516939581    -0.002507380642     0.002983174502
       4        0.000000017911    -0.000010340571    -0.000023716975
       5        0.000008300727    -0.000038414028    -0.004824599264
       6       -0.000233978354     0.001866559122    -0.003169219337
       7       -0.000018426408    -0.000134692300     0.000141104656
       8        0.000030934407     0.000005568967    -0.000019572789
       9        0.000014171945     0.000004408125     0.000000764811
      10       -0.000012949859     0.000097201130     0.000120508626
      11       -0.000020327366    -0.000010014980    -0.000020088730
      12       -0.000039798738     0.000002003434     0.000009397512
      13       -0.000061330973     0.000151234263    -0.000105223023
      14        0.000029796428     0.000027639163    -0.000003982242
      15       -0.000028043399    -0.000032933340     0.000024720978
      16        0.000006253585    -0.000020685941    -0.000006367732
      17       -0.000080089666     0.000002353919    -0.000008348380
      18        0.000040477972    -0.000027666545    -0.000036806893

  **** Optimization is complete! (in 4 steps) ****
    Final optimized geometry and variables:
    Molecular point group: c1

    Geometry (in Angstrom), charge = 0, multiplicity = 1:

    H            2.798799528088    -0.016110909396     1.368027664223
    C            2.321534678563     0.428581105873     0.503293839849
    N            0.897434829469     0.158147220958     0.497374192413
    H            2.814409910118     0.041640108095    -0.389965346670
    H            2.502119698436     1.495314816315     0.506878621560
    C            0.579352710006    -1.083619329575    -0.178066691020
    C            0.115598064835     1.241473158101    -0.067660187945
    H            0.879445786031    -1.049775252185    -1.229460493797
    H            1.122809440931    -1.896505693979     0.291089064567
    C           -0.909013161487    -1.360888824809    -0.093131651401
    H            0.307055902784     2.149741981508     0.490996754049
    H            0.381683120564     1.430778338731    -1.112172322440
    C           -1.362908925137     0.911876774618     0.014376722451
    H           -1.163348921604    -2.240844463889    -0.667473925795
    H           -1.189188329852    -1.533155488365     0.944184206649
    O           -1.649202095942    -0.299614644560    -0.618868361227
    H           -1.949282913474     1.674762924829    -0.478761277187
    H           -1.665131478985     0.865631851035     1.058771574603

  Mulliken Charges: (a.u.)
   Center  Symbol    Alpha    Beta     Spin     Total
       1     H     0.44826  0.44826  0.00000  0.10349
       2     C     3.09296  3.09296  0.00000 -0.18591
       3     N     3.61906  3.61906  0.00000 -0.23812
       4     H     0.46674  0.46674  0.00000  0.06652
       5     H     0.45504  0.45504  0.00000  0.08993
       6     C     3.04227  3.04227  0.00000 -0.08455
       7     C     3.04001  3.04001  0.00000 -0.08002
       8     H     0.46806  0.46806  0.00000  0.06388
       9     H     0.45385  0.45385  0.00000  0.09231
      10     C     2.98399  2.98399  0.00000  0.03201
      11     H     0.45392  0.45392  0.00000  0.09215
      12     H     0.46935  0.46935  0.00000  0.06131
      13     C     2.98454  2.98454  0.00000  0.03093
      14     H     0.45005  0.45005  0.00000  0.09991
      15     H     0.46769  0.46769  0.00000  0.06463
      16     O     4.18647  4.18647  0.00000 -0.37294
      17     H     0.44987  0.44987  0.00000  0.10026
      18     H     0.46788  0.46788  0.00000  0.06423

   Total alpha = 28.00000, Total beta = 28.00000, Total charge = -0.00000
