  ==> Input File <==

--------------------------------------------------------------------------
set {
	reference rhf
	basis 6-31G*
}

set_num_threads( 4 )
memory 2 gb

molecule MOL {
0 1

O	 -1.487788	 1.240889	 -0.102860
C	 -1.083277	 0.139568	 0.115197
C	 0.323299	 -0.082943	 0.642902
C	 -1.933017	 -1.084621	 -0.143902
C	 1.355627	 -0.005344	 -0.493127
H	 0.396251	 -1.044647	 1.143147
H	 0.528637	 0.693580	 1.371677
C	 0.704548	 0.226802	 -1.855276
H	 2.064430	 0.794691	 -0.291102
H	 1.923960	 -0.929433	 -0.507170
H	 1.452562	 0.271765	 -2.640224
H	 0.148872	 1.159940	 -1.872654
H	 0.014502	 -0.575123	 -2.099819
H	 -1.393885	 -1.806447	 -0.750509
H	 -2.850323	 -0.799888	 -0.640100
H	 -2.169004	 -1.571158	 0.798858

	symmetry c1
}
set optking {
	frozen_dihedral = ("
		9 5 3 2
	")
}

ee = optimize('scf')
oeprop('DIPOLE', 'QUADRUPOLE', 'MULLIKEN_CHARGES')
f=open( 'psi4out.xyz', 'w' )
f.write( "16  " )
f.write( str(ee) + "\n" )
f.write( MOL.save_string_xyz() )
f.close()
--------------------------------------------------------------------------

    Molecular point group: c1
  Charge       = 0
  Multiplicity = 1
  Basis Set: 6-31G*
  Basis Set:
  @DF-RHF Final Energy:  -270.01737149970711
    Total Energy =                       -270.0173714997069965
    Molecular point group: c1
  Basis Set: 6-31G*
  Basis Set:
  Basis Set: 6-31G*
  Basis Set:
  @DF-RHF Final Energy:  -270.02020214331873
    Total Energy =                       -270.0202021433187838
  Basis Set: 6-31G*
  Basis Set:
  Basis Set: 6-31G*
  Basis Set:
  @DF-RHF Final Energy:  -270.01925464103022
    Total Energy =                       -270.0192546410302725
  Basis Set: 6-31G*
  Basis Set:
  Basis Set: 6-31G*
  Basis Set:
  @DF-RHF Final Energy:  -270.02142264201609
    Total Energy =                       -270.0214226420160344
  Basis Set: 6-31G*
  Basis Set:
  Basis Set: 6-31G*
  Basis Set:
  @DF-RHF Final Energy:  -270.02149096237724
    Total Energy =                       -270.0214909623776975
  Basis Set: 6-31G*
  Basis Set:
  Basis Set: 6-31G*
  Basis Set:
  @DF-RHF Final Energy:  -270.02149069569498
    Total Energy =                       -270.0214906956952632
  Basis Set: 6-31G*
  Basis Set:
  Basis Set: 6-31G*
  Basis Set:
  @DF-RHF Final Energy:  -270.02150227693653
    Total Energy =                       -270.0215022769365874
  Basis Set: 6-31G*
  Basis Set:
  Charge       = 0
  Multiplicity = 1
  Basis Set: 6-31G*
  Basis Set:

    Orbital Energies (a.u.)
    -----------------------

    Doubly Occupied:

       1A    -20.547668     2A    -11.325348     3A    -11.233331
       4A    -11.230059     5A    -11.228238     6A    -11.214980
       7A     -1.393738     8A     -1.075428     9A     -1.010828
      10A     -0.950557    11A     -0.833666    12A     -0.724334
      13A     -0.654887    14A     -0.641903    15A     -0.620750
      16A     -0.609351    17A     -0.576742    18A     -0.556871
      19A     -0.542094    20A     -0.507040    21A     -0.501921
      22A     -0.473417    23A     -0.472767    24A     -0.397688

  @DF-RHF Final Energy:  -270.02150278225292

   => Energetics <=

    Nuclear Repulsion Energy =            242.7719715875681743
    One-Electron Energy =                -846.9397410155885382
    Two-Electron Energy =                 334.1462666457674686
    DFT Exchange-Correlation Energy =       0.0000000000000000
    Empirical Dispersion Energy =           0.0000000000000000
    PCM Polarization Energy =               0.0000000000000000
    EFP Energy =                            0.0000000000000000
    Total Energy =                       -270.0215027822529237
    Molecular point group: c1
  Basis Set: 6-31G*
  Basis Set:

  -Total Gradient:
     Atom            X                  Y                   Z
    ------   -----------------  -----------------  -----------------
       1        0.000032880599    -0.000000903380    -0.000041487282
       2       -0.000016079936     0.000046302489     0.000053671890
       3       -0.000022893064    -0.000077644840    -0.000081859752
       4       -0.000033785584    -0.000019356639     0.000005011813
       5        0.000053285671    -0.000012004213     0.000051104855
       6        0.000006148707     0.000004537796     0.000003026739
       7        0.000008860180     0.000002843640     0.000017129823
       8        0.000009548182     0.000043453270     0.000012786864
       9       -0.000038094024     0.000041000665    -0.000037779637
      10        0.000000915657    -0.000001546541    -0.000003211488
      11       -0.000002333761    -0.000004689315     0.000003017042
      12        0.000010352714    -0.000006774186     0.000001846769
      13       -0.000005968348    -0.000011928440     0.000010383292
      14       -0.000000388608     0.000001392260     0.000001342065
      15       -0.000002080315    -0.000002173985     0.000003967771
      16       -0.000000368070    -0.000002508583     0.000001049235

  **** Optimization is complete! (in 8 steps) ****
    Final optimized geometry and variables:
    Molecular point group: c1

    Geometry (in Angstrom), charge = 0, multiplicity = 1:

    O           -1.197434191303     1.152253448409     0.310322392562
    C           -0.761929489358     0.052806993983     0.470976279724
    C            0.675586421045    -0.164620497349     0.917797242383
    C           -1.620060557511    -1.174969654262     0.257899644559
    C            1.740085451861    -0.061144982063    -0.218868904116
    H            0.757088414211    -1.130784742897     1.404439843327
    H            0.876078698794     0.591698280686     1.666896036302
    C            1.212137465887     0.188062809690    -1.634405039789
    H            2.428313684741     0.737884824246     0.031869897825
    H            2.327672391123    -0.973162343728    -0.222689796133
    H            2.043019034440     0.243496808514    -2.330361870279
    H            0.659109802632     1.117093739206    -1.696732899839
    H            0.560500768967    -0.612668076041    -1.972653507535
    H           -1.114600760951    -1.897333717113    -0.375682202215
    H           -2.565677155043    -0.893126693418    -0.184015486103
    H           -1.801112186139    -1.659878694973     1.213848479791

  Mulliken Charges: (a.u.)
   Center  Symbol    Alpha    Beta     Spin     Total
       1     O     4.26169  4.26169  0.00000 -0.52338
       2     C     2.73799  2.73799  0.00000  0.52402
       3     C     3.20555  3.20555  0.00000 -0.41110
       4     C     3.28944  3.28944  0.00000 -0.57888
       5     C     3.15381  3.15381  0.00000 -0.30762
       6     H     0.41494  0.41494  0.00000  0.17011
       7     H     0.39878  0.39878  0.00000  0.20245
       8     C     3.25384  3.25384  0.00000 -0.50768
       9     H     0.41144  0.41144  0.00000  0.17712
      10     H     0.41691  0.41691  0.00000  0.16618
      11     H     0.41588  0.41588  0.00000  0.16824
      12     H     0.40253  0.40253  0.00000  0.19495
      13     H     0.42311  0.42311  0.00000  0.15377
      14     H     0.41022  0.41022  0.00000  0.17956
      15     H     0.39725  0.39725  0.00000  0.20551
      16     H     0.40662  0.40662  0.00000  0.18676

   Total alpha = 24.00000, Total beta = 24.00000, Total charge = -0.00000
