  ==> Input File <==

--------------------------------------------------------------------------
set {
	reference rhf
	basis 6-31G*
}

set_num_threads( 4 )
memory 2 gb

molecule MOL {
0 1

O	 0.749854	 1.307668	 -0.000040
C	 0.576249	 0.131685	 -0.000108
C	 -0.766779	 -0.556801	 -0.000461
O	 1.568443	 -0.749345	 -0.000005
C	 -1.945214	 0.412366	 0.000161
H	 -0.796911	 -1.211249	 -0.867467
H	 -0.796854	 -1.212390	 0.865687
C	 -3.287791	 -0.317055	 0.000105
H	 -1.876087	 1.060580	 -0.866812
H	 -1.875822	 1.059691	 0.867761
H	 -3.394745	 -0.949193	 -0.877058
H	 -4.111778	 0.388953	 0.000015
H	 -3.394954	 -0.949187	 0.877259
C	 2.335392	 -0.853404	 1.185815
H	 2.810330	 0.089674	 1.415113
H	 3.079896	 -1.609264	 0.990227
H	 1.711537	 -1.148412	 2.017251

	symmetry c1
}
set optking {
	frozen_dihedral = ("
		14 4 2 1
	")
}

ee = optimize('scf')
oeprop('DIPOLE', 'QUADRUPOLE', 'MULLIKEN_CHARGES')
f=open( 'psi4out.xyz', 'w' )
f.write( "17  " )
f.write( str(ee) + "\n" )
f.write( MOL.save_string_xyz() )
f.close()
--------------------------------------------------------------------------

    Molecular point group: c1
  Charge       = 0
  Multiplicity = 1
  Basis Set: 6-31G*
  Basis Set:
  @DF-RHF Final Energy:  -344.88902160624042
    Total Energy =                       -344.8890216062403624
    Molecular point group: c1
  Basis Set: 6-31G*
  Basis Set:
  Basis Set: 6-31G*
  Basis Set:
  @DF-RHF Final Energy:  -344.88669986597728
    Total Energy =                       -344.8866998659772207
  Basis Set: 6-31G*
  Basis Set:
  Basis Set: 6-31G*
  Basis Set:
  @DF-RHF Final Energy:  -344.88998575360199
    Total Energy =                       -344.8899857536019340
  Basis Set: 6-31G*
  Basis Set:
  Basis Set: 6-31G*
  Basis Set:
  @DF-RHF Final Energy:  -344.89014096879538
    Total Energy =                       -344.8901409687957766
  Basis Set: 6-31G*
  Basis Set:
  Basis Set: 6-31G*
  Basis Set:
  @DF-RHF Final Energy:  -344.89014638710233
    Total Energy =                       -344.8901463871025612
  Basis Set: 6-31G*
  Basis Set:
  Charge       = 0
  Multiplicity = 1
  Basis Set: 6-31G*
  Basis Set:

    Orbital Energies (a.u.)
    -----------------------

    Doubly Occupied:

       1A    -20.587454     2A    -20.556261     3A    -11.375220
       4A    -11.289302     5A    -11.238770     6A    -11.223865
       7A    -11.216275     8A     -1.460266     9A     -1.366558
      10A     -1.080996    11A     -0.994437    12A     -0.947475
      13A     -0.832268    14A     -0.765238    15A     -0.699196
      16A     -0.678117    17A     -0.672851    18A     -0.633863
      19A     -0.614301    20A     -0.578087    21A     -0.565873
      22A     -0.535799    23A     -0.519000    24A     -0.496442
      25A     -0.491205    26A     -0.480726    27A     -0.453213
      28A     -0.435479

  @DF-RHF Final Energy:  -344.89014696088589

   => Energetics <=

    Nuclear Repulsion Energy =            311.9774611435947236
    One-Electron Energy =               -1088.1581428259460154
    Two-Electron Energy =                 431.2905347214652352
    DFT Exchange-Correlation Energy =       0.0000000000000000
    Empirical Dispersion Energy =           0.0000000000000000
    PCM Polarization Energy =               0.0000000000000000
    EFP Energy =                            0.0000000000000000
    Total Energy =                       -344.8901469608860566
    Molecular point group: c1
  Basis Set: 6-31G*
  Basis Set:

  -Total Gradient:
     Atom            X                  Y                   Z
    ------   -----------------  -----------------  -----------------
       1       -0.000401583849    -0.000102415843    -0.007062184484
       2       -0.000942781214    -0.001689107256     0.011347331071
       3        0.000109525770    -0.000040198328     0.000041365859
       4        0.004612444774     0.005745593884    -0.006526095822
       5       -0.000011630374     0.000000363689    -0.000021926187
       6        0.000012434949     0.000019766403    -0.000005671391
       7       -0.000001473190    -0.000001458610     0.000000604649
       8       -0.000020407026     0.000016037454     0.000010436010
       9        0.000006783667    -0.000007851475     0.000003983735
      10       -0.000005053589     0.000002329701     0.000000440566
      11       -0.000000188175     0.000004709219    -0.000004848243
      12       -0.000009011376    -0.000006302448     0.000003044211
      13        0.000000431272    -0.000004346740     0.000000389839
      14       -0.003364547291    -0.003923894618     0.002200696785
      15        0.000022012065    -0.000004997570    -0.000010845526
      16       -0.000003980596     0.000013946696     0.000015185853
      17       -0.000002975822    -0.000022174157     0.000008093073

  **** Optimization is complete! (in 6 steps) ****
    Final optimized geometry and variables:
    Molecular point group: c1

    Geometry (in Angstrom), charge = 0, multiplicity = 1:

    O            0.831371560133     1.383966909683    -0.165005992237
    C            0.646691454450     0.215974057120    -0.134646891630
    C           -0.704865325051    -0.451930989945    -0.156565622073
    O            1.660319416173    -0.675489850299    -0.173040194833
    C           -1.877308605760     0.522727070922    -0.201687991830
    H           -0.713351201075    -1.121790752547    -1.012616682138
    H           -0.763301700299    -1.097965491681     0.717295314395
    C           -3.224636728722    -0.197498559965    -0.226273249590
    H           -1.779959103686     1.156008988160    -1.076943477236
    H           -1.827055531647     1.184140296352     0.656907220962
    H           -3.312779584813    -0.841738990357    -1.096592859936
    H           -4.043337023630     0.513809057039    -0.258428617387
    H           -3.359423098167    -0.815853550874     0.656949688193
    C            2.485066067821    -0.750331452176     0.972142513562
    H            2.910804623677     0.216892210773     1.203366180568
    H            3.272905567598    -1.449471510792     0.739002929310
    H            1.921952507624    -1.116948647718     1.824042937075

  Mulliken Charges: (a.u.)
   Center  Symbol    Alpha    Beta     Spin     Total
       1     O     4.25889  4.25889  0.00000 -0.51778
       2     C     2.61095  2.61095  0.00000  0.77810
       3     C     3.20942  3.20942  0.00000 -0.41883
       4     O     4.31590  4.31590  0.00000 -0.63181
       5     C     3.15270  3.15270  0.00000 -0.30540
       6     H     0.39803  0.39803  0.00000  0.20394
       7     H     0.40713  0.40713  0.00000  0.18575
       8     C     3.24263  3.24263  0.00000 -0.48525
       9     H     0.40953  0.40953  0.00000  0.18095
      10     H     0.41200  0.41200  0.00000  0.17600
      11     H     0.42065  0.42065  0.00000  0.15869
      12     H     0.41475  0.41475  0.00000  0.17050
      13     H     0.42194  0.42194  0.00000  0.15613
      14     C     3.09397  3.09397  0.00000 -0.18793
      15     H     0.40571  0.40571  0.00000  0.18857
      16     H     0.40409  0.40409  0.00000  0.19183
      17     H     0.42173  0.42173  0.00000  0.15654

   Total alpha = 28.00000, Total beta = 28.00000, Total charge = -0.00000
