                              Psi4 1.0.54 Driver

  ==> Input File <==

--------------------------------------------------------------------------
set {
	reference rhf
	basis cc-pvtz
}

set_num_threads( 4 )
memory 2 gb

molecule MOL {
0 1

H	 -3.436473	 1.252944	 -1.023892
O	 -3.458596	 0.315260	 -0.960865
C	 -3.176635	 -0.080824	 0.355601
C	 -1.763371	 0.265266	 0.799691
H	 -3.321825	 -1.153438	 0.379502
H	 -3.895468	 0.357385	 1.043382
C	 -0.673390	 -0.426948	 -0.013392
H	 -1.631049	 1.344913	 0.747560
H	 -1.664587	 -0.001624	 1.849167
C	 -0.829034	 -0.228597	 -1.518850
H	 -0.674869	 -1.486772	 0.216140
H	 0.296333	 -0.048699	 0.301361
C	 0.267836	 -0.919665	 -2.326531
H	 -1.803155	 -0.598612	 -1.823918
H	 -0.822228	 0.835560	 -1.745525
C	 0.201515	 -0.683256	 -3.836353
H	 0.237518	 -1.989007	 -2.130475
H	 1.233128	 -0.574300	 -1.966595
C	 -1.018369	 -1.290934	 -4.524652
H	 1.097371	 -1.098260	 -4.288005
H	 0.231092	 0.385239	 -4.033491
H	 -1.077538	 -2.358858	 -4.339949
H	 -0.966835	 -1.144849	 -5.597613
H	 -1.943285	 -0.844228	 -4.180284

	symmetry c1
}
set optking {
	frozen_dihedral = ("
		11 7 4 3
	")
}

ee,wfn = optimize('scf', return_wfn=True)
oeprop( wfn, 'DIPOLE', 'QUADRUPOLE', 'MULLIKEN_CHARGES')
f=open( 'psi4out.xyz', 'w' )
f.write( "24  " )
f.write( str(ee) + "\n" )
f.write( MOL.save_string_xyz() )
f.close()
--------------------------------------------------------------------------

    Molecular point group: c1
  Charge       = 0
  Multiplicity = 1
  Basis Set: CC-PVTZ
  Basis Set:
  @DF-RHF Final Energy:  -349.37064012737284
    Total Energy =                       -349.3706401273727806
    Molecular point group: c1
  Basis Set: CC-PVTZ
  Basis Set:
  Basis Set: CC-PVTZ
  Basis Set:
  @DF-RHF Final Energy:  -349.37190101369100
    Total Energy =                       -349.3719010136911720
  Basis Set: CC-PVTZ
  Basis Set:
  Basis Set: CC-PVTZ
  Basis Set:
  @DF-RHF Final Energy:  -349.37605612003375
    Total Energy =                       -349.3760561200335815
  Basis Set: CC-PVTZ
  Basis Set:
  Basis Set: CC-PVTZ
  Basis Set:
  @DF-RHF Final Energy:  -349.37658988066960
    Total Energy =                       -349.3765898806693713
  Basis Set: CC-PVTZ
  Basis Set:
  @DF-RHF Final Energy:  -349.37678472438995
    Total Energy =                       -349.3767847243894948
  Basis Set: CC-PVTZ
  Basis Set:
  @DF-RHF Final Energy:  -349.37680436062732
    Total Energy =                       -349.3768043606278297
  Basis Set: CC-PVTZ
  Basis Set:
  Basis Set: CC-PVTZ
  Basis Set:
  @DF-RHF Final Energy:  -349.37681503768243
    Total Energy =                       -349.3768150376827180
  Basis Set: CC-PVTZ
  Basis Set:
  Basis Set: CC-PVTZ
  Basis Set:
  @DF-RHF Final Energy:  -349.37682566642047
    Total Energy =                       -349.3768256664201317
  Basis Set: CC-PVTZ
  Basis Set:
  Charge       = 0
  Multiplicity = 1
  Basis Set: CC-PVTZ
  Basis Set:

    Orbital Energies (a.u.)
    -----------------------

    Doubly Occupied:

       1A    -20.546626     2A    -11.266504     3A    -11.217058
       4A    -11.211826     5A    -11.208271     6A    -11.205786
       7A    -11.202484     8A    -11.200292     9A     -1.365061
      10A     -1.086096    11A     -1.046586    12A     -0.983346
      13A     -0.914118    14A     -0.857000    15A     -0.795135
      16A     -0.772050    17A     -0.683531    18A     -0.649367
      19A     -0.629443    20A     -0.610070    21A     -0.602461
      22A     -0.579886    23A     -0.550965    24A     -0.542322
      25A     -0.521453    26A     -0.506139    27A     -0.497319
      28A     -0.484042    29A     -0.466874    30A     -0.455254
      31A     -0.453189    32A     -0.436401    33A     -0.420194

  @DF-RHF Final Energy:  -349.37682644247741

   => Energetics <=

    Nuclear Repulsion Energy =            395.7421863813254959
    One-Electron Energy =               -1258.3037336488248457
    Two-Electron Energy =                 513.1847208250223957
    DFT Exchange-Correlation Energy =       0.0000000000000000
    Empirical Dispersion Energy =           0.0000000000000000
    PCM Polarization Energy =               0.0000000000000000
    EFP Energy =                            0.0000000000000000
    Total Energy =                       -349.3768264424769541
    Molecular point group: c1
  Basis Set: CC-PVTZ
  Basis Set:

  -Total Gradient:
     Atom            X                  Y                   Z
    ------   -----------------  -----------------  -----------------
       1       -0.000010655216     0.000013939229    -0.000024578568
       2        0.000076318757     0.000045387229     0.000007527052
       3       -0.000394397802     0.001461666414    -0.001538290261
       4        0.001049761147    -0.002002242090     0.002555740794
       5        0.000019249835    -0.000014490124     0.000018631704
       6        0.000061562048     0.000015022243     0.000029943257
       7       -0.002871400939    -0.000403062378    -0.002845298737
       8        0.000010450593     0.000025297528     0.000004676528
       9       -0.000046395585    -0.000023183531    -0.000021370226
      10       -0.000044532189    -0.000038620684     0.000008560741
      11        0.002180852228     0.000865969926     0.001765574712
      12       -0.000031603909     0.000014189125     0.000029772538
      13        0.000014298111     0.000031565964     0.000003679056
      14       -0.000019259036    -0.000009234409    -0.000013522919
      15        0.000015183326     0.000011827985    -0.000002042955
      16       -0.000008484742    -0.000001851818    -0.000000062569
      17       -0.000004747384     0.000014276799     0.000004182512
      18        0.000002461369    -0.000009718642    -0.000010054573
      19        0.000003038358     0.000005004609    -0.000001138551
      20       -0.000029031783     0.000002870071     0.000019284192
      21        0.000003942056    -0.000029586984    -0.000005848701
      22        0.000005395266     0.000022046815    -0.000001389149
      23       -0.000004212484     0.000005967087     0.000015946791
      24        0.000022207978    -0.000003040365     0.000000077330

  **** Optimization is complete! (in 9 steps) ****
    Final optimized geometry and variables:
    Molecular point group: c1

    Geometry (in Angstrom), charge = 0, multiplicity = 1:

    H           -2.380197294936     1.639069610359     1.014594919793
    O           -2.320620679015     0.701180022367     1.001092621318
    C           -1.647430461748     0.250570187527     2.146387447017
    C           -0.206429804472     0.735765719777     2.257119523252
    H           -1.678698244075    -0.831342390857     2.104076039908
    H           -2.192874521574     0.550628451018     3.037631189117
    C            0.813519944610     0.087497341030     1.316206482190
    H           -0.199808404881     1.815567559471     2.114018447974
    H            0.120924052420     0.568520577612     3.279298649440
    C            0.500571187918     0.137769391685    -0.177419335216
    H            0.970440246439    -0.943165225522     1.626935394994
    H            1.767760031492     0.580760054318     1.485588350587
    C            1.630625614563    -0.447967542250    -1.022312947691
    H           -0.424496520305    -0.384944276532    -0.375367259650
    H            0.332042609398     1.170650857912    -0.474293154274
    C            1.409071559627    -0.362698840734    -2.533549817387
    H            1.785668564355    -1.488278318932    -0.743762129513
    H            2.555156365473     0.069901064123    -0.780623844237
    C            0.249427657494    -1.206861305155    -3.056656634998
    H            2.320800674236    -0.676788544044    -3.032756245275
    H            1.253349976472     0.675740827014    -2.814329259617
    H            0.375815455028    -2.250601321419    -2.786775801251
    H            0.191123997294    -1.151483032728    -4.137853748316
    H           -0.703180064474    -0.876460200722    -2.661458829358

  Mulliken Charges: (a.u.)
   Center  Symbol    Alpha    Beta     Spin     Total
       1     H     0.39616  0.39616  0.00000  0.20767
       2     O     4.20233  4.20233  0.00000 -0.40467
       3     C     2.98721  2.98721  0.00000  0.02557
       4     C     3.10244  3.10244  0.00000 -0.20488
       5     H     0.45464  0.45464  0.00000  0.09071
       6     H     0.45518  0.45518  0.00000  0.08964
       7     C     3.10079  3.10079  0.00000 -0.20158
       8     H     0.45912  0.45912  0.00000  0.08176
       9     H     0.44714  0.44714  0.00000  0.10572
      10     C     3.08927  3.08927  0.00000 -0.17853
      11     H     0.45286  0.45286  0.00000  0.09428
      12     H     0.45002  0.45002  0.00000  0.09996
      13     C     3.09549  3.09549  0.00000 -0.19098
      14     H     0.43872  0.43872  0.00000  0.12256
      15     H     0.45962  0.45962  0.00000  0.08075
      16     C     3.08921  3.08921  0.00000 -0.17841
      17     H     0.45558  0.45558  0.00000  0.08885
      18     H     0.45107  0.45107  0.00000  0.09786
      19     C     3.15338  3.15338  0.00000 -0.30676
      20     H     0.44977  0.44977  0.00000  0.10046
      21     H     0.45587  0.45587  0.00000  0.08825
      22     H     0.45596  0.45596  0.00000  0.08809
      23     H     0.44759  0.44759  0.00000  0.10481
      24     H     0.45057  0.45057  0.00000  0.09887

   Total alpha = 33.00000, Total beta = 33.00000, Total charge = -0.00000

*** Psi4 exiting successfully. Buy a developer a beer!
