  ==> Input File <==

--------------------------------------------------------------------------
set {
	reference rhf
	basis 6-31G*
}

set_num_threads( 4 )
memory 2 gb

molecule MOL {
0 1

H	 -1.152704	 -0.000258	 0.803141
N	 -0.712432	 0.000013	 -0.096310
C	 0.734192	 -0.000004	 0.040609
H	 -1.022624	 0.825184	 -0.571421
H	 1.139899	 -0.873598	 -0.456463
H	 1.139939	 0.873831	 -0.456100
H	 1.096456	 -0.000300	 1.069655

	symmetry c1
}
set optking {
	frozen_dihedral = ("
		1 2 3 7
	")
}

ee = optimize('scf')
oeprop('DIPOLE', 'QUADRUPOLE', 'MULLIKEN_CHARGES')
f=open( 'psi4out.xyz', 'w' )
f.write( "7  " )
f.write( str(ee) + "\n" )
f.write( MOL.save_string_xyz() )
f.close()
--------------------------------------------------------------------------

    Molecular point group: c1
  Charge       = 0
  Multiplicity = 1
  Basis Set: 6-31G*
  Basis Set:
  @DF-RHF Final Energy:   -95.20525309770298
    Total Energy =                        -95.2052530977029505
    Molecular point group: c1
  Basis Set: 6-31G*
  Basis Set:
  Basis Set: 6-31G*
  Basis Set:
  @DF-RHF Final Energy:   -95.20584053729600
    Total Energy =                        -95.2058405372959839
  Basis Set: 6-31G*
  Basis Set:
  Basis Set: 6-31G*
  Basis Set:
  @DF-RHF Final Energy:   -95.20598452331861
    Total Energy =                        -95.2059845233185769
  Basis Set: 6-31G*
  Basis Set:
  Basis Set: 6-31G*
  Basis Set:
  @DF-RHF Final Energy:   -95.20598705368923
    Total Energy =                        -95.2059870536892987
  Basis Set: 6-31G*
  Basis Set:
  Charge       = 0
  Multiplicity = 1
  Basis Set: 6-31G*
  Basis Set:

    Orbital Energies (a.u.)
    -----------------------

    Doubly Occupied:

       1A    -15.531803     2A    -11.237411     3A     -1.166839
       4A     -0.897506     5A     -0.663871     6A     -0.599195
       7A     -0.559288     8A     -0.518542     9A     -0.379050

  @DF-RHF Final Energy:   -95.20598739451549

   => Energetics <=

    Nuclear Repulsion Energy =             42.2386833137212037
    One-Electron Energy =                -211.7823303139681457
    Two-Electron Energy =                  74.3376596057314316
    DFT Exchange-Correlation Energy =       0.0000000000000000
    Empirical Dispersion Energy =           0.0000000000000000
    PCM Polarization Energy =               0.0000000000000000
    EFP Energy =                            0.0000000000000000
    Total Energy =                        -95.2059873945155175
    Molecular point group: c1
  Basis Set: 6-31G*
  Basis Set:

  -Total Gradient:
     Atom            X                  Y                   Z
    ------   -----------------  -----------------  -----------------
       1       -0.000014702382     0.000027039139    -0.000004848775
       2       -0.000062016826    -0.000022621839    -0.000005118695
       3        0.000099521343    -0.000016690626     0.000010075816
       4        0.000006233892    -0.000000789703     0.000007512459
       5       -0.000003879497     0.000019907220    -0.000004762953
       6       -0.000021848763    -0.000000734753    -0.000001730155
       7       -0.000003307765    -0.000006109437    -0.000001127696

  **** Optimization is complete! (in 5 steps) ****
    Final optimized geometry and variables:
    Molecular point group: c1

    Geometry (in Angstrom), charge = 0, multiplicity = 1:

    H           -1.153692078333    -0.026740872351     0.831065955752
    N           -0.718341740078    -0.023800310854    -0.068011372569
    C            0.737782170526    -0.027777511647     0.039349252441
    H           -1.049068466525     0.783599768322    -0.554409326978
    H            1.154449279564    -0.906798195196    -0.441304137993
    H            1.178760023969     0.844519197343    -0.433190825204
    H            1.065797079996    -0.033147970179     1.074287359481

  Mulliken Charges: (a.u.)
   Center  Symbol    Alpha    Beta     Spin     Total
       1     H     0.33102  0.33102  0.00000  0.33795
       2     N     3.92559  3.92559  0.00000 -0.85119
       3     C     3.14545  3.14545  0.00000 -0.29090
       4     H     0.33103  0.33103  0.00000  0.33795
       5     H     0.41664  0.41664  0.00000  0.16672
       6     H     0.42512  0.42512  0.00000  0.14977
       7     H     0.42515  0.42515  0.00000  0.14970

   Total alpha =  9.00000, Total beta =  9.00000, Total charge = -0.00000
