                              Psi4 1.0.54 Driver

  ==> Input File <==

--------------------------------------------------------------------------
set {
	reference rhf
	basis cc-pvtz
}

set_num_threads( 4 )
memory 2 gb

molecule MOL {
0 1

H	 -2.266619	 1.169943	 0.000098
O	 -1.438073	 1.611259	 0.000041
C	 -0.408657	 0.734701	 0.000005
C	 -0.545767	 -0.389610	 -0.792796
C	 0.739510	 0.940529	 0.755954
H	 -1.446825	 -0.512119	 -1.361141
C	 0.465253	 -1.325818	 -0.840967
C	 1.739078	 -0.016452	 0.688283
C	 0.887608	 2.167987	 1.620603
H	 0.351791	 -2.196187	 -1.458677
C	 1.616170	 -1.143995	 -0.098835
H	 2.632738	 0.128005	 1.266619
H	 0.111943	 2.222558	 2.379343
H	 1.838614	 2.161083	 2.133419
H	 0.843383	 3.081666	 1.034464
H	 2.406780	 -1.868045	 -0.131350

	symmetry c1
}
set optking {
	frozen_dihedral = ("
		4 3 2 1
	")
}

ee,wfn = optimize('scf', return_wfn=True)
oeprop( wfn, 'DIPOLE', 'QUADRUPOLE', 'MULLIKEN_CHARGES')
f=open( 'psi4out.xyz', 'w' )
f.write( "16  " )
f.write( str(ee) + "\n" )
f.write( MOL.save_string_xyz() )
f.close()
--------------------------------------------------------------------------

    Molecular point group: c1
  Charge       = 0
  Multiplicity = 1
  Basis Set: CC-PVTZ
  Basis Set:
  @DF-RHF Final Energy:  -344.71651931742821
    Total Energy =                       -344.7165193174284923
    Molecular point group: c1
  Basis Set: CC-PVTZ
  Basis Set:
  Basis Set: CC-PVTZ
  Basis Set:
  @DF-RHF Final Energy:  -344.71838946250421
    Total Energy =                       -344.7183894625043195
  Basis Set: CC-PVTZ
  Basis Set:
  Basis Set: CC-PVTZ
  Basis Set:
  @DF-RHF Final Energy:  -344.71853099127048
    Total Energy =                       -344.7185309912701427
  Basis Set: CC-PVTZ
  Basis Set:
  Basis Set: CC-PVTZ
  Basis Set:
  @DF-RHF Final Energy:  -344.71854191938172
    Total Energy =                       -344.7185419193819484
  Basis Set: CC-PVTZ
  Basis Set:
  Basis Set: CC-PVTZ
  Basis Set:
  @DF-RHF Final Energy:  -344.71854499435710
    Total Energy =                       -344.7185449943572166
  Basis Set: CC-PVTZ
  Basis Set:
  Charge       = 0
  Multiplicity = 1
  Basis Set: CC-PVTZ
  Basis Set:

    Orbital Energies (a.u.)
    -----------------------

    Doubly Occupied:

       1A    -20.577765     2A    -11.288021     3A    -11.230064
       4A    -11.228360     5A    -11.225813     6A    -11.223679
       7A    -11.219075     8A    -11.213501     9A     -1.406389
      10A     -1.153044    11A     -1.047346    12A     -1.006416
      13A     -0.932396    14A     -0.843803    15A     -0.803298
      16A     -0.734149    17A     -0.673469    18A     -0.655474
      19A     -0.618455    20A     -0.596849    21A     -0.575895
      22A     -0.562879    23A     -0.543992    24A     -0.537045
      25A     -0.502299    26A     -0.485660    27A     -0.473883
      28A     -0.333448    29A     -0.313370

  @DF-RHF Final Energy:  -344.71854510308060

   => Energetics <=

    Nuclear Repulsion Energy =            350.7717825417703352
    One-Electron Energy =               -1162.9689774654066241
    Two-Electron Energy =                 467.4786498205559155
    DFT Exchange-Correlation Energy =       0.0000000000000000
    Empirical Dispersion Energy =           0.0000000000000000
    PCM Polarization Energy =               0.0000000000000000
    EFP Energy =                            0.0000000000000000
    Total Energy =                       -344.7185451030803733
    Molecular point group: c1
  Basis Set: CC-PVTZ
  Basis Set:

  -Total Gradient:
     Atom            X                  Y                   Z
    ------   -----------------  -----------------  -----------------
       1        0.000015287677    -0.000101286642     0.002592792937
       2        0.000439265842     0.000623964514    -0.004012544742
       3       -0.001342869834    -0.001490522533     0.002863103967
       4        0.000851143783     0.000973726243    -0.001464404232
       5        0.000004806349    -0.000028082075     0.000023964217
       6       -0.000001613099    -0.000001579767     0.000001286187
       7       -0.000002783035    -0.000005176631    -0.000004032170
       8        0.000020733186     0.000027950060    -0.000030966003
       9        0.000018144920     0.000003376912    -0.000002825144
      10        0.000004049885     0.000003439188     0.000000886907
      11       -0.000002992257     0.000002795215     0.000031030447
      12        0.000000882057    -0.000000072366     0.000005411075
      13       -0.000001588042    -0.000005098379    -0.000001309836
      14        0.000000449042     0.000001557971    -0.000000671254
      15       -0.000002478133    -0.000002832241     0.000000790194
      16       -0.000000438344    -0.000002159466    -0.000002512554

  **** Optimization is complete! (in 6 steps) ****
    Final optimized geometry and variables:
    Molecular point group: c1

    Geometry (in Angstrom), charge = 0, multiplicity = 1:

    H           -2.574434064323     0.883003025981    -0.149733377102
    O           -1.720938454505     1.276807327133    -0.137789405276
    C           -0.749674423929     0.325594862868    -0.178877180765
    C           -0.876609959906    -0.789663332073    -0.981854162181
    C            0.402332400703     0.545651681647     0.567799393767
    H           -1.767385412450    -0.919722318539    -1.568549266061
    C            0.139123897636    -1.726586357716    -1.032351027822
    C            1.408636531765    -0.399928192434     0.490064715631
    C            0.533832171206     1.778683702822     1.422887923359
    H            0.031024529333    -2.595174929518    -1.653311394461
    C            1.287380763122    -1.532996478793    -0.295755736932
    H            2.305805994503    -0.249299203732     1.061063487440
    H           -0.263264812684     1.833356338926     2.154275214908
    H            1.479648958691     1.778809938224     1.947725366048
    H            0.476572411660     2.678884899524     0.823058403024
    H            2.084172420889    -2.250425166981    -0.331431071693

  Mulliken Charges: (a.u.)
   Center  Symbol    Alpha    Beta     Spin     Total
       1     H     0.38519  0.38519  0.00000  0.22962
       2     O     4.18272  4.18272  0.00000 -0.36543
       3     C     2.87504  2.87504  0.00000  0.24992
       4     C     3.12523  3.12523  0.00000 -0.25047
       5     C     2.99425  2.99425  0.00000  0.01150
       6     H     0.42965  0.42965  0.00000  0.14069
       7     C     3.07382  3.07382  0.00000 -0.14763
       8     C     3.08653  3.08653  0.00000 -0.17306
       9     C     3.14018  3.14018  0.00000 -0.28036
      10     H     0.42257  0.42257  0.00000  0.15485
      11     C     3.08619  3.08619  0.00000 -0.17238
      12     H     0.42490  0.42490  0.00000  0.15020
      13     H     0.44929  0.44929  0.00000  0.10143
      14     H     0.45402  0.45402  0.00000  0.09195
      15     H     0.44580  0.44580  0.00000  0.10840
      16     H     0.42462  0.42462  0.00000  0.15076

   Total alpha = 29.00000, Total beta = 29.00000, Total charge = -0.00000

*** Psi4 exiting successfully. Buy a developer a beer!
