  ==> Input File <==

--------------------------------------------------------------------------
set {
	reference rhf
	basis 6-31G*
}

set_num_threads( 4 )
memory 2 gb

molecule MOL {
0 1

H	 -3.408315	 -1.030961	 -0.139285
O	 -3.119657	 -0.141268	 0.011510
C	 -1.777545	 -0.059395	 0.001477
C	 -0.968376	 -1.172140	 -0.208392
C	 -1.212713	 1.192493	 0.210777
H	 -1.414216	 -2.138822	 -0.369833
C	 0.403175	 -1.028375	 -0.208105
H	 -1.857870	 2.035453	 0.370347
C	 0.160646	 1.320219	 0.208218
H	 1.039518	 -1.878295	 -0.368736
C	 0.984182	 0.218375	 0.000000
H	 0.598863	 2.290134	 0.370364
C	 2.452467	 0.370529	 0.000000
O	 3.228994	 -0.533774	 0.000000
H	 2.809473	 1.405765	 0.000000

	symmetry c1
}
set optking {
	frozen_dihedral = ("
		7 11 13 14
	")
}

ee = optimize('scf')
oeprop('DIPOLE', 'QUADRUPOLE', 'MULLIKEN_CHARGES')
f=open( 'psi4out.xyz', 'w' )
f.write( "15  " )
f.write( str(ee) + "\n" )
f.write( MOL.save_string_xyz() )
f.close()
--------------------------------------------------------------------------

    Molecular point group: c1
  Charge       = 0
  Multiplicity = 1
  Basis Set: 6-31G*
  Basis Set:
  @DF-RHF Final Energy:  -418.28955641280396
    Total Energy =                       -418.2895564128040178
    Molecular point group: c1
  Basis Set: 6-31G*
  Basis Set:
  Basis Set: 6-31G*
  Basis Set:
  @DF-RHF Final Energy:  -418.28915176124866
    Total Energy =                       -418.2891517612488315
  Basis Set: 6-31G*
  Basis Set:
  Basis Set: 6-31G*
  Basis Set:
  @DF-RHF Final Energy:  -418.28960462707226
    Total Energy =                       -418.2896046270722081
  Basis Set: 6-31G*
  Basis Set:
  Basis Set: 6-31G*
  Basis Set:
  @DF-RHF Final Energy:  -418.28962399139471
    Total Energy =                       -418.2896239913950467
  Basis Set: 6-31G*
  Basis Set:
  Charge       = 0
  Multiplicity = 1
  Basis Set: 6-31G*
  Basis Set:

    Orbital Energies (a.u.)
    -----------------------

    Doubly Occupied:

       1A    -20.611008     2A    -20.555977     3A    -11.327996
       4A    -11.323758     5A    -11.260538     6A    -11.256857
       7A    -11.244399     8A    -11.238736     9A    -11.238668
      10A     -1.432123    11A     -1.397110    12A     -1.170565
      13A     -1.041450    14A     -1.038697    15A     -0.888843
      16A     -0.867333    17A     -0.794433    18A     -0.757422
      19A     -0.713646    20A     -0.666396    21A     -0.641161
      22A     -0.628196    23A     -0.608271    24A     -0.608044
      25A     -0.582920    26A     -0.558465    27A     -0.548198
      28A     -0.506392    29A     -0.483884    30A     -0.418568
      31A     -0.357939    32A     -0.326267

  @DF-RHF Final Energy:  -418.28962432136785

   => Energetics <=

    Nuclear Repulsion Energy =            401.3429656660346723
    One-Electron Energy =               -1365.0766531543872588
    Two-Electron Energy =                 545.4440631669847335
    DFT Exchange-Correlation Energy =       0.0000000000000000
    Empirical Dispersion Energy =           0.0000000000000000
    PCM Polarization Energy =               0.0000000000000000
    EFP Energy =                            0.0000000000000000
    Total Energy =                       -418.2896243213679099
    Molecular point group: c1
  Basis Set: 6-31G*
  Basis Set:

  -Total Gradient:
     Atom            X                  Y                   Z
    ------   -----------------  -----------------  -----------------
       1       -0.000006721734     0.000000084149    -0.000014686147
       2        0.000003508378     0.000010538248    -0.000082072143
       3        0.000000419591    -0.000037822466     0.000270592298
       4        0.000001216317     0.000007778772    -0.000043333000
       5       -0.000001505426     0.000021246676    -0.000081905118
       6       -0.000000048608     0.000000962218    -0.000005798621
       7       -0.000056385090     0.000358034096    -0.001935708917
       8       -0.000001393498    -0.000003308577     0.000001670224
       9       -0.000005733741     0.000008454354    -0.000050641350
      10        0.000001064234     0.000001956230     0.000013106591
      11        0.000123163817    -0.000518968117     0.003867152892
      12        0.000001480284    -0.000012321321     0.000054845760
      13       -0.000082154859     0.000200176517    -0.004383530308
      14        0.000038157613    -0.000037125082     0.002402703461
      15       -0.000015067268     0.000000314302    -0.000012395622

  **** Optimization is complete! (in 5 steps) ****
    Final optimized geometry and variables:
    Molecular point group: c1

    Geometry (in Angstrom), charge = 0, multiplicity = 1:

    H           -3.407989538379    -1.030642832011    -0.139048933778
    O           -3.119917768465    -0.140604791616     0.010524964018
    C           -1.777635722432    -0.059601812608     0.004620062413
    C           -0.968571971716    -1.172199387345    -0.206105318299
    C           -1.212799698802     1.192449961803     0.212430295796
    H           -1.414384898788    -2.137805039790    -0.373878616184
    C            0.403067458374    -1.029363884665    -0.200577296984
    H           -1.857631648113     2.036362063280     0.368615482424
    C            0.160545500003     1.320608400513     0.207262296111
    H            1.039072344217    -1.879895039396    -0.359645546270
    C            0.984224141954     0.216242185372     0.013629782292
    H            0.598484016375     2.291972652595     0.361213599268
    C            2.452366386356     0.371141235771    -0.003690959413
    O            3.229760290745    -0.532289624529    -0.023597501763
    H            2.808654354774     1.406207015655     0.021956959227

  Mulliken Charges: (a.u.)
   Center  Symbol    Alpha    Beta     Spin     Total
       1     H     0.26850  0.26850  0.00000  0.46300
       2     O     4.37296  4.37296  0.00000 -0.74592
       3     C     2.78519  2.78519  0.00000  0.42961
       4     C     3.14738  3.14738  0.00000 -0.29475
       5     C     3.12838  3.12838  0.00000 -0.25676
       6     H     0.39793  0.39793  0.00000  0.20413
       7     C     3.07808  3.07808  0.00000 -0.15617
       8     H     0.38646  0.38646  0.00000  0.22709
       9     C     3.09205  3.09205  0.00000 -0.18410
      10     H     0.37491  0.37491  0.00000  0.25018
      11     C     3.06805  3.06805  0.00000 -0.13610
      12     H     0.38986  0.38986  0.00000  0.22028
      13     C     2.83139  2.83139  0.00000  0.33723
      14     O     4.25407  4.25407  0.00000 -0.50814
      15     H     0.42479  0.42479  0.00000  0.15042

   Total alpha = 32.00000, Total beta = 32.00000, Total charge = -0.00000
