  ==> Input File <==

--------------------------------------------------------------------------
set {
	reference rhf
	basis 6-31G*
}

set_num_threads( 4 )
memory 2 gb

molecule MOL {
0 1

H	 -1.075903	 1.732022	 -3.005952
O	 -1.477656	 1.119856	 -2.405756
C	 -0.785094	 1.131077	 -1.186239
C	 0.544688	 0.407058	 -1.300886
H	 -0.620437	 2.143338	 -0.827668
H	 -1.410834	 0.624344	 -0.465046
O	 1.171513	 0.459272	 -0.058250
H	 1.165108	 0.881713	 -2.063620
H	 0.374804	 -0.621712	 -1.612906
C	 2.397842	 -0.198080	 -0.002151
H	 2.508049	 -0.905315	 -0.822092
H	 3.173794	 0.550865	 -0.078850
H	 2.517602	 -0.735921	 0.936026

	symmetry c1
}
set optking {
	frozen_dihedral = ("
		4 7 10 13
	")
}

ee = optimize('scf')
oeprop('DIPOLE', 'QUADRUPOLE', 'MULLIKEN_CHARGES')
f=open( 'psi4out.xyz', 'w' )
f.write( "13  " )
f.write( str(ee) + "\n" )
f.write( MOL.save_string_xyz() )
f.close()
--------------------------------------------------------------------------

    Molecular point group: c1
  Charge       = 0
  Multiplicity = 1
  Basis Set: 6-31G*
  Basis Set:
  @DF-RHF Final Energy:  -267.94686150772372
    Total Energy =                       -267.9468615077234972
    Molecular point group: c1
  Basis Set: 6-31G*
  Basis Set:
  Basis Set: 6-31G*
  Basis Set:
  @DF-RHF Final Energy:  -267.94758568086866
    Total Energy =                       -267.9475856808684853
  Basis Set: 6-31G*
  Basis Set:
  Basis Set: 6-31G*
  Basis Set:
  @DF-RHF Final Energy:  -267.94774576097876
    Total Energy =                       -267.9477457609787052
  Basis Set: 6-31G*
  Basis Set:
  Charge       = 0
  Multiplicity = 1
  Basis Set: 6-31G*
  Basis Set:

    Orbital Energies (a.u.)
    -----------------------

    Doubly Occupied:

       1A    -20.559865     2A    -20.559511     3A    -11.271224
       4A    -11.269885     5A    -11.268501     6A     -1.385194
       7A     -1.364461     8A     -1.018329     9A     -0.913576
      10A     -0.841543    11A     -0.708933    12A     -0.672025
      13A     -0.658045    14A     -0.636953    15A     -0.595902
      16A     -0.569948    17A     -0.546843    18A     -0.489551
      19A     -0.480891    20A     -0.437949    21A     -0.418179

  @DF-RHF Final Energy:  -267.94774647871338

   => Energetics <=

    Nuclear Repulsion Energy =            189.9781660243921806
    One-Electron Energy =                -742.5172082255809300
    Two-Electron Energy =                 284.5912957224751949
    DFT Exchange-Correlation Energy =       0.0000000000000000
    Empirical Dispersion Energy =           0.0000000000000000
    PCM Polarization Energy =               0.0000000000000000
    EFP Energy =                            0.0000000000000000
    Total Energy =                       -267.9477464787135546
    Molecular point group: c1
  Basis Set: 6-31G*
  Basis Set:

  -Total Gradient:
     Atom            X                  Y                   Z
    ------   -----------------  -----------------  -----------------
       1       -0.000017943489     0.000004004416    -0.000031215386
       2       -0.000007373034     0.000062299090    -0.000043458918
       3        0.000009728729    -0.000046481385    -0.000002795928
       4       -0.001082140901    -0.001973298272     0.000611914782
       5       -0.000025390129     0.000020070708    -0.000000046230
       6        0.000050633431    -0.000007615253     0.000010419046
       7        0.001273949044     0.002149274603    -0.001051904330
       8        0.000020336662     0.000012175069     0.000061152979
       9       -0.000023214871     0.000011656210    -0.000032999811
      10        0.000926932750     0.001914522743     0.001587342637
      11       -0.000015217197    -0.000005156709    -0.000005529704
      12        0.000000739751     0.000007557182     0.000003945951
      13       -0.001111040751    -0.002149008403    -0.001106825086

  **** Optimization is complete! (in 4 steps) ****
    Final optimized geometry and variables:
    Molecular point group: c1

    Geometry (in Angstrom), charge = 0, multiplicity = 1:

    H           -1.466394943738     1.149939060440    -1.976284068328
    O           -1.856039707046     0.527311230795    -1.378885988373
    C           -1.152517177506     0.533148937201    -0.165264511500
    C            0.181648845308    -0.179380296695    -0.298218109357
    H           -0.992994518667     1.543538651857     0.200521072266
    H           -1.766897394236     0.014898749273     0.557496706694
    O            0.814189135749    -0.134948189895     0.942913313939
    H            0.789181116624     0.308703307604    -1.062598666433
    H            0.015843265957    -1.205658148886    -0.617753199198
    C            2.048111737736    -0.785228841578     1.022909958241
    H            2.158935207169    -1.528862232457     0.238559070749
    H            2.865902990897    -0.075132213689     0.943042745816
    H            2.104796214414    -1.297190666075     1.975213592059

  Mulliken Charges: (a.u.)
   Center  Symbol    Alpha    Beta     Spin     Total
       1     H     0.28128  0.28128  0.00000  0.43745
       2     O     4.37098  4.37098  0.00000 -0.74197
       3     C     3.00488  3.00488  0.00000 -0.00977
       4     C     2.99624  2.99624  0.00000  0.00753
       5     H     0.42228  0.42228  0.00000  0.15544
       6     H     0.40854  0.40854  0.00000  0.18292
       7     O     4.31130  4.31130  0.00000 -0.62261
       8     H     0.43781  0.43781  0.00000  0.12438
       9     H     0.42274  0.42274  0.00000  0.15452
      10     C     3.07714  3.07714  0.00000 -0.15428
      11     H     0.42866  0.42866  0.00000  0.14267
      12     H     0.42353  0.42353  0.00000  0.15294
      13     H     0.41461  0.41461  0.00000  0.17077

   Total alpha = 21.00000, Total beta = 21.00000, Total charge = -0.00000
