  ==> Input File <==

--------------------------------------------------------------------------
set {
	reference rhf
	basis 6-31G*
}

set_num_threads( 4 )
memory 2 gb

molecule MOL {
0 1

H	 -1.020265	 -0.811255	 -0.596246
N	 -0.712432	 0.000013	 -0.096310
C	 0.734192	 -0.000004	 0.040609
H	 -1.152692	 -0.028251	 0.802706
H	 1.139899	 -0.873598	 -0.456463
H	 1.139939	 0.873831	 -0.456100
H	 1.096456	 -0.000300	 1.069655

	symmetry c1
}
set optking {
	frozen_dihedral = ("
		1 2 3 7
	")
}

ee = optimize('scf')
oeprop('DIPOLE', 'QUADRUPOLE', 'MULLIKEN_CHARGES')
f=open( 'psi4out.xyz', 'w' )
f.write( "7  " )
f.write( str(ee) + "\n" )
f.write( MOL.save_string_xyz() )
f.close()
--------------------------------------------------------------------------

    Molecular point group: c1
  Charge       = 0
  Multiplicity = 1
  Basis Set: 6-31G*
  Basis Set:
  @DF-RHF Final Energy:   -95.20519684762922
    Total Energy =                        -95.2051968476291819
    Molecular point group: c1
  Basis Set: 6-31G*
  Basis Set:
  Basis Set: 6-31G*
  Basis Set:
  @DF-RHF Final Energy:   -95.20583044431955
    Total Energy =                        -95.2058304443195595
  Basis Set: 6-31G*
  Basis Set:
  Basis Set: 6-31G*
  Basis Set:
  @DF-RHF Final Energy:   -95.20598652449337
    Total Energy =                        -95.2059865244934400
  Basis Set: 6-31G*
  Basis Set:
  Charge       = 0
  Multiplicity = 1
  Basis Set: 6-31G*
  Basis Set:

    Orbital Energies (a.u.)
    -----------------------

    Doubly Occupied:

       1A    -15.531813     2A    -11.237407     3A     -1.166844
       4A     -0.897500     5A     -0.663869     6A     -0.599225
       7A     -0.559240     8A     -0.518541     9A     -0.379063

  @DF-RHF Final Energy:   -95.20598735777932

   => Energetics <=

    Nuclear Repulsion Energy =             42.2385886203707059
    One-Electron Energy =                -211.7821476310194839
    Two-Electron Energy =                  74.3375716528694994
    DFT Exchange-Correlation Energy =       0.0000000000000000
    Empirical Dispersion Energy =           0.0000000000000000
    PCM Polarization Energy =               0.0000000000000000
    EFP Energy =                            0.0000000000000000
    Total Energy =                        -95.2059873577792786
    Molecular point group: c1
  Basis Set: 6-31G*
  Basis Set:

  -Total Gradient:
     Atom            X                  Y                   Z
    ------   -----------------  -----------------  -----------------
       1        0.000028786623    -0.000006417830    -0.000000114549
       2       -0.000065934287     0.000097781111     0.000003379683
       3        0.000070617343    -0.000092792248    -0.000019756076
       4       -0.000019969362    -0.000015857335     0.000011277147
       5        0.000035648504     0.000010858661     0.000005598595
       6       -0.000046236059    -0.000005222715    -0.000005842975
       7       -0.000002912762     0.000011650356     0.000005458175

  **** Optimization is complete! (in 4 steps) ****
    Final optimized geometry and variables:
    Molecular point group: c1

    Geometry (in Angstrom), charge = 0, multiplicity = 1:

    H           -1.046213817273    -0.779998460981    -0.564655322842
    N           -0.718238698454     0.023129142322    -0.069381462652
    C            0.737628427786     0.028736924444     0.041273890580
    H           -1.155558088749     0.016107078313     0.828738366221
    H            1.181848919979    -0.837716303280    -0.438940957388
    H            1.153276925773     0.913543075558    -0.429545921293
    H            1.063290790998     0.024534569307     1.076973035266

  Mulliken Charges: (a.u.)
   Center  Symbol    Alpha    Beta     Spin     Total
       1     H     0.33103  0.33103  0.00000  0.33794
       2     N     3.92558  3.92558  0.00000 -0.85115
       3     C     3.14548  3.14548  0.00000 -0.29095
       4     H     0.33102  0.33102  0.00000  0.33796
       5     H     0.42511  0.42511  0.00000  0.14979
       6     H     0.41664  0.41664  0.00000  0.16673
       7     H     0.42515  0.42515  0.00000  0.14969

   Total alpha =  9.00000, Total beta =  9.00000, Total charge = -0.00000
