  ==> Input File <==

--------------------------------------------------------------------------
set {
	reference rhf
	basis 6-31G*
}

set_num_threads( 4 )
memory 2 gb

molecule MOL {
0 1

O	 -2.821601	 1.309235	 -0.001213
C	 -2.668563	 0.129746	 -0.000350
C	 -3.801572	 -0.864014	 -0.000442
O	 -1.481751	 -0.454642	 0.000584
H	 -4.417280	 -0.689587	 -0.874708
H	 -3.443784	 -1.883046	 -0.000565
H	 -4.417179	 -0.689832	 0.873954
C	 -0.334255	 0.388708	 0.000906
C	 0.891947	 -0.504646	 0.000751
H	 -0.365390	 1.025305	 -0.873475
H	 -0.365484	 1.024911	 0.875569
C	 0.959651	 -1.389494	 -1.245415
H	 0.877006	 -1.121588	 0.894954
H	 1.780065	 0.118027	 0.063878
C	 2.189567	 -2.299040	 -1.264350
H	 0.061282	 -2.001292	 -1.306427
H	 0.963719	 -0.763680	 -2.136158
C	 2.256437	 -3.183767	 -2.508397
H	 2.186895	 -2.925367	 -0.375091
H	 3.088292	 -1.689177	 -1.205775
H	 1.386325	 -3.830454	 -2.577058
H	 3.138217	 -3.816585	 -2.492904
H	 2.294840	 -2.585000	 -3.413943

	symmetry c1
}
set optking {
	frozen_dihedral = ("
		13 9 8 10
	")
}

ee = optimize('scf')
oeprop('DIPOLE', 'QUADRUPOLE', 'MULLIKEN_CHARGES')
f=open( 'psi4out.xyz', 'w' )
f.write( "23  " )
f.write( str(ee) + "\n" )
f.write( MOL.save_string_xyz() )
f.close()
--------------------------------------------------------------------------

    Molecular point group: c1
  Charge       = 0
  Multiplicity = 1
  Basis Set: 6-31G*
  Basis Set:
  @DF-RHF Final Energy:  -422.97927803936960
    Total Energy =                       -422.9792780393704561
    Molecular point group: c1
  Basis Set: 6-31G*
  Basis Set:
  Basis Set: 6-31G*
  Basis Set:
  @DF-RHF Final Energy:  -422.97951080264659
    Total Energy =                       -422.9795108026467005
  Basis Set: 6-31G*
  Basis Set:
  Basis Set: 6-31G*
  Basis Set:
  @DF-RHF Final Energy:  -422.97954730653294
    Total Energy =                       -422.9795473065323677
  Basis Set: 6-31G*
  Basis Set:
  Basis Set: 6-31G*
  Basis Set:
  @DF-RHF Final Energy:  -422.97945532179023
    Total Energy =                       -422.9794553217900557
  Basis Set: 6-31G*
  Basis Set:
  Basis Set: 6-31G*
  Basis Set:
  @DF-RHF Final Energy:  -422.97956510478218
    Total Energy =                       -422.9795651047820684
  Basis Set: 6-31G*
  Basis Set:
  Charge       = 0
  Multiplicity = 1
  Basis Set: 6-31G*
  Basis Set:

    Orbital Energies (a.u.)
    -----------------------

    Doubly Occupied:

       1A    -20.603714     2A    -20.541182     3A    -11.374791
       4A    -11.282240     5A    -11.233052     6A    -11.225424
       7A    -11.219308     8A    -11.218111     9A    -11.211377
      10A     -1.468565    11A     -1.361402    12A     -1.091715
      13A     -1.041432    14A     -1.002937    15A     -0.930810
      16A     -0.842775    17A     -0.802008    18A     -0.775183
      19A     -0.688398    20A     -0.683727    21A     -0.666740
      22A     -0.643391    23A     -0.607381    24A     -0.585509
      25A     -0.578645    26A     -0.571836    27A     -0.559324
      28A     -0.531955    29A     -0.529008    30A     -0.509527
      31A     -0.494322    32A     -0.473855    33A     -0.468360
      34A     -0.460113    35A     -0.447082    36A     -0.437671

  @DF-RHF Final Energy:  -422.97956471038515

   => Energetics <=

    Nuclear Repulsion Energy =            458.3655442588917595
    One-Electron Energy =               -1484.3644807253288036
    Two-Electron Energy =                 603.0193717560505320
    DFT Exchange-Correlation Energy =       0.0000000000000000
    Empirical Dispersion Energy =           0.0000000000000000
    PCM Polarization Energy =               0.0000000000000000
    EFP Energy =                            0.0000000000000000
    Total Energy =                       -422.9795647103865122
    Molecular point group: c1
  Basis Set: 6-31G*
  Basis Set:

  -Total Gradient:
     Atom            X                  Y                   Z
    ------   -----------------  -----------------  -----------------
       1        0.000000817120    -0.000001735585     0.000076341436
       2       -0.000014199145     0.000006132142    -0.000239636815
       3        0.000000055713     0.000000972927     0.000080813012
       4        0.000023438082     0.000048811483     0.000083113917
       5        0.000015443423     0.000013266790     0.000003166776
       6        0.000000327916     0.000000345014     0.000004274020
       7       -0.000016261041    -0.000013787553     0.000003389043
       8       -0.000279163132    -0.000336676211    -0.000200694087
       9       -0.000148841142    -0.000258663330    -0.000099484180
      10        0.000193684860     0.000310288658     0.000184229907
      11       -0.000042991781    -0.000016932625    -0.000021355509
      12        0.000008959290     0.000080278601     0.000011651133
      13        0.000208940925     0.000282635481     0.000218901706
      14        0.000013345999    -0.000080141781    -0.000017956555
      15        0.000030032438     0.000034724408    -0.000058091563
      16       -0.000011300891    -0.000017235253    -0.000022996281
      17        0.000008042489    -0.000008996126    -0.000001405025
      18        0.000004893452    -0.000051144484     0.000024691840
      19        0.000001698331     0.000031519382    -0.000007673644
      20        0.000007648156    -0.000004100343    -0.000024348113
      21       -0.000007960433     0.000001164485    -0.000011910979
      22       -0.000006726597    -0.000025433070    -0.000005953139
      23        0.000010115968     0.000004706993     0.000020933100

  **** Optimization is complete! (in 6 steps) ****
    Final optimized geometry and variables:
    Molecular point group: c1

    Geometry (in Angstrom), charge = 0, multiplicity = 1:

    O           -2.262894455607     2.095316911188     0.558720424965
    C           -2.134704198625     0.913053369556     0.573712989682
    C           -3.288555747970    -0.056158336887     0.597177866133
    O           -0.960277351170     0.303846296374     0.574074921331
    H           -3.907158742234     0.118359132631    -0.275013295448
    H           -2.952849506130    -1.082628309294     0.609800921163
    H           -3.893490632162     0.144177037203     1.473400455599
    C            0.205375141388     1.123005879193     0.554237536261
    C            1.422013292976     0.216210833303     0.539212271650
    H            0.172643712232     1.762185068365    -0.318317733570
    H            0.198750539907     1.757565589952     1.430212921233
    C            1.528135663356    -0.661661350344    -0.708862628392
    H            1.409761193519    -0.403313089380     1.432036038547
    H            2.301408264113     0.852554072927     0.614258153823
    C            2.782290799970    -1.537550407072    -0.714384694558
    H            0.646671730192    -1.291642882345    -0.781779670710
    H            1.528903070242    -0.027541875053    -1.594208393926
    C            2.884145048588    -2.423023577916    -1.955721030285
    H            2.787719889622    -2.162998919070     0.175731726508
    H            3.665632752389    -0.905699194422    -0.648563155213
    H            2.030185212627    -3.090054512402    -2.032116698651
    H            3.780482377435    -3.034846155313    -1.929953051248
    H            2.917677066455    -1.825139144070    -2.862091468062

  Mulliken Charges: (a.u.)
   Center  Symbol    Alpha    Beta     Spin     Total
       1     O     4.28371  4.28371  0.00000 -0.56742
       2     C     2.61453  2.61453  0.00000  0.77094
       3     C     3.28769  3.28769  0.00000 -0.57538
       4     O     4.31004  4.31004  0.00000 -0.62008
       5     H     0.39735  0.39735  0.00000  0.20529
       6     H     0.40026  0.40026  0.00000  0.19947
       7     H     0.39729  0.39729  0.00000  0.20542
       8     C     3.00356  3.00356  0.00000 -0.00711
       9     C     3.16654  3.16654  0.00000 -0.33308
      10     H     0.41006  0.41006  0.00000  0.17988
      11     H     0.40805  0.40805  0.00000  0.18390
      12     C     3.15409  3.15409  0.00000 -0.30817
      13     H     0.41437  0.41437  0.00000  0.17127
      14     H     0.41798  0.41798  0.00000  0.16403
      15     C     3.15236  3.15236  0.00000 -0.30473
      16     H     0.41266  0.41266  0.00000  0.17469
      17     H     0.42380  0.42380  0.00000  0.15240
      18     C     3.23932  3.23932  0.00000 -0.47864
      19     H     0.42209  0.42209  0.00000  0.15582
      20     H     0.42314  0.42314  0.00000  0.15373
      21     H     0.42114  0.42114  0.00000  0.15772
      22     H     0.41870  0.41870  0.00000  0.16259
      23     H     0.42127  0.42127  0.00000  0.15745

   Total alpha = 36.00000, Total beta = 36.00000, Total charge =  0.00000
