  ==> Input File <==

--------------------------------------------------------------------------
set {
	reference rhf
	basis 6-31G*
}

set_num_threads( 1 )
memory 2 gb

molecule MOL {
0 1

O	 3.868546	 -0.296523	 0.398838
C	 2.843464	 0.164689	 -0.000222
C	 1.546494	 -0.624492	 -0.000609
C	 2.770813	 1.579669	 -0.536607
C	 0.291004	 0.242674	 0.000989
H	 1.557904	 -1.283758	 -0.867573
H	 1.558622	 -1.285963	 0.864672
C	 -0.994322	 -0.586602	 0.000262
H	 0.309117	 0.896430	 -0.865270
H	 0.309661	 0.894078	 0.869017
C	 -2.259874	 0.272531	 0.000494
H	 -1.004862	 -1.240012	 -0.870939
H	 -1.005220	 -1.241071	 0.870675
C	 -3.549786	 -0.549746	 -0.000374
H	 -2.250389	 0.926680	 -0.869574
H	 -2.250838	 0.925513	 0.871430
C	 -4.809590	 0.315458	 -0.000369
H	 -3.560515	 -1.202009	 -0.871156
H	 -3.561123	 -1.202955	 0.869711
H	 -4.844746	 0.956611	 -0.876632
H	 -5.706986	 -0.295590	 -0.001609
H	 -4.845960	 0.954827	 0.877144
H	 2.062140	 2.167460	 0.039503
H	 3.747700	 2.039963	 -0.485060
H	 2.425272	 1.577023	 -1.566281

	symmetry c1
}
set optking {
	frozen_dihedral = ("
		9 5 8 12,
		15 11 8 12,
		15 11 14 18,
		9 5 3 6
	")
}

ee = energy('scf')
oeprop('DIPOLE', 'QUADRUPOLE', 'MULLIKEN_CHARGES')
f=open( 'psi4out.xyz', 'w' )
f.write( "25  " )
f.write( str(ee) + "\n" )
f.write( MOL.save_string_xyz() )
f.close()
--------------------------------------------------------------------------

    Molecular point group: c1

    Geometry (in Angstrom), charge = 0, multiplicity = 1:

       Center              X                  Y                   Z               Mass
    ------------   -----------------  -----------------  -----------------  -----------------
           O          3.909587336989    -0.363980081892     0.415115988444    15.994914619560
           C          2.884505336989     0.097231918108     0.016055988444    12.000000000000
           C          1.587535336989    -0.691949081892     0.015668988444    12.000000000000
           C          2.811854336989     1.512211918108    -0.520329011556    12.000000000000
           C          0.332045336989     0.175216918108     0.017266988444    12.000000000000
           H          1.598945336989    -1.351215081892    -0.851295011556     1.007825032070
           H          1.599663336989    -1.353420081892     0.880949988444     1.007825032070
           C         -0.953280663011    -0.654059081892     0.016539988444    12.000000000000
           H          0.350158336989     0.828972918108    -0.848992011556     1.007825032070
           H          0.350702336989     0.826620918108     0.885294988444     1.007825032070
           C         -2.218832663011     0.205073918108     0.016771988444    12.000000000000
           H         -0.963820663011    -1.307469081892    -0.854661011556     1.007825032070
           H         -0.964178663011    -1.308528081892     0.886952988444     1.007825032070
           C         -3.508744663011    -0.617203081892     0.015903988444    12.000000000000
           H         -2.209347663011     0.859222918108    -0.853296011556     1.007825032070
           H         -2.209796663011     0.858055918108     0.887707988444     1.007825032070
           C         -4.768548663011     0.248000918108     0.015908988444    12.000000000000
           H         -3.519473663011    -1.269466081892    -0.854878011556     1.007825032070
           H         -3.520081663011    -1.270412081892     0.885988988444     1.007825032070
           H         -4.803704663011     0.889153918108    -0.860354011556     1.007825032070
           H         -5.665944663011    -0.363047081892     0.014668988444     1.007825032070
           H         -4.804918663011     0.887369918108     0.893421988444     1.007825032070
           H          2.103181336989     2.100002918108     0.055780988444     1.007825032070
           H          3.788741336989     1.972505918108    -0.468782011556     1.007825032070
           H          2.466313336989     1.509565918108    -1.550003011556     1.007825032070

  Charge       = 0
  Multiplicity = 1
  Basis Set: 6-31G*
  Basis Set:

    Orbital Energies (a.u.)
    -----------------------

    Doubly Occupied:

       1A    -20.547116     2A    -11.325322     3A    -11.230970
       4A    -11.230365     5A    -11.225953     6A    -11.224790
       7A    -11.220950     8A    -11.220309     9A    -11.212897
      10A     -1.392679    11A     -1.104121    12A     -1.064157
      13A     -1.010055    14A     -0.970064    15A     -0.898509
      16A     -0.823365    17A     -0.798154    18A     -0.731612
      19A     -0.669145    20A     -0.650404    21A     -0.636324
      22A     -0.624503    23A     -0.597582    24A     -0.590275
      25A     -0.563630    26A     -0.558408    27A     -0.546837
      28A     -0.532875    29A     -0.522327    30A     -0.499566
      31A     -0.490649    32A     -0.472336    33A     -0.469989
      34A     -0.468901    35A     -0.459366    36A     -0.395527

  @DF-RHF Final Energy:  -387.13074723302645

   => Energetics <=

    Nuclear Repulsion Energy =            440.6523639093464908
    One-Electron Energy =               -1397.6062759503195139
    Two-Electron Energy =                 569.8231648079445222
    DFT Exchange-Correlation Energy =       0.0000000000000000
    Empirical Dispersion Energy =           0.0000000000000000
    PCM Polarization Energy =               0.0000000000000000
    EFP Energy =                            0.0000000000000000
    Total Energy =                       -387.1307472330285009

  Mulliken Charges: (a.u.)
   Center  Symbol    Alpha    Beta     Spin     Total
       1     O     4.26323  4.26323  0.00000 -0.52646
       2     C     2.73002  2.73002  0.00000  0.53995
       3     C     3.20714  3.20714  0.00000 -0.41429
       4     C     3.29616  3.29616  0.00000 -0.59231
       5     C     3.16647  3.16647  0.00000 -0.33295
       6     H     0.40325  0.40325  0.00000  0.19350
       7     H     0.39970  0.39970  0.00000  0.20061
       8     C     3.15171  3.15171  0.00000 -0.30341
       9     H     0.41774  0.41774  0.00000  0.16452
      10     H     0.41754  0.41754  0.00000  0.16493
      11     C     3.15109  3.15109  0.00000 -0.30218
      12     H     0.42170  0.42170  0.00000  0.15659
      13     H     0.42023  0.42023  0.00000  0.15955
      14     C     3.15201  3.15201  0.00000 -0.30402
      15     H     0.42368  0.42368  0.00000  0.15264
      16     H     0.42311  0.42311  0.00000  0.15379
      17     C     3.23957  3.23957  0.00000 -0.47914
      18     H     0.42249  0.42249  0.00000  0.15501
      19     H     0.42207  0.42207  0.00000  0.15585
      20     H     0.42159  0.42159  0.00000  0.15683
      21     H     0.41829  0.41829  0.00000  0.16342
      22     H     0.42133  0.42133  0.00000  0.15734
      23     H     0.40575  0.40575  0.00000  0.18851
      24     H     0.39594  0.39594  0.00000  0.20812
      25     H     0.40820  0.40820  0.00000  0.18360

   Total alpha = 36.00000, Total beta = 36.00000, Total charge =  0.00000
