  ==> Input File <==

--------------------------------------------------------------------------
set {
	reference rhf
	basis 6-31G*
}

set_num_threads( 1 )
memory 2 gb

molecule MOL {
0 1

O	 2.862325	 1.357334	 0.000267
C	 2.843464	 0.164689	 -0.000222
C	 1.546494	 -0.624492	 -0.000609
C	 4.124123	 -0.644674	 -0.000428
C	 0.291004	 0.242674	 0.000989
H	 1.557904	 -1.283758	 -0.867573
H	 1.558622	 -1.285963	 0.864672
C	 -0.994322	 -0.586602	 0.000262
H	 0.309117	 0.896430	 -0.865270
H	 0.309661	 0.894078	 0.869017
C	 -2.259874	 0.272531	 0.000494
H	 -1.004862	 -1.240012	 -0.870939
H	 -1.005220	 -1.241071	 0.870675
C	 -2.001480	 1.730894	 0.383146
H	 -2.985368	 -0.156407	 0.689472
H	 -2.719256	 0.236009	 -0.985727
C	 -3.270413	 2.582650	 0.381354
H	 -1.543375	 1.768748	 1.369316
H	 -1.277546	 2.161201	 -0.305777
H	 -4.002004	 2.197488	 1.086036
H	 -3.055189	 3.610480	 0.656935
H	 -3.733675	 2.593686	 -0.601199
H	 4.165367	 -1.288615	 -0.874074
H	 4.976217	 0.020734	 -0.001915
H	 4.166763	 -1.286207	 0.874930

	symmetry c1
}
set optking {
	frozen_dihedral = ("
		9 5 8 12,
		15 11 14 18,
		1 2 3 6,
		9 5 3 6
	")
}

ee = energy('scf')
oeprop('DIPOLE', 'QUADRUPOLE', 'MULLIKEN_CHARGES')
f=open( 'psi4out.xyz', 'w' )
f.write( "25  " )
f.write( str(ee) + "\n" )
f.write( MOL.save_string_xyz() )
f.close()
--------------------------------------------------------------------------

    Molecular point group: c1

    Geometry (in Angstrom), charge = 0, multiplicity = 1:

       Center              X                  Y                   Z               Mass
    ------------   -----------------  -----------------  -----------------  -----------------
           O          2.512541997149     0.842107154413    -0.086429896288    15.994914619560
           C          2.493680997149    -0.350537845587    -0.086918896288    12.000000000000
           C          1.196710997149    -1.139718845587    -0.087305896288    12.000000000000
           C          3.774339997149    -1.159900845587    -0.087124896288    12.000000000000
           C         -0.058779002851    -0.272552845587    -0.085707896288    12.000000000000
           H          1.208120997149    -1.798984845587    -0.954269896288     1.007825032070
           H          1.208838997149    -1.801189845587     0.777975103712     1.007825032070
           C         -1.344105002851    -1.101828845587    -0.086434896288    12.000000000000
           H         -0.040666002851     0.381203154413    -0.951966896288     1.007825032070
           H         -0.040122002851     0.378851154413     0.782320103712     1.007825032070
           C         -2.609657002851    -0.242695845587    -0.086202896288    12.000000000000
           H         -1.354645002851    -1.755238845587    -0.957635896288     1.007825032070
           H         -1.355003002851    -1.756297845587     0.783978103712     1.007825032070
           C         -2.351263002851     1.215667154413     0.296449103712    12.000000000000
           H         -3.335151002851    -0.671633845587     0.602775103712     1.007825032070
           H         -3.069039002851    -0.279217845587    -1.072423896288     1.007825032070
           C         -3.620196002851     2.067423154413     0.294657103712    12.000000000000
           H         -1.893158002851     1.253521154413     1.282619103712     1.007825032070
           H         -1.627329002851     1.645974154413    -0.392473896288     1.007825032070
           H         -4.351787002851     1.682261154413     0.999339103712     1.007825032070
           H         -3.404972002851     3.095253154413     0.570238103712     1.007825032070
           H         -4.083458002851     2.078459154413    -0.687895896288     1.007825032070
           H          3.815583997149    -1.803841845587    -0.960770896288     1.007825032070
           H          4.626433997149    -0.494492845587    -0.088611896288     1.007825032070
           H          3.816979997149    -1.801433845587     0.788233103712     1.007825032070

  Charge       = 0
  Multiplicity = 1
  Basis Set: 6-31G*
  Basis Set:

    Orbital Energies (a.u.)
    -----------------------

    Doubly Occupied:

       1A    -20.550190     2A    -11.325922     3A    -11.230768
       4A    -11.228114     5A    -11.215648     6A    -11.214966
       7A    -11.211982     8A    -11.210765     9A    -11.205000
      10A     -1.395505    11A     -1.096432    12A     -1.052429
      13A     -1.011145    14A     -0.968621    15A     -0.886299
      16A     -0.839813    17A     -0.763127    18A     -0.730662
      19A     -0.661643    20A     -0.650900    21A     -0.630388
      22A     -0.624342    23A     -0.593528    24A     -0.580491
      25A     -0.572646    26A     -0.561636    27A     -0.552619
      28A     -0.513630    29A     -0.508089    30A     -0.493066
      31A     -0.487892    32A     -0.484390    33A     -0.461268
      34A     -0.445543    35A     -0.442096    36A     -0.399706

  @DF-RHF Final Energy:  -387.12406478987725

   => Energetics <=

    Nuclear Repulsion Energy =            450.5383239265670454
    One-Electron Energy =               -1417.7223468747899915
    Two-Electron Energy =                 580.0599581583487634
    DFT Exchange-Correlation Energy =       0.0000000000000000
    Empirical Dispersion Energy =           0.0000000000000000
    PCM Polarization Energy =               0.0000000000000000
    EFP Energy =                            0.0000000000000000
    Total Energy =                       -387.1240647898741827

  Mulliken Charges: (a.u.)
   Center  Symbol    Alpha    Beta     Spin     Total
       1     O     4.26168  4.26168  0.00000 -0.52336
       2     C     2.73555  2.73555  0.00000  0.52889
       3     C     3.20837  3.20837  0.00000 -0.41675
       4     C     3.28670  3.28670  0.00000 -0.57341
       5     C     3.15623  3.15623  0.00000 -0.31245
       6     H     0.41054  0.41054  0.00000  0.17892
       7     H     0.41048  0.41048  0.00000  0.17904
       8     C     3.15613  3.15613  0.00000 -0.31225
       9     H     0.41117  0.41117  0.00000  0.17766
      10     H     0.40833  0.40833  0.00000  0.18334
      11     C     3.15292  3.15292  0.00000 -0.30583
      12     H     0.42212  0.42212  0.00000  0.15575
      13     H     0.42315  0.42315  0.00000  0.15370
      14     C     3.16021  3.16021  0.00000 -0.32041
      15     H     0.42128  0.42128  0.00000  0.15744
      16     H     0.42200  0.42200  0.00000  0.15599
      17     C     3.23703  3.23703  0.00000 -0.47405
      18     H     0.42151  0.42151  0.00000  0.15699
      19     H     0.41576  0.41576  0.00000  0.16848
      20     H     0.42321  0.42321  0.00000  0.15357
      21     H     0.41885  0.41885  0.00000  0.16230
      22     H     0.42270  0.42270  0.00000  0.15460
      23     H     0.40874  0.40874  0.00000  0.18251
      24     H     0.39659  0.39659  0.00000  0.20681
      25     H     0.40874  0.40874  0.00000  0.18253

   Total alpha = 36.00000, Total beta = 36.00000, Total charge =  0.00000
