                              Psi4 1.0.54 Driver

  ==> Input File <==

--------------------------------------------------------------------------
set {
	reference rhf
	basis cc-pvtz
}

set_num_threads( 4 )
memory 2 gb

molecule MOL {
0 1

O	 -1.278239	 1.034789	 -0.784693
C	 -1.204115	 0.062668	 -0.112312
C	 -2.386398	 -0.667698	 0.460323
O	 -0.068058	 -0.518372	 0.226882
H	 -2.382952	 -1.693172	 0.114333
H	 -3.296656	 -0.175702	 0.158400
H	 -2.312537	 -0.685191	 1.540100
C	 0.013740	 -1.947345	 0.238954
C	 1.094353	 -2.301813	 1.240823
C	 0.309715	 -2.458675	 -1.159455
H	 -0.939219	 -2.331084	 0.570166
H	 0.848476	 -1.915257	 2.221572
H	 1.195359	 -3.378101	 1.312336
H	 2.048805	 -1.887159	 0.939130
H	 0.384103	 -3.539820	 -1.149851
H	 -0.478619	 -2.180532	 -1.844885
H	 1.248737	 -2.054939	 -1.520730

	symmetry c1
}
set optking {
	frozen_dihedral = ("
		8 4 2 1
	")
}

ee,wfn = optimize('scf', return_wfn=True)
oeprop( wfn, 'DIPOLE', 'QUADRUPOLE', 'MULLIKEN_CHARGES')
f=open( 'psi4out.xyz', 'w' )
f.write( "17  " )
f.write( str(ee) + "\n" )
f.write( MOL.save_string_xyz() )
f.close()
--------------------------------------------------------------------------

    Molecular point group: c1
  Charge       = 0
  Multiplicity = 1
  Basis Set: CC-PVTZ
  Basis Set:
  @DF-RHF Final Energy:  -345.01672480486872
    Total Energy =                       -345.0167248048688862
    Molecular point group: c1
  Basis Set: CC-PVTZ
  Basis Set:
  Basis Set: CC-PVTZ
  Basis Set:
  @DF-RHF Final Energy:  -344.99594882813466
    Total Energy =                       -344.9959488281348285
  Basis Set: CC-PVTZ
  Basis Set:
  Basis Set: CC-PVTZ
  Basis Set:
  @DF-RHF Final Energy:  -345.02414778301892
    Total Energy =                       -345.0241477830186341
  Basis Set: CC-PVTZ
  Basis Set:
  Basis Set: CC-PVTZ
  Basis Set:
  @DF-RHF Final Energy:  -345.02643023917653
    Total Energy =                       -345.0264302391765341
  Basis Set: CC-PVTZ
  Basis Set:
  @DF-RHF Final Energy:  -345.02625647923190
    Total Energy =                       -345.0262564792323587
  @DF-RHF Final Energy:  -345.02701420586550
    Total Energy =                       -345.0270142058652709
  Basis Set: CC-PVTZ
  Basis Set:
  @DF-RHF Final Energy:  -345.02722240824232
    Total Energy =                       -345.0272224082426646
  Basis Set: CC-PVTZ
  Basis Set:
  Basis Set: CC-PVTZ
  Basis Set:
  @DF-RHF Final Energy:  -345.02722807438505
    Total Energy =                       -345.0272280743852207
  Basis Set: CC-PVTZ
  Basis Set:
  Basis Set: CC-PVTZ
  Basis Set:
  @DF-RHF Final Energy:  -345.02723049661205
    Total Energy =                       -345.0272304966119918
  Basis Set: CC-PVTZ
  Basis Set:
  Charge       = 0
  Multiplicity = 1
  Basis Set: CC-PVTZ
  Basis Set:

    Orbital Energies (a.u.)
    -----------------------

    Doubly Occupied:

       1A    -20.583180     2A    -20.531976     3A    -11.367657
       4A    -11.301752     5A    -11.238300     6A    -11.225515
       7A    -11.222700     8A     -1.461249     9A     -1.367104
      10A     -1.077201    11A     -1.015729    12A     -0.957370
      13A     -0.859172    14A     -0.770824    15A     -0.698422
      16A     -0.673351    17A     -0.663291    18A     -0.626751
      19A     -0.594522    20A     -0.585178    21A     -0.561931
      22A     -0.556197    23A     -0.545028    24A     -0.531031
      25A     -0.509536    26A     -0.486933    27A     -0.448403
      28A     -0.435250

  @DF-RHF Final Energy:  -345.02723095885085

   => Energetics <=

    Nuclear Repulsion Energy =            323.5970969375682671
    One-Electron Energy =               -1111.4575479469392576
    Two-Electron Energy =                 442.8332200505202536
    DFT Exchange-Correlation Energy =       0.0000000000000000
    Empirical Dispersion Energy =           0.0000000000000000
    PCM Polarization Energy =               0.0000000000000000
    EFP Energy =                            0.0000000000000000
    Total Energy =                       -345.0272309588507369
    Molecular point group: c1
  Basis Set: CC-PVTZ
  Basis Set:

  -Total Gradient:
     Atom            X                  Y                   Z
    ------   -----------------  -----------------  -----------------
       1        0.000683142036    -0.002088385472    -0.002164375657
       2       -0.000180762150     0.002872063620     0.001922310436
       3        0.000044462074    -0.000032026133    -0.000030792907
       4       -0.002035704979    -0.000524923164     0.002393208244
       5       -0.000020121118     0.000009318217     0.000010644462
       6        0.000000433558    -0.000004781288     0.000000086062
       7        0.000003607469     0.000007961154    -0.000000349318
       8        0.001532333240    -0.000326186258    -0.002150975282
       9       -0.000001078684     0.000044627689     0.000003115459
      10       -0.000041541163     0.000038207920     0.000020032863
      11       -0.000010498694     0.000015777368     0.000012597360
      12        0.000002322699    -0.000002153408    -0.000003030543
      13       -0.000005497527    -0.000000630760    -0.000006411634
      14        0.000003364395    -0.000005544852     0.000006295331
      15        0.000002338217     0.000006957022    -0.000002923167
      16        0.000013634018    -0.000008364172    -0.000003276656
      17        0.000009566610    -0.000001917485    -0.000006155058

  **** Optimization is complete! (in 10 steps) ****
    Final optimized geometry and variables:
    Molecular point group: c1

    Geometry (in Angstrom), charge = 0, multiplicity = 1:

    O           -0.419545140397     1.841918320030    -1.203627041428
    C           -0.654125023640     0.962141689829    -0.455871993613
    C           -2.040356093077     0.389188727397    -0.283449352452
    O            0.315294786480     0.459840727357     0.310991333271
    H           -2.105157629381    -0.595311579097    -0.729793323622
    H           -2.739725148110     1.041537129136    -0.779775692384
    H           -2.293792162580     0.300683752627     0.764904357262
    C            0.445254775603    -0.932310054852     0.570353955947
    C            1.388828361056    -1.056011403443     1.750149515286
    C            0.958816453066    -1.647039333549    -0.668588138438
    H           -0.519208142954    -1.337824047284     0.851390035224
    H            0.992589266311    -0.530992085142     2.609423175414
    H            1.524679088569    -2.097963855935     2.013891236328
    H            2.354439066588    -0.631297187918     1.506289204922
    H            1.072155628871    -2.706103459478    -0.469251866840
    H            0.277311930914    -1.534416413254    -1.503543708613
    H            1.919384973621    -1.243340302134    -0.962857217229

  Mulliken Charges: (a.u.)
   Center  Symbol    Alpha    Beta     Spin     Total
       1     O     4.17802  4.17802  0.00000 -0.35603
       2     C     2.81725  2.81725  0.00000  0.36550
       3     C     3.16357  3.16357  0.00000 -0.32713
       4     O     4.15018  4.15018  0.00000 -0.30036
       5     H     0.44792  0.44792  0.00000  0.10417
       6     H     0.42801  0.42801  0.00000  0.14398
       7     H     0.44385  0.44385  0.00000  0.11229
       8     C     2.94952  2.94952  0.00000  0.10096
       9     C     3.13628  3.13628  0.00000 -0.27256
      10     C     3.14391  3.14391  0.00000 -0.28781
      11     H     0.45255  0.45255  0.00000  0.09490
      12     H     0.44548  0.44548  0.00000  0.10903
      13     H     0.45615  0.45615  0.00000  0.08769
      14     H     0.44694  0.44694  0.00000  0.10611
      15     H     0.44816  0.44816  0.00000  0.10367
      16     H     0.44862  0.44862  0.00000  0.10275
      17     H     0.44358  0.44358  0.00000  0.11284

   Total alpha = 28.00000, Total beta = 28.00000, Total charge = -0.00000

*** Psi4 exiting successfully. Buy a developer a beer!
