  ==> Input File <==

--------------------------------------------------------------------------
set {
	reference rhf
	basis 6-31G*
}

set_num_threads( 4 )
memory 2 gb

molecule MOL {
0 1

H	 -2.798360	 -0.862255	 -0.071053
N	 -1.863561	 -0.715187	 0.256814
C	 -1.344686	 0.554728	 -0.219830
H	 -1.300452	 -1.461917	 -0.101532
C	 0.081427	 0.741154	 0.254071
H	 -1.362155	 0.656231	 -1.305829
H	 -1.952773	 1.354456	 0.191809
O	 0.706766	 -0.510204	 0.265899
H	 0.614022	 1.419509	 -0.412124
H	 0.081523	 1.172438	 1.252684
C	 2.005967	 -0.498226	 0.765403
H	 2.382686	 -1.511177	 0.724044
H	 2.654989	 0.142468	 0.171045
H	 2.032067	 -0.153832	 1.797159

	symmetry c1
}
set optking {
	frozen_dihedral = ("
		8 5 3 6
	")
}

ee = optimize('scf')
oeprop('DIPOLE', 'QUADRUPOLE', 'MULLIKEN_CHARGES')
f=open( 'psi4out.xyz', 'w' )
f.write( "14  " )
f.write( str(ee) + "\n" )
f.write( MOL.save_string_xyz() )
f.close()
--------------------------------------------------------------------------

    Molecular point group: c1
  Charge       = 0
  Multiplicity = 1
  Basis Set: 6-31G*
  Basis Set:
  @DF-RHF Final Energy:  -248.11887439718157
    Total Energy =                       -248.1188743971816848
    Molecular point group: c1
  Basis Set: 6-31G*
  Basis Set:
  Basis Set: 6-31G*
  Basis Set:
  @DF-RHF Final Energy:  -248.12012669713658
    Total Energy =                       -248.1201266971367545
  Basis Set: 6-31G*
  Basis Set:
  Basis Set: 6-31G*
  Basis Set:
  @DF-RHF Final Energy:  -248.12030196489278
    Total Energy =                       -248.1203019648926329
  Basis Set: 6-31G*
  Basis Set:
  Basis Set: 6-31G*
  Basis Set:
  @DF-RHF Final Energy:  -248.12031807953545
    Total Energy =                       -248.1203180795353092
  Basis Set: 6-31G*
  Basis Set:
  Basis Set: 6-31G*
  Basis Set:
  @DF-RHF Final Energy:  -248.12032260367189
    Total Energy =                       -248.1203226036719798
  Basis Set: 6-31G*
  Basis Set:
  Basis Set: 6-31G*
  Basis Set:
  @DF-RHF Final Energy:  -248.12032520534359
    Total Energy =                       -248.1203252053434198
  Basis Set: 6-31G*
  Basis Set:
  Basis Set: 6-31G*
  Basis Set:
  @DF-RHF Final Energy:  -248.12031328013342
    Total Energy =                       -248.1203132801331890
  Basis Set: 6-31G*
  Basis Set:
  Charge       = 0
  Multiplicity = 1
  Basis Set: 6-31G*
  Basis Set:

    Orbital Energies (a.u.)
    -----------------------

    Doubly Occupied:

       1A    -20.557202     2A    -15.526077     3A    -11.267886
       4A    -11.266348     5A    -11.241599     6A     -1.382120
       7A     -1.171713     8A     -0.997352     9A     -0.909766
      10A     -0.813464    11A     -0.683268    12A     -0.675762
      13A     -0.646038    14A     -0.609614    15A     -0.602357
      16A     -0.547924    17A     -0.525231    18A     -0.493629
      19A     -0.472551    20A     -0.418995    21A     -0.373858

  @DF-RHF Final Energy:  -248.12032588266527

   => Energetics <=

    Nuclear Repulsion Energy =            195.1038407883700074
    One-Electron Energy =                -724.0828279651052526
    Two-Electron Energy =                 280.8586612940700320
    DFT Exchange-Correlation Energy =       0.0000000000000000
    Empirical Dispersion Energy =           0.0000000000000000
    PCM Polarization Energy =               0.0000000000000000
    EFP Energy =                            0.0000000000000000
    Total Energy =                       -248.1203258826652132
    Molecular point group: c1
  Basis Set: 6-31G*
  Basis Set:

  -Total Gradient:
     Atom            X                  Y                   Z
    ------   -----------------  -----------------  -----------------
       1       -0.000001290952    -0.000002249737     0.000011050352
       2        0.000045871647     0.000004752275    -0.000039094792
       3        0.001092618047    -0.010986413014     0.000646800004
       4        0.000003093459    -0.000005792661     0.000003544585
       5        0.002415833122     0.003551830671    -0.008111840348
       6       -0.001427161505     0.008587800030     0.001067059036
       7        0.000000531407    -0.000003541609     0.000023422448
       8       -0.002151149746    -0.001164167862     0.006415789224
       9        0.000005426061    -0.000008054257    -0.000020205428
      10        0.000013295220     0.000024709854    -0.000008289313
      11        0.000008184327     0.000001225800     0.000013773846
      12       -0.000003672866     0.000001429570    -0.000001217931
      13       -0.000002717821    -0.000000634568     0.000000005649
      14        0.000001139602    -0.000000894490    -0.000000797332

  **** Optimization is complete! (in 8 steps) ****
    Final optimized geometry and variables:
    Molecular point group: c1

    Geometry (in Angstrom), charge = 0, multiplicity = 1:

    H           -2.773091750362    -0.719716738536    -0.378841008623
    N           -1.857562638929    -0.583952040220     0.002068705322
    C           -1.271574224844     0.639235049166    -0.499617348321
    H           -1.293639464623    -1.369182172564    -0.253366451805
    C            0.157643669115     0.818524226444     0.004450107496
    H           -1.296176764098     0.771466467423    -1.583837180695
    H           -1.850425012731     1.473756762702    -0.111308075091
    O            0.814706085105    -0.414196235096    -0.002949144004
    H            0.685931403156     1.542292336609    -0.614190673912
    H            0.138030499676     1.201698743153     1.023198303873
    C            2.111969263582    -0.373344842006     0.498579280018
    H            2.511375567008    -1.377391307993     0.456333785739
    H            2.748013911164     0.283627265109    -0.091990024266
    H            2.126154859108    -0.031259226453     1.531436497768

  Mulliken Charges: (a.u.)
   Center  Symbol    Alpha    Beta     Spin     Total
       1     H     0.33336  0.33336  0.00000  0.33329
       2     N     3.92188  3.92188  0.00000 -0.84376
       3     C     3.07280  3.07280  0.00000 -0.14560
       4     H     0.32030  0.32030  0.00000  0.35941
       5     C     2.98466  2.98466  0.00000  0.03069
       6     H     0.43129  0.43129  0.00000  0.13742
       7     H     0.42075  0.42075  0.00000  0.15849
       8     O     4.30905  4.30905  0.00000 -0.61809
       9     H     0.43071  0.43071  0.00000  0.13858
      10     H     0.42659  0.42659  0.00000  0.14681
      11     C     3.07882  3.07882  0.00000 -0.15763
      12     H     0.41215  0.41215  0.00000  0.17569
      13     H     0.43018  0.43018  0.00000  0.13965
      14     H     0.42747  0.42747  0.00000  0.14506

   Total alpha = 21.00000, Total beta = 21.00000, Total charge =  0.00000
