                              Psi4 1.0.54 Driver

  ==> Input File <==

--------------------------------------------------------------------------
set {
	reference rhf
	basis cc-pvtz
}

set_num_threads( 4 )
memory 2 gb

molecule MOL {
0 1

H	 1.762451	 0.757267	 1.175497
O	 0.977942	 0.232791	 1.229699
C	 0.489979	 0.078084	 0.002623
C	 -0.763662	 -0.754014	 0.000816
O	 1.012829	 0.547659	 -0.948186
C	 -2.038001	 0.074705	 -0.000833
H	 -0.712945	 -1.405886	 -0.864342
H	 -0.715137	 -1.405770	 0.866182
H	 -2.087267	 0.710831	 -0.874232
H	 -2.903419	 -0.576199	 -0.001922
H	 -2.089467	 0.710909	 0.872389

	symmetry c1
}
set optking {
	frozen_dihedral = ("
		2 3 4 7
	")
}

ee,wfn = optimize('scf', return_wfn=True)
oeprop( wfn, 'DIPOLE', 'QUADRUPOLE', 'MULLIKEN_CHARGES')
f=open( 'psi4out.xyz', 'w' )
f.write( "11  " )
f.write( str(ee) + "\n" )
f.write( MOL.save_string_xyz() )
f.close()
--------------------------------------------------------------------------

    Molecular point group: c1
  Charge       = 0
  Multiplicity = 1
  Basis Set: CC-PVTZ
  Basis Set:
  @DF-RHF Final Energy:  -266.95062586000654
    Total Energy =                       -266.9506258600064257
    Molecular point group: c1
  Basis Set: CC-PVTZ
  Basis Set:
  Basis Set: CC-PVTZ
  Basis Set:
  @DF-RHF Final Energy:  -266.95106444874790
    Total Energy =                       -266.9510644487479567
  Basis Set: CC-PVTZ
  Basis Set:
  Basis Set: CC-PVTZ
  Basis Set:
  @DF-RHF Final Energy:  -266.78278986255918
    Total Energy =                       -266.7827898625591843
  Basis Set: CC-PVTZ
  Basis Set:
  Basis Set: CC-PVTZ
  Basis Set:
  @DF-RHF Final Energy:  -266.92186598348337
    Total Energy =                       -266.9218659834833716
  Basis Set: CC-PVTZ
  Basis Set:
  @DF-RHF Final Energy:  -266.95014152626061
    Total Energy =                       -266.9501415262607793
  @DF-RHF Final Energy:  -266.94147472824727
    Total Energy =                       -266.9414747282472149
  @DF-RHF Final Energy:  -266.93291085393463
    Total Energy =                       -266.9329108539346862
  @DF-RHF Final Energy:  -266.94688582982792
    Total Energy =                       -266.9468858298279201
  @DF-RHF Final Energy:  -266.95093280002334
    Total Energy =                       -266.9509328000233381
  @DF-RHF Final Energy:  -266.82048124224434
    Total Energy =                       -266.8204812422442274
  @DF-RHF Final Energy:  -266.92925372269644
    Total Energy =                       -266.9292537226964441
  @DF-RHF Final Energy:  -266.95097080738458
    Total Energy =                       -266.9509708073848060
  Basis Set: CC-PVTZ
  Basis Set:
  @DF-RHF Final Energy:  -266.95077645889648
    Total Energy =                       -266.9507764588964847
  Basis Set: CC-PVTZ
  Basis Set:
  Basis Set: CC-PVTZ
  Basis Set:
  @DF-RHF Final Energy:  -266.95135007544684
    Total Energy =                       -266.9513500754468964
  Basis Set: CC-PVTZ
  Basis Set:
  Basis Set: CC-PVTZ
  Basis Set:
  @DF-RHF Final Energy:  -266.95136737759162
    Total Energy =                       -266.9513673775916800
  Basis Set: CC-PVTZ
  Basis Set:
  Charge       = 0
  Multiplicity = 1
  Basis Set: CC-PVTZ
  Basis Set:

    Orbital Energies (a.u.)
    -----------------------

    Doubly Occupied:

       1A    -20.606870     2A    -20.538980     3A    -11.373739
       4A    -11.241370     5A    -11.228691     6A     -1.478683
       7A     -1.369082     8A     -1.068277     9A     -0.915204
      10A     -0.815969    11A     -0.706929    12A     -0.689838
      13A     -0.646161    14A     -0.617414    15A     -0.595827
      16A     -0.542910    17A     -0.527942    18A     -0.513338
      19A     -0.479477    20A     -0.444707

  @DF-RHF Final Energy:  -266.95136823635698

   => Energetics <=

    Nuclear Repulsion Energy =            180.2557024358208935
    One-Electron Energy =                -721.6113217797637844
    Two-Electron Energy =                 274.4042511075855941
    DFT Exchange-Correlation Energy =       0.0000000000000000
    Empirical Dispersion Energy =           0.0000000000000000
    PCM Polarization Energy =               0.0000000000000000
    EFP Energy =                            0.0000000000000000
    Total Energy =                       -266.9513682363572684
    Molecular point group: c1
  Basis Set: CC-PVTZ
  Basis Set:

  -Total Gradient:
     Atom            X                  Y                   Z
    ------   -----------------  -----------------  -----------------
       1       -0.000015260224    -0.000006633323    -0.000003405053
       2        0.000147036246    -0.000051124018    -0.000293716765
       3       -0.000123401707    -0.000042357550     0.000362235432
       4       -0.000198300191     0.000300028254     0.000170851472
       5       -0.000001447014     0.000065493013    -0.000009561895
       6       -0.000026116315    -0.000017017865    -0.000026371685
       7        0.000209263845    -0.000237543682    -0.000221901170
       8        0.000005007339    -0.000027486210    -0.000008014632
       9       -0.000005025779     0.000026388926     0.000004345274
      10       -0.000005198213     0.000001653928     0.000004004147
      11        0.000013442015    -0.000011401472     0.000021534875

  **** Optimization is complete! (in 14 steps) ****
    Final optimized geometry and variables:
    Molecular point group: c1

    Geometry (in Angstrom), charge = 0, multiplicity = 1:

    H            2.124677241753    -0.115534230687     0.646594523780
    O            1.386751484605    -0.630735383410     0.355951326258
    C            0.469302440628     0.192863623537    -0.139329485254
    C           -0.776377871493    -0.520434177050    -0.593359848360
    O            0.631624752054     1.363861615437    -0.184550230457
    C           -1.880185996660    -0.408201365376     0.461749723281
    H           -1.094611463417    -0.052507988505    -1.514726890755
    H           -0.546221814338    -1.557634367054    -0.791304660862
    H           -2.117493563433     0.628908299024     0.658498440972
    H           -2.777162790304    -0.904092049928     0.114170918177
    H           -1.578936081600    -0.873674793234     1.392539419479

  Mulliken Charges: (a.u.)
   Center  Symbol    Alpha    Beta     Spin     Total
       1     H     0.37980  0.37980  0.00000  0.24040
       2     O     4.16225  4.16225  0.00000 -0.32449
       3     C     2.79821  2.79821  0.00000  0.40358
       4     C     3.08943  3.08943  0.00000 -0.17887
       5     O     4.19908  4.19908  0.00000 -0.39815
       6     C     3.14857  3.14857  0.00000 -0.29715
       7     H     0.44011  0.44011  0.00000  0.11978
       8     H     0.44145  0.44145  0.00000  0.11711
       9     H     0.44359  0.44359  0.00000  0.11283
      10     H     0.44735  0.44735  0.00000  0.10531
      11     H     0.45017  0.45017  0.00000  0.09966

   Total alpha = 20.00000, Total beta = 20.00000, Total charge =  0.00000

*** Psi4 exiting successfully. Buy a developer a beer!
