                              Psi4 1.0.54 Driver

  ==> Input File <==

--------------------------------------------------------------------------
set {
	reference rhf
	basis cc-pvtz
}

set_num_threads( 4 )
memory 2 gb

molecule MOL {
0 1

H	 2.867672	 -0.456275	 0.875795
C	 2.403497	 -0.020426	 0.000000
N	 0.989899	 -0.304564	 0.000000
H	 2.867672	 -0.456275	 -0.875795
H	 2.620366	 1.051270	 0.000000
C	 0.616906	 -1.257057	 -1.025281
C	 0.184359	 0.894881	 -0.100014
H	 0.849891	 -0.879261	 -2.025647
H	 1.177878	 -2.173285	 -0.881873
C	 -0.867261	 -1.557717	 -0.941064
H	 0.427957	 1.557603	 0.722293
H	 0.384810	 1.434536	 -1.030786
C	 -1.288695	 0.538930	 -0.039571
H	 -1.171992	 -2.195894	 -1.758680
H	 -1.081993	 -2.069736	 -0.005208
O	 -1.625014	 -0.387601	 -1.029305
H	 -1.898053	 1.416289	 -0.205553
H	 -1.525234	 0.135406	 0.942935

	symmetry c1
}
set optking {
	frozen_dihedral = ("
		6 3 2 5
	")
}

ee,wfn = optimize('scf', return_wfn=True)
oeprop( wfn, 'DIPOLE', 'QUADRUPOLE', 'MULLIKEN_CHARGES')
f=open( 'psi4out.xyz', 'w' )
f.write( "18  " )
f.write( str(ee) + "\n" )
f.write( MOL.save_string_xyz() )
f.close()
--------------------------------------------------------------------------

    Molecular point group: c1
  Charge       = 0
  Multiplicity = 1
  Basis Set: CC-PVTZ
  Basis Set:
  @DF-RHF Final Energy:  -325.13921475118286
    Total Energy =                       -325.1392147511826352
    Molecular point group: c1
  Basis Set: CC-PVTZ
  Basis Set:
  Basis Set: CC-PVTZ
  Basis Set:
  @DF-RHF Final Energy:  -325.13980497623777
    Total Energy =                       -325.1398049762381675
  Basis Set: CC-PVTZ
  Basis Set:
  Basis Set: CC-PVTZ
  Basis Set:
  @DF-RHF Final Energy:  -325.13991815096966
    Total Energy =                       -325.1399181509698337
  Basis Set: CC-PVTZ
  Basis Set:
  Charge       = 0
  Multiplicity = 1
  Basis Set: CC-PVTZ
  Basis Set:

    Orbital Energies (a.u.)
    -----------------------

    Doubly Occupied:

       1A    -20.546924     2A    -15.541546     3A    -11.263517
       4A    -11.263495     5A    -11.242391     6A    -11.242323
       7A    -11.238847     8A     -1.385859     9A     -1.229209
      10A     -1.038557    11A     -0.980894    12A     -0.883258
      13A     -0.870473    14A     -0.774127    15A     -0.684342
      16A     -0.645474    17A     -0.644036    18A     -0.631437
      19A     -0.628347    20A     -0.572517    21A     -0.557859
      22A     -0.548104    23A     -0.526735    24A     -0.499946
      25A     -0.483788    26A     -0.453268    27A     -0.409799
      28A     -0.350327

  @DF-RHF Final Energy:  -325.13991988384282

   => Energetics <=

    Nuclear Repulsion Energy =            341.3962436435458585
    One-Electron Energy =               -1118.7975262129793919
    Two-Electron Energy =                 452.2613626855907683
    DFT Exchange-Correlation Energy =       0.0000000000000000
    Empirical Dispersion Energy =           0.0000000000000000
    PCM Polarization Energy =               0.0000000000000000
    EFP Energy =                            0.0000000000000000
    Total Energy =                       -325.1399198838427651
    Molecular point group: c1
  Basis Set: CC-PVTZ
  Basis Set:

  -Total Gradient:
     Atom            X                  Y                   Z
    ------   -----------------  -----------------  -----------------
       1       -0.000000464884    -0.000010600462     0.000015984319
       2       -0.000065188118     0.000425651595     0.001707613888
       3        0.000395998128    -0.001328694061     0.000771815622
       4        0.000010525138    -0.000000010099    -0.000009890253
       5        0.000060059289    -0.000063682032    -0.001618944508
       6       -0.000206476252     0.000900264217    -0.000931161588
       7       -0.000141721001    -0.000006003411    -0.000017156355
       8        0.000017280535     0.000011927251     0.000031789173
       9        0.000005595085     0.000036174451     0.000029252531
      10        0.000012925561     0.000001997951     0.000061630632
      11        0.000002343826    -0.000040769474    -0.000009719175
      12       -0.000007751875    -0.000029342481     0.000030506397
      13       -0.000026091450     0.000124056209    -0.000027502317
      14       -0.000017177678     0.000000574591    -0.000009065533
      15       -0.000013350118    -0.000003671023    -0.000003717256
      16        0.000025876514    -0.000015629405     0.000021559705
      17       -0.000076642672     0.000007144509    -0.000000458358
      18        0.000024259977    -0.000009388324    -0.000042536923

  **** Optimization is complete! (in 4 steps) ****
    Final optimized geometry and variables:
    Molecular point group: c1

    Geometry (in Angstrom), charge = 0, multiplicity = 1:

    H            2.827412679796    -0.116785146325     1.344773216914
    C            2.361572418154     0.296483097167     0.457249000520
    N            0.935723758072     0.015090737428     0.429370606935
    H            2.867706393105    -0.120317899120    -0.408899628309
    H            2.550041211149     1.363563504719     0.441059810547
    C            0.560478333516    -0.953746446158    -0.579184329965
    C            0.108386023812     1.200596929159     0.335698159925
    H            0.771710797183    -0.585338193426    -1.587666177527
    H            1.134778441911    -1.861695043154    -0.434955141561
    C           -0.917022143599    -1.277212074775    -0.467362180340
    H            0.349239517809     1.870563468777     1.152557207646
    H            0.281421361782     1.741831805227    -0.599572493105
    C           -1.357129798879     0.819476326031     0.423403970038
    H           -1.224685755591    -1.927530805463    -1.274486387067
    H           -1.107379592618    -1.784675559169     0.476315905063
    O           -1.695147983423    -0.120551066749    -0.552709542330
    H           -1.984524014358     1.685161606872     0.261976648942
    H           -1.568719996381     0.419580466029     1.413138436818

  Mulliken Charges: (a.u.)
   Center  Symbol    Alpha    Beta     Spin     Total
       1     H     0.44907  0.44907  0.00000  0.10185
       2     C     3.08972  3.08972  0.00000 -0.17945
       3     N     3.61990  3.61990  0.00000 -0.23979
       4     H     0.46181  0.46181  0.00000  0.07637
       5     H     0.45888  0.45888  0.00000  0.08224
       6     C     3.04221  3.04221  0.00000 -0.08443
       7     C     3.04174  3.04174  0.00000 -0.08349
       8     H     0.46858  0.46858  0.00000  0.06283
       9     H     0.45342  0.45342  0.00000  0.09317
      10     C     2.98455  2.98455  0.00000  0.03090
      11     H     0.45352  0.45352  0.00000  0.09296
      12     H     0.46870  0.46870  0.00000  0.06259
      13     C     2.98459  2.98459  0.00000  0.03082
      14     H     0.45014  0.45014  0.00000  0.09972
      15     H     0.46831  0.46831  0.00000  0.06338
      16     O     4.18640  4.18640  0.00000 -0.37279
      17     H     0.45007  0.45007  0.00000  0.09985
      18     H     0.46837  0.46837  0.00000  0.06326

   Total alpha = 28.00000, Total beta = 28.00000, Total charge = -0.00000

*** Psi4 exiting successfully. Buy a developer a beer!
