  ==> Input File <==

--------------------------------------------------------------------------
set {
	reference rhf
	basis 6-31G*
}

set_num_threads( 4 )
memory 2 gb

molecule MOL {
0 1

H	 1.626836	 -0.631686	 2.333272
O	 0.939012	 -0.079877	 1.989625
C	 1.135793	 0.118896	 0.612333
C	 0.031547	 1.023609	 0.088541
H	 1.102524	 -0.831109	 0.081980
H	 2.112905	 0.558976	 0.426095
C	 -1.134819	 0.293262	 -0.585751
H	 0.474374	 1.714721	 -0.623187
H	 -0.338529	 1.620940	 0.920081
C	 -1.917817	 -0.639439	 0.339494
H	 -0.758119	 -0.268455	 -1.433105
H	 -1.813832	 1.041889	 -0.986690
H	 -2.777680	 -1.057197	 -0.174994
H	 -1.310268	 -1.471279	 0.680599
H	 -2.283753	 -0.111424	 1.216626

	symmetry c1
}
set optking {
	frozen_dihedral = ("
		2 3 4 8
	")
}

ee = optimize('scf')
oeprop('DIPOLE', 'QUADRUPOLE', 'MULLIKEN_CHARGES')
f=open( 'psi4out.xyz', 'w' )
f.write( "15  " )
f.write( str(ee) + "\n" )
f.write( MOL.save_string_xyz() )
f.close()
--------------------------------------------------------------------------

    Molecular point group: c1
  Charge       = 0
  Multiplicity = 1
  Basis Set: 6-31G*
  Basis Set:
  @DF-RHF Final Energy:  -232.13991477951799
    Total Energy =                       -232.1399147795178237
    Molecular point group: c1
  Basis Set: 6-31G*
  Basis Set:
  Basis Set: 6-31G*
  Basis Set:
  @DF-RHF Final Energy:  -232.14039747387181
    Total Energy =                       -232.1403974738718716
  Basis Set: 6-31G*
  Basis Set:
  Basis Set: 6-31G*
  Basis Set:
  @DF-RHF Final Energy:  -232.14046609674983
    Total Energy =                       -232.1404660967498899
  Basis Set: 6-31G*
  Basis Set:
  Basis Set: 6-31G*
  Basis Set:
  @DF-RHF Final Energy:  -232.14047024192374
    Total Energy =                       -232.1404702419236514
  Basis Set: 6-31G*
  Basis Set:
  Basis Set: 6-31G*
  Basis Set:
  @DF-RHF Final Energy:  -232.14047272116841
    Total Energy =                       -232.1404727211682371
  Basis Set: 6-31G*
  Basis Set:
  Charge       = 0
  Multiplicity = 1
  Basis Set: 6-31G*
  Basis Set:

    Orbital Energies (a.u.)
    -----------------------

    Doubly Occupied:

       1A    -20.552806     2A    -11.268206     3A    -11.213865
       4A    -11.211528     5A    -11.200898     6A     -1.358797
       7A     -1.064651     8A     -0.967750     9A     -0.865149
      10A     -0.781720    11A     -0.700209    12A     -0.647540
      13A     -0.609235    14A     -0.572636    15A     -0.552719
      16A     -0.539540    17A     -0.502419    18A     -0.476102
      19A     -0.467834    20A     -0.455901    21A     -0.426883

  @DF-RHF Final Energy:  -232.14047343938250

   => Energetics <=

    Nuclear Repulsion Energy =            191.7072866283718326
    One-Electron Energy =                -694.8227470102966663
    Two-Electron Energy =                 270.9749869425425004
    DFT Exchange-Correlation Energy =       0.0000000000000000
    Empirical Dispersion Energy =           0.0000000000000000
    PCM Polarization Energy =               0.0000000000000000
    EFP Energy =                            0.0000000000000000
    Total Energy =                       -232.1404734393823333
    Molecular point group: c1
  Basis Set: 6-31G*
  Basis Set:

  -Total Gradient:
     Atom            X                  Y                   Z
    ------   -----------------  -----------------  -----------------
       1       -0.000009006066    -0.000018621447     0.000061983359
       2        0.001609376579     0.002326347041     0.000532386722
       3       -0.001953797510    -0.002332889976    -0.000322749397
       4       -0.000313129597    -0.002449326199    -0.003411957629
       5       -0.000031506103     0.000033312596     0.000034428367
       6        0.000001106119    -0.000049930272     0.000046814552
       7        0.000122273704     0.000012849111    -0.000013855078
       8        0.000617431843     0.002375137353     0.002828050170
       9       -0.000091421511     0.000004075522     0.000070477660
      10        0.000017490611     0.000047046497     0.000042373402
      11        0.000026318264     0.000047998638     0.000093831472
      12        0.000019451809     0.000037774665     0.000005416816
      13        0.000071766709    -0.000002664328     0.000032743690
      14       -0.000027097672    -0.000045929879    -0.000028812090
      15       -0.000059257183     0.000014820677     0.000028867980

  **** Optimization is complete! (in 6 steps) ****
    Final optimized geometry and variables:
    Molecular point group: c1

    Geometry (in Angstrom), charge = 0, multiplicity = 1:

    H            1.740481889073    -0.830019011322     1.768522142927
    O            1.083486427924    -0.232128457199     1.440784721428
    C            1.300952133244     0.002994132531     0.070560095863
    C            0.189017415053     0.910412538381    -0.457876358594
    H            1.324686167583    -0.934837322989    -0.481826886658
    H            2.267494004294     0.482954360621    -0.067355543744
    C           -0.980564783578     0.179186216585    -1.121487052615
    H            0.616708076284     1.632181936652    -1.148807366128
    H           -0.173298730041     1.491365732318     0.385644920672
    C           -1.755267146599    -0.737241611043    -0.173417201097
    H           -0.609714371226    -0.399466337003    -1.965457580350
    H           -1.661018180231     0.918143950699    -1.537403838625
    H           -2.575779599922    -1.223607890574    -0.692412757511
    H           -1.120386804273    -1.509646121401     0.246006072287
    H           -2.170618384928    -0.174129001072     0.656703253837

  Mulliken Charges: (a.u.)
   Center  Symbol    Alpha    Beta     Spin     Total
       1     H     0.28177  0.28177  0.00000  0.43647
       2     O     4.37003  4.37003  0.00000 -0.74006
       3     C     2.99906  2.99906  0.00000  0.00187
       4     C     3.16405  3.16405  0.00000 -0.32809
       5     H     0.43085  0.43085  0.00000  0.13830
       6     H     0.42847  0.42847  0.00000  0.14305
       7     C     3.15634  3.15634  0.00000 -0.31268
       8     H     0.42042  0.42042  0.00000  0.15916
       9     H     0.40733  0.40733  0.00000  0.18535
      10     C     3.23679  3.23679  0.00000 -0.47359
      11     H     0.42562  0.42562  0.00000  0.14875
      12     H     0.42112  0.42112  0.00000  0.15777
      13     H     0.42346  0.42346  0.00000  0.15307
      14     H     0.41602  0.41602  0.00000  0.16796
      15     H     0.41867  0.41867  0.00000  0.16267

   Total alpha = 21.00000, Total beta = 21.00000, Total charge =  0.00000
