  ==> Input File <==

--------------------------------------------------------------------------
set {
	reference rhf
	basis 6-31G*
}

set_num_threads( 4 )
memory 2 gb

molecule MOL {
0 1

O	 -1.276010	 1.052711	 -0.768302
C	 -1.204840	 0.067374	 -0.106123
C	 -2.388195	 -0.672128	 0.458071
O	 -0.067104	 -0.527208	 0.221609
H	 -2.388023	 -1.694060	 0.097175
H	 -3.300579	 -0.174919	 0.164318
H	 -2.315377	 -0.706351	 1.539059
C	 1.170111	 0.034140	 -0.238951
C	 0.877566	 1.492019	 -0.546513
C	 1.667434	 -0.741618	 -1.448710
H	 1.888207	 -0.041798	 0.564217
H	 0.511225	 2.003551	 0.336309
H	 1.780318	 1.991597	 -0.882359
H	 0.128257	 1.576533	 -1.326287
H	 2.591795	 -0.307414	 -1.816186
H	 1.859464	 -1.775069	 -1.189712
H	 0.933416	 -0.709615	 -2.247585

	symmetry c1
}
set optking {
	frozen_dihedral = ("
		11 8 4 2
	")
}

ee = optimize('scf')
oeprop('DIPOLE', 'QUADRUPOLE', 'MULLIKEN_CHARGES')
f=open( 'psi4out.xyz', 'w' )
f.write( "17  " )
f.write( str(ee) + "\n" )
f.write( MOL.save_string_xyz() )
f.close()
--------------------------------------------------------------------------

    Molecular point group: c1
  Charge       = 0
  Multiplicity = 1
  Basis Set: 6-31G*
  Basis Set:
  @DF-RHF Final Energy:  -344.85400051316907
    Total Energy =                       -344.8540005131690123
    Molecular point group: c1
  Basis Set: 6-31G*
  Basis Set:
  Basis Set: 6-31G*
  Basis Set:
  @DF-RHF Final Energy:  -344.89200969149357
    Total Energy =                       -344.8920096914935698
  Basis Set: 6-31G*
  Basis Set:
  Basis Set: 6-31G*
  Basis Set:
  @DF-RHF Final Energy:  -344.90066644871916
    Total Energy =                       -344.9006664487191642
  Basis Set: 6-31G*
  Basis Set:
  Basis Set: 6-31G*
  Basis Set:
  @DF-RHF Final Energy:  -344.90174592708212
    Total Energy =                       -344.9017459270820609
  Basis Set: 6-31G*
  Basis Set:
  @DF-RHF Final Energy:  -344.90305807184490
    Total Energy =                       -344.9030580718446117
  @DF-RHF Final Energy:  -344.90480602426237
    Total Energy =                       -344.9048060242625411
  Basis Set: 6-31G*
  Basis Set:
  @DF-RHF Final Energy:  -344.90492486836928
    Total Energy =                       -344.9049248683695623
  Basis Set: 6-31G*
  Basis Set:
  Basis Set: 6-31G*
  Basis Set:
  @DF-RHF Final Energy:  -344.90494896960899
    Total Energy =                       -344.9049489696088244
  Basis Set: 6-31G*
  Basis Set:
  Basis Set: 6-31G*
  Basis Set:
  @DF-RHF Final Energy:  -344.90495757850340
    Total Energy =                       -344.9049575785031152
  Basis Set: 6-31G*
  Basis Set:
  Charge       = 0
  Multiplicity = 1
  Basis Set: 6-31G*
  Basis Set:

    Orbital Energies (a.u.)
    -----------------------

    Doubly Occupied:

       1A    -20.595740     2A    -20.539536     3A    -11.374558
       4A    -11.296369     5A    -11.229775     6A    -11.219020
       7A    -11.213171     8A     -1.459164     9A     -1.360385
      10A     -1.078519    11A     -1.002323    12A     -0.946484
      13A     -0.866627    14A     -0.735077    15A     -0.690266
      16A     -0.671958    17A     -0.658129    18A     -0.616512
      19A     -0.583179    20A     -0.579832    21A     -0.566866
      22A     -0.550621    23A     -0.530571    24A     -0.517067
      25A     -0.504710    26A     -0.480902    27A     -0.440744
      28A     -0.427677

  @DF-RHF Final Energy:  -344.90495813541742

   => Energetics <=

    Nuclear Repulsion Energy =            324.8100494182172611
    One-Electron Energy =               -1113.9584513302349933
    Two-Electron Energy =                 444.2434437766002020
    DFT Exchange-Correlation Energy =       0.0000000000000000
    Empirical Dispersion Energy =           0.0000000000000000
    PCM Polarization Energy =               0.0000000000000000
    EFP Energy =                            0.0000000000000000
    Total Energy =                       -344.9049581354175871
    Molecular point group: c1
  Basis Set: 6-31G*
  Basis Set:

  -Total Gradient:
     Atom            X                  Y                   Z
    ------   -----------------  -----------------  -----------------
       1       -0.000035008952    -0.000034841983     0.000003362479
       2        0.000060873297     0.002554197916     0.004033754619
       3        0.000041608995     0.000030918920     0.000014784730
       4       -0.000409228356    -0.003240918678    -0.005942165585
       5        0.000002170796    -0.000008311825    -0.000018547419
       6        0.000008233180     0.000004298075    -0.000011939186
       7        0.000007879718    -0.000008296592    -0.000002642670
       8        0.001738818767    -0.003594187780     0.000191326951
       9       -0.000003777584     0.000021846307    -0.000028718633
      10       -0.000011838792     0.000012532598     0.000005938008
      11       -0.001427609283     0.004269545073     0.001716578077
      12        0.000000268547     0.000002339522    -0.000002437166
      13        0.000002865128     0.000004470820    -0.000003678858
      14        0.000029239856    -0.000013162121     0.000029365228
      15       -0.000005340648     0.000007793754     0.000012091642
      16        0.000004009492    -0.000006327456    -0.000000643283
      17       -0.000003164163    -0.000001896551     0.000003571066

  **** Optimization is complete! (in 10 steps) ****
    Final optimized geometry and variables:
    Molecular point group: c1

    Geometry (in Angstrom), charge = 0, multiplicity = 1:

    O           -1.347489321613     0.787772905561    -0.535910680438
    C           -1.114600837771    -0.099765018907     0.219038200304
    C           -2.170167248025    -0.858689348796     0.981481453846
    O            0.087542254238    -0.581156766835     0.492944623471
    H           -2.101090624621    -1.915334386137     0.750776126135
    H           -3.147652964743    -0.484123890012     0.716345215460
    H           -2.005007871709    -0.744513092989     2.046744119141
    C            1.342055800876     0.007629379273     0.101212325556
    C            1.325065156322     1.511442908647    -0.155872189564
    C            1.892404169306    -0.787439552797    -1.070156608747
    H            1.949624345301    -0.144412630216     0.983602579054
    H            0.835898766236     2.043989495391     0.650884550469
    H            2.358444663439     1.844188531206    -0.196036809401
    H            0.836602160826     1.772716865147    -1.081366449521
    H            2.897300500801    -0.456609663160    -1.312027231465
    H            1.926745832330    -1.844379449918    -0.832448950974
    H            1.267095775398    -0.649943517617    -1.945955456804

  Mulliken Charges: (a.u.)
   Center  Symbol    Alpha    Beta     Spin     Total
       1     O     4.28396  4.28396  0.00000 -0.56792
       2     C     2.61733  2.61733  0.00000  0.76533
       3     C     3.28038  3.28038  0.00000 -0.56075
       4     O     4.32268  4.32268  0.00000 -0.64537
       5     H     0.40120  0.40120  0.00000  0.19761
       6     H     0.39835  0.39835  0.00000  0.20329
       7     H     0.40253  0.40253  0.00000  0.19494
       8     C     2.91392  2.91392  0.00000  0.17216
       9     C     3.25193  3.25193  0.00000 -0.50385
      10     C     3.24536  3.24536  0.00000 -0.49072
      11     H     0.41122  0.41122  0.00000  0.17756
      12     H     0.41278  0.41278  0.00000  0.17444
      13     H     0.42155  0.42155  0.00000  0.15690
      14     H     0.39684  0.39684  0.00000  0.20632
      15     H     0.41854  0.41854  0.00000  0.16292
      16     H     0.41148  0.41148  0.00000  0.17705
      17     H     0.40996  0.40996  0.00000  0.18008

   Total alpha = 28.00000, Total beta = 28.00000, Total charge =  0.00000
