                              Psi4 1.0.54 Driver

  ==> Input File <==

--------------------------------------------------------------------------
set {
	reference rhf
	basis cc-pvtz
}

set_num_threads( 4 )
memory 2 gb

molecule MOL {
0 1

H	 1.951863	 -3.780215	 -0.088357
C	 2.188426	 -2.726527	 0.000446
C	 0.929183	 -1.871902	 -0.092145
H	 2.691560	 -2.580754	 0.950522
H	 2.892599	 -2.479158	 -0.786934
C	 1.215950	 -0.382441	 0.027187
H	 0.229036	 -2.153936	 0.686325
H	 0.432053	 -2.065158	 -1.039821
N	 0.000002	 0.398953	 -0.040851
H	 1.690054	 -0.184354	 0.983825
H	 1.938071	 -0.089850	 -0.740937
C	 -1.215959	 -0.382435	 0.027143
H	 -0.000012	 1.086078	 0.683841
C	 -2.451944	 0.502410	 -0.038737
H	 -1.221867	 -1.069392	 -0.813828
H	 -1.259993	 -0.999709	 0.929424
C	 -3.752217	 -0.292550	 0.005776
H	 -2.407325	 1.093801	 -0.946480
H	 -2.431979	 1.206234	 0.790023
H	 -3.817783	 -0.982946	 -0.828547
H	 -4.612613	 0.364348	 -0.042306
H	 -3.830160	 -0.871666	 0.919868

	symmetry c1
}
set optking {
	frozen_dihedral = ("
		10 6 9 12
	")
}

ee,wfn = optimize('scf', return_wfn=True)
oeprop( wfn, 'DIPOLE', 'QUADRUPOLE', 'MULLIKEN_CHARGES')
f=open( 'psi4out.xyz', 'w' )
f.write( "22  " )
f.write( str(ee) + "\n" )
f.write( MOL.save_string_xyz() )
f.close()
--------------------------------------------------------------------------

    Molecular point group: c1
  Charge       = 0
  Multiplicity = 1
  Basis Set: CC-PVTZ
  Basis Set:
  @DF-RHF Final Energy:  -290.46964734088152
    Total Energy =                       -290.4696473408814654
    Molecular point group: c1
  Basis Set: CC-PVTZ
  Basis Set:
  Basis Set: CC-PVTZ
  Basis Set:
  @DF-RHF Final Energy:  -290.42270332563834
    Total Energy =                       -290.4227033256383947
  Basis Set: CC-PVTZ
  Basis Set:
  Basis Set: CC-PVTZ
  Basis Set:
  @DF-RHF Final Energy:  -290.47166199251114
    Total Energy =                       -290.4716619925112582
  Basis Set: CC-PVTZ
  Basis Set:
  Basis Set: CC-PVTZ
  Basis Set:
  @DF-RHF Final Energy:  -290.47829094721106
    Total Energy =                       -290.4782909472109509
  Basis Set: CC-PVTZ
  Basis Set:
  @DF-RHF Final Energy:  -290.47921663378770
    Total Energy =                       -290.4792166337877575
  Basis Set: CC-PVTZ
  Basis Set:
  @DF-RHF Final Energy:  -290.47924243892231
    Total Energy =                       -290.4792424389221424
  Basis Set: CC-PVTZ
  Basis Set:
  Basis Set: CC-PVTZ
  Basis Set:
  @DF-RHF Final Energy:  -290.47925024483044
    Total Energy =                       -290.4792502448304390
  Basis Set: CC-PVTZ
  Basis Set:
  Basis Set: CC-PVTZ
  Basis Set:
  @DF-RHF Final Energy:  -290.47925228802211
    Total Energy =                       -290.4792522880220531
  Basis Set: CC-PVTZ
  Basis Set:
  Charge       = 0
  Multiplicity = 1
  Basis Set: CC-PVTZ
  Basis Set:

    Orbital Energies (a.u.)
    -----------------------

    Doubly Occupied:

       1A    -15.522188     2A    -11.236988     3A    -11.235063
       4A    -11.214132     5A    -11.210254     6A    -11.208531
       7A    -11.206473     8A     -1.197467     9A     -1.058208
      10A     -1.028710    11A     -0.929940    12A     -0.875614
      13A     -0.814342    14A     -0.779011    15A     -0.666042
      16A     -0.630051    17A     -0.620653    18A     -0.614468
      19A     -0.568397    20A     -0.558428    21A     -0.542823
      22A     -0.531386    23A     -0.504362    24A     -0.487362
      25A     -0.479533    26A     -0.473444    27A     -0.465248
      28A     -0.461456    29A     -0.345968

  @DF-RHF Final Energy:  -290.47925234402675

   => Energetics <=

    Nuclear Repulsion Energy =            318.3506864276916417
    One-Electron Energy =               -1022.7267955350027933
    Two-Electron Energy =                 413.8968567632845748
    DFT Exchange-Correlation Energy =       0.0000000000000000
    Empirical Dispersion Energy =           0.0000000000000000
    PCM Polarization Energy =               0.0000000000000000
    EFP Energy =                            0.0000000000000000
    Total Energy =                       -290.4792523440265199
    Molecular point group: c1
  Basis Set: CC-PVTZ
  Basis Set:

  -Total Gradient:
     Atom            X                  Y                   Z
    ------   -----------------  -----------------  -----------------
       1        0.000002023529     0.000004256615    -0.000001599842
       2        0.000004692983    -0.000006631604    -0.000011891182
       3       -0.000004960671     0.000017617179     0.000016037248
       4        0.000001159481    -0.000000766213     0.000000805519
       5        0.000001016302    -0.000000621866     0.000006052665
       6       -0.002548534570    -0.002486364899     0.001734486376
       7       -0.000003509747     0.000000317860    -0.000001506162
       8       -0.000000303593     0.000001409311    -0.000002620089
       9        0.001208449883     0.002145842400     0.003082622723
      10        0.001835126743     0.001490775917    -0.002378256737
      11       -0.000002163439     0.000001135997     0.000010187464
      12       -0.000486459133    -0.001167425047    -0.002454795793
      13        0.000004245507     0.000003395740     0.000003468949
      14       -0.000005333529    -0.000003387280    -0.000001034197
      15       -0.000002554930    -0.000006025446    -0.000000294728
      16        0.000001992947     0.000003955822    -0.000009085219
      17       -0.000002991043     0.000004571957     0.000004698772
      18        0.000001525561    -0.000003843277     0.000006192886
      19       -0.000002098187    -0.000001589623    -0.000002039373
      20        0.000002747826     0.000006622125     0.000001837335
      21       -0.000003176776    -0.000001975805     0.000001779145
      22       -0.000000895144    -0.000001269865    -0.000005045759

  **** Optimization is complete! (in 9 steps) ****
    Final optimized geometry and variables:
    Molecular point group: c1

    Geometry (in Angstrom), charge = 0, multiplicity = 1:

    H            2.119784255522    -3.493441012668     0.686402497437
    C            2.421394793903    -2.483693239428     0.434323268817
    C            1.206062940493    -1.580351172402     0.249382597595
    H            3.062842219267    -2.121908791653     1.230898509625
    H            3.015742476836    -2.532762583628    -0.471654766450
    C            1.619829506119    -0.161755872519    -0.123756847228
    H            0.620901317193    -1.576882565337     1.161989894605
    H            0.572339106411    -1.992776279801    -0.528186766480
    N            0.537009776233     0.790475725481    -0.360666261917
    H            2.296115900629     0.219565919665     0.640235384254
    H            2.218492476083    -0.222809896730    -1.029312055441
    C           -0.816783008873     0.491216754216     0.053224488743
    H            0.801393053165     1.695071624099    -0.042712496325
    C           -1.754365658386     1.620199738025    -0.353027790815
    H           -1.142797393754    -0.421223997781    -0.429947234395
    H           -0.914314040631     0.326380360392     1.129434793303
    C           -3.203759770393     1.355432730237     0.039060140727
    H           -1.677849838481     1.765844321668    -1.424759083079
    H           -1.420699800005     2.546240645850     0.109522993394
    H           -3.578561719846     0.452983847602    -0.432365722677
    H           -3.845168192784     2.174927797678    -0.263107281438
    H           -3.307326543898     1.234344275194     1.112191816269

  Mulliken Charges: (a.u.)
   Center  Symbol    Alpha    Beta     Spin     Total
       1     H     0.44728  0.44728  0.00000  0.10543
       2     C     3.15232  3.15232  0.00000 -0.30464
       3     C     3.09828  3.09828  0.00000 -0.19655
       4     H     0.45549  0.45549  0.00000  0.08903
       5     H     0.45393  0.45393  0.00000  0.09213
       6     C     3.01658  3.01658  0.00000 -0.03316
       7     H     0.44986  0.44986  0.00000  0.10027
       8     H     0.44967  0.44967  0.00000  0.10066
       9     N     3.64583  3.64583  0.00000 -0.29167
      10     H     0.46841  0.46841  0.00000  0.06317
      11     H     0.46110  0.46110  0.00000  0.07779
      12     C     3.02423  3.02423  0.00000 -0.04847
      13     H     0.44279  0.44279  0.00000  0.11442
      14     C     3.08166  3.08166  0.00000 -0.16331
      15     H     0.45649  0.45649  0.00000  0.08702
      16     H     0.47355  0.47355  0.00000  0.05290
      17     C     3.15355  3.15355  0.00000 -0.30710
      18     H     0.44975  0.44975  0.00000  0.10049
      19     H     0.46011  0.46011  0.00000  0.07978
      20     H     0.45512  0.45512  0.00000  0.08975
      21     H     0.44779  0.44779  0.00000  0.10442
      22     H     0.45620  0.45620  0.00000  0.08761

   Total alpha = 29.00000, Total beta = 29.00000, Total charge = -0.00000

*** Psi4 exiting successfully. Buy a developer a beer!
