                              Psi4 1.0.54 Driver

  ==> Input File <==

--------------------------------------------------------------------------
set {
	reference rhf
	basis cc-pvtz
}

set_num_threads( 4 )
memory 2 gb

molecule MOL {
0 1

H	 -1.172689	 -1.677085	 1.134748
C	 -1.944118	 -1.205779	 0.530057
O	 -1.401606	 -0.295183	 -0.366624
H	 -2.452935	 -1.968831	 -0.040684
H	 -2.661794	 -0.731403	 1.196986
C	 -0.718530	 0.758693	 0.228682
C	 0.718529	 0.758687	 -0.228709
H	 -1.176498	 1.708665	 -0.046615
H	 -0.748705	 0.673525	 1.312779
O	 1.401606	 -0.295166	 0.366636
H	 0.748705	 0.673477	 -1.312803
H	 1.176496	 1.708671	 0.046552
C	 2.714315	 -0.441627	 -0.061017
H	 2.765292	 -0.641548	 -1.128869
H	 3.305661	 0.447341	 0.150952
H	 3.143725	 -1.278506	 0.470147

	symmetry c1
}
set optking {
	frozen_dihedral = ("
		2 3 6 7
	")
}

ee,wfn = optimize('scf', return_wfn=True)
oeprop( wfn, 'DIPOLE', 'QUADRUPOLE', 'MULLIKEN_CHARGES')
f=open( 'psi4out.xyz', 'w' )
f.write( "16  " )
f.write( str(ee) + "\n" )
f.write( MOL.save_string_xyz() )
f.close()
--------------------------------------------------------------------------

    Molecular point group: c1
  Charge       = 0
  Multiplicity = 1
  Basis Set: CC-PVTZ
  Basis Set:
  @DF-RHF Final Energy:  -307.09562623496976
    Total Energy =                       -307.0956262349696999
    Molecular point group: c1
  Basis Set: CC-PVTZ
  Basis Set:
  Basis Set: CC-PVTZ
  Basis Set:
  @DF-RHF Final Energy:  -307.09603182550939
    Total Energy =                       -307.0960318255092716
  Basis Set: CC-PVTZ
  Basis Set:
  Basis Set: CC-PVTZ
  Basis Set:
  @DF-RHF Final Energy:  -307.09610245375148
    Total Energy =                       -307.0961024537514845
  Basis Set: CC-PVTZ
  Basis Set:
  Charge       = 0
  Multiplicity = 1
  Basis Set: CC-PVTZ
  Basis Set:

    Orbital Energies (a.u.)
    -----------------------

    Doubly Occupied:

       1A    -20.550720     2A    -20.543061     3A    -11.266591
       4A    -11.265883     5A    -11.263755     6A    -11.257428
       7A     -1.390633     8A     -1.370327     9A     -1.030476
      10A     -0.940039    11A     -0.890314    12A     -0.823224
      13A     -0.684721    14A     -0.681304    15A     -0.659317
      16A     -0.634417    17A     -0.628120    18A     -0.602952
      19A     -0.547065    20A     -0.536277    21A     -0.515397
      22A     -0.477915    23A     -0.467962    24A     -0.421227
      25A     -0.409042

  @DF-RHF Final Energy:  -307.09610489489467

   => Energetics <=

    Nuclear Repulsion Energy =            261.6889535520605250
    One-Electron Energy =                -937.8537979540578817
    Two-Electron Energy =                 369.0687395071028050
    DFT Exchange-Correlation Energy =       0.0000000000000000
    Empirical Dispersion Energy =           0.0000000000000000
    PCM Polarization Energy =               0.0000000000000000
    EFP Energy =                            0.0000000000000000
    Total Energy =                       -307.0961048948945518
    Molecular point group: c1
  Basis Set: CC-PVTZ
  Basis Set:

  -Total Gradient:
     Atom            X                  Y                   Z
    ------   -----------------  -----------------  -----------------
       1        0.000002785033     0.000025494011    -0.000006323840
       2       -0.000422809344     0.000270434989    -0.000078400875
       3        0.000563986498    -0.000404983006    -0.000024989115
       4       -0.000018092371    -0.000024908262     0.000005943399
       5        0.000010928300     0.000016375463    -0.000001885237
       6       -0.000043119919    -0.000153558680     0.000423052943
       7       -0.000084089147     0.000309189203    -0.000286370557
       8        0.000035859512     0.000013537391     0.000015874551
       9        0.000013307066    -0.000026225070    -0.000016656843
      10       -0.000010728967    -0.000042181670    -0.000009698160
      11       -0.000010720839    -0.000013583139     0.000014672427
      12       -0.000006471125     0.000015478369    -0.000019623253
      13       -0.000016244229     0.000012954687    -0.000024567050
      14        0.000009722660    -0.000003793067    -0.000003293884
      15       -0.000004200408     0.000002080797     0.000005197050
      16       -0.000020112721     0.000003687985     0.000007068448

  **** Optimization is complete! (in 4 steps) ****
    Final optimized geometry and variables:
    Molecular point group: c1

    Geometry (in Angstrom), charge = 0, multiplicity = 1:

    H           -1.347700248734    -1.549440539104     1.061827430923
    C           -2.103036543960    -1.078547361123     0.440795510692
    O           -1.538739973767    -0.157464612004    -0.436874573257
    H           -2.589617121344    -1.838143977372    -0.154263614425
    H           -2.847200288954    -0.614085998574     1.083893878510
    C           -0.842861177518     0.902692246074     0.144899720559
    C            0.599846969104     0.910851117193    -0.300392682557
    H           -1.308267137349     1.836027888387    -0.158357894678
    H           -0.879321380279     0.848509405556     1.228086751565
    O            1.267645045417    -0.163945518782     0.279024453105
    H            0.639918251979     0.845542498813    -1.385420488165
    H            1.063477996907     1.851510208010    -0.001918769796
    C            2.578463556324    -0.326677907501    -0.150243377691
    H            2.626279904929    -0.510268339653    -1.220999565424
    H            3.184153213617     0.548552496538     0.076329520565
    H            2.993450610368    -1.178965226818     0.367892295455

  Mulliken Charges: (a.u.)
   Center  Symbol    Alpha    Beta     Spin     Total
       1     H     0.46528  0.46528  0.00000  0.06945
       2     C     3.03018  3.03018  0.00000 -0.06036
       3     O     4.18217  4.18217  0.00000 -0.36434
       4     H     0.45078  0.45078  0.00000  0.09844
       5     H     0.47177  0.47177  0.00000  0.05645
       6     C     2.96938  2.96938  0.00000  0.06123
       7     C     2.96469  2.96469  0.00000  0.07061
       8     H     0.45712  0.45712  0.00000  0.08576
       9     H     0.46736  0.46736  0.00000  0.06528
      10     O     4.17451  4.17451  0.00000 -0.34901
      11     H     0.47173  0.47173  0.00000  0.05655
      12     H     0.47422  0.47422  0.00000  0.05155
      13     C     3.03129  3.03129  0.00000 -0.06258
      14     H     0.46956  0.46956  0.00000  0.06088
      15     H     0.47242  0.47242  0.00000  0.05516
      16     H     0.44754  0.44754  0.00000  0.10491

   Total alpha = 25.00000, Total beta = 25.00000, Total charge = -0.00000

*** Psi4 exiting successfully. Buy a developer a beer!
