  ==> Input File <==

--------------------------------------------------------------------------
set {
	reference rhf
	basis 6-31G*
}

set_num_threads( 1 )
memory 2 gb

molecule MOL {
0 1

H	 -2.646374	 -0.642757	 1.268656
C	 -2.083525	 -0.384536	 0.393091
O	 -0.807605	 -0.127164	 0.768327
F	 -2.118945	 -1.383102	 -0.486752
F	 -2.621877	 0.670592	 -0.209486
C	 0.084052	 0.273579	 -0.209957
C	 1.457012	 -0.241962	 0.201575
Cl	 0.100759	 2.037974	 -0.364385
H	 -0.155788	 -0.136340	 -1.175470
F	 2.360990	 0.092289	 -0.694661
F	 1.413756	 -1.557687	 0.268182
F	 1.829481	 0.220857	 1.369923

	symmetry c1
}
set optking {
	frozen_dihedral = ("
		10 7 6 9,
		6 3 2 4
	")
}

ee = energy('scf')
oeprop('DIPOLE', 'QUADRUPOLE', 'MULLIKEN_CHARGES')
f=open( 'psi4out.xyz', 'w' )
f.write( "12  " )
f.write( str(ee) + "\n" )
f.write( MOL.save_string_xyz() )
f.close()
--------------------------------------------------------------------------

    Molecular point group: c1

    Geometry (in Angstrom), charge = 0, multiplicity = 1:

       Center              X                  Y                   Z               Mass
    ------------   -----------------  -----------------  -----------------  -----------------
           H         -2.633739152177    -0.789685081463     1.219984629334     1.007825032070
           C         -2.070890152177    -0.531464081463     0.344419629334    12.000000000000
           O         -0.794970152177    -0.274092081463     0.719655629334    15.994914619560
           F         -2.106310152177    -1.530030081463    -0.535423370666    18.998403224000
           F         -2.609242152177     0.523663918537    -0.258157370666    18.998403224000
           C          0.096686847823     0.126650918537    -0.258628370666    12.000000000000
           C          1.469646847823    -0.388890081463     0.152903629334    12.000000000000
          CL          0.113393847823     1.891045918537    -0.413056370666    34.968852682000
           H         -0.143153152177    -0.283268081463    -1.224141370666     1.007825032070
           F          2.373624847823    -0.054639081463    -0.743332370666    18.998403224000
           F          1.426390847823    -1.704615081463     0.219510629334    18.998403224000
           F          1.842115847823     0.073928918537     1.321251629334    18.998403224000

  Charge       = 0
  Multiplicity = 1
  Basis Set: 6-31G*
  Basis Set:

    Orbital Energies (a.u.)
    -----------------------

    Doubly Occupied:

       1A   -104.841224     2A    -26.360674     3A    -26.358853
       4A    -26.358040     5A    -26.346457     6A    -26.344393
       7A    -20.650119     8A    -11.528740     9A    -11.489172
      10A    -11.400331    11A    -10.576121    12A     -8.045485
      13A     -8.041924    14A     -8.041845    15A     -1.761466
      16A     -1.717127    17A     -1.658056    18A     -1.656487
      19A     -1.637732    20A     -1.486101    21A     -1.178835
      22A     -1.052890    23A     -0.985914    24A     -0.919430
      25A     -0.860027    26A     -0.852266    27A     -0.845981
      28A     -0.820476    29A     -0.810283    30A     -0.790069
      31A     -0.728217    32A     -0.726746    33A     -0.707775
      34A     -0.700067    35A     -0.679395    36A     -0.675238
      37A     -0.658489    38A     -0.657396    39A     -0.645058
      40A     -0.634362    41A     -0.597531    42A     -0.579054
      43A     -0.523983    44A     -0.474231    45A     -0.467402

  @DF-RHF Final Energy: -1146.31355678394266

   => Energetics <=

    Nuclear Repulsion Energy =            738.0993370378643021
    One-Electron Energy =               -3059.0829434516317633
    Two-Electron Energy =                1174.6700496298260532
    DFT Exchange-Correlation Energy =       0.0000000000000000
    Empirical Dispersion Energy =           0.0000000000000000
    PCM Polarization Energy =               0.0000000000000000
    EFP Energy =                            0.0000000000000000
    Total Energy =                      -1146.3135567839415216

  Mulliken Charges: (a.u.)
   Center  Symbol    Alpha    Beta     Spin     Total
       1     H     0.40141  0.40141  0.00000  0.19717
       2     C     2.56100  2.56100  0.00000  0.87801
       3     O     4.30080  4.30080  0.00000 -0.60160
       4     F     4.68703  4.68703  0.00000 -0.37405
       5     F     4.68346  4.68346  0.00000 -0.36691
       6     C     3.04736  3.04736  0.00000 -0.09472
       7     C     2.43163  2.43163  0.00000  1.13673
       8    CL     8.50125  8.50125  0.00000 -0.00250
       9     H     0.36752  0.36752  0.00000  0.26495
      10     F     4.67416  4.67416  0.00000 -0.34832
      11     F     4.67593  4.67593  0.00000 -0.35187
      12     F     4.66845  4.66845  0.00000 -0.33690

   Total alpha = 45.00000, Total beta = 45.00000, Total charge =  0.00000
