                              Psi4 1.0.54 Driver

  ==> Input File <==

--------------------------------------------------------------------------
set {
	reference rhf
	basis cc-pvtz
}

set_num_threads( 4 )
memory 2 gb

molecule MOL {
0 1

O	 -0.384524	 0.159710	 -2.945462
C	 -0.962967	 0.440031	 -1.946335
C	 -0.881910	 -0.448129	 -0.720509
C	 -1.790305	 1.698722	 -1.836892
C	 0.376695	 -0.140025	 0.100361
H	 -0.850782	 -1.475197	 -1.061499
H	 -1.765108	 -0.319798	 -0.103777
C	 1.630207	 -0.772146	 -0.501001
H	 0.486632	 0.935267	 0.162725
H	 0.248225	 -0.501310	 1.117842
C	 2.907848	 -0.545876	 0.309149
H	 1.772784	 -0.391628	 -1.509394
H	 1.468529	 -1.842059	 -0.599744
C	 3.373802	 0.906639	 0.372125
H	 3.699140	 -1.146831	 -0.127906
H	 2.764321	 -0.923458	 1.318191
H	 3.519798	 1.311927	 -0.623875
H	 4.316899	 0.983758	 0.900700
H	 2.661122	 1.540651	 0.885346
H	 -2.838242	 1.430276	 -1.748790
H	 -1.648545	 2.314348	 -2.711807
H	 -1.526001	 2.254270	 -0.944087

	symmetry c1
}
set optking {
	frozen_dihedral = ("
		6 3 5 8
	")
}

ee,wfn = optimize('scf', return_wfn=True)
oeprop( wfn, 'DIPOLE', 'QUADRUPOLE', 'MULLIKEN_CHARGES')
f=open( 'psi4out.xyz', 'w' )
f.write( "22  " )
f.write( str(ee) + "\n" )
f.write( MOL.save_string_xyz() )
f.close()
--------------------------------------------------------------------------

    Molecular point group: c1
  Charge       = 0
  Multiplicity = 1
  Basis Set: CC-PVTZ
  Basis Set:
  @DF-RHF Final Energy:  -348.22117313101700
    Total Energy =                       -348.2211731310172240
    Molecular point group: c1
  Basis Set: CC-PVTZ
  Basis Set:
  Basis Set: CC-PVTZ
  Basis Set:
  @DF-RHF Final Energy:  -348.22152899423554
    Total Energy =                       -348.2215289942357686
  Basis Set: CC-PVTZ
  Basis Set:
  Basis Set: CC-PVTZ
  Basis Set:
  @DF-RHF Final Energy:  -348.22147971489943
    Total Energy =                       -348.2214797148992602
  Basis Set: CC-PVTZ
  Basis Set:
  Basis Set: CC-PVTZ
  Basis Set:
  @DF-RHF Final Energy:  -348.22162636805479
    Total Energy =                       -348.2216263680544444
  Basis Set: CC-PVTZ
  Basis Set:
  @DF-RHF Final Energy:  -348.22166215140635
    Total Energy =                       -348.2216621514066901
  Basis Set: CC-PVTZ
  Basis Set:
  @DF-RHF Final Energy:  -348.22165951415951
    Total Energy =                       -348.2216595141595690
  Basis Set: CC-PVTZ
  Basis Set:
  Basis Set: CC-PVTZ
  Basis Set:
  @DF-RHF Final Energy:  -348.22167616234293
    Total Energy =                       -348.2216761623430443
  Basis Set: CC-PVTZ
  Basis Set:
  Basis Set: CC-PVTZ
  Basis Set:
  @DF-RHF Final Energy:  -348.22167775526020
    Total Energy =                       -348.2216777552604299
  Basis Set: CC-PVTZ
  Basis Set:
  Charge       = 0
  Multiplicity = 1
  Basis Set: CC-PVTZ
  Basis Set:

    Orbital Energies (a.u.)
    -----------------------

    Doubly Occupied:

       1A    -20.537341     2A    -11.319445     3A    -11.229203
       4A    -11.228146     5A    -11.226730     6A    -11.215788
       7A    -11.213632     8A    -11.208413     9A     -1.397154
      10A     -1.095019    11A     -1.044214    12A     -0.998679
      13A     -0.936992    14A     -0.859053    15A     -0.786505
      16A     -0.733992    17A     -0.660936    18A     -0.645677
      19A     -0.627912    20A     -0.612470    21A     -0.601072
      22A     -0.584034    23A     -0.562369    24A     -0.546539
      25A     -0.533678    26A     -0.518151    27A     -0.506633
      28A     -0.488953    29A     -0.468956    30A     -0.461508
      31A     -0.454160    32A     -0.398734

  @DF-RHF Final Energy:  -348.22167805319788

   => Energetics <=

    Nuclear Repulsion Energy =            381.0932342206996850
    One-Electron Energy =               -1227.2256387099027961
    Two-Electron Energy =                 497.9107264360049498
    DFT Exchange-Correlation Energy =       0.0000000000000000
    Empirical Dispersion Energy =           0.0000000000000000
    PCM Polarization Energy =               0.0000000000000000
    EFP Energy =                            0.0000000000000000
    Total Energy =                       -348.2216780531981044
    Molecular point group: c1
  Basis Set: CC-PVTZ
  Basis Set:

  -Total Gradient:
     Atom            X                  Y                   Z
    ------   -----------------  -----------------  -----------------
       1        0.000013449684    -0.000014500608    -0.000029506053
       2        0.000012063777     0.000014497829     0.000017272586
       3       -0.001233584152    -0.001205610028     0.002333031672
       4       -0.000033760141    -0.000021695952    -0.000037918187
       5        0.000494989368     0.001778698836    -0.001472183573
       6        0.000952875786     0.000614611677    -0.001624999093
       7       -0.000002986070     0.000004167097    -0.000000912027
       8       -0.000189405935    -0.001189291458     0.000761895369
       9       -0.000007063603     0.000000475221    -0.000008148547
      10       -0.000001815052    -0.000004948196     0.000001067742
      11       -0.000004165055     0.000014887343     0.000000910907
      12       -0.000010917280     0.000003369206     0.000013243335
      13        0.000001303480    -0.000003779208     0.000005318136
      14        0.000005752445    -0.000010886223    -0.000001654392
      15        0.000002912758    -0.000002636472    -0.000002852437
      16       -0.000002960102     0.000005414916     0.000002788192
      17       -0.000000809456     0.000003057331    -0.000008307238
      18        0.000001667128    -0.000003483368     0.000001471765
      19       -0.000003376672    -0.000004393768     0.000005885929
      20       -0.000028231052     0.000007432715     0.000016448430
      21        0.000009274325    -0.000002430597    -0.000006560722
      22        0.000024785815     0.000017043711     0.000033708205

  **** Optimization is complete! (in 9 steps) ****
    Final optimized geometry and variables:
    Molecular point group: c1

    Geometry (in Angstrom), charge = 0, multiplicity = 1:

    O           -1.049308249967    -0.103995567149    -2.121074789435
    C           -1.512453830462     0.216384480493    -1.074554933210
    C           -1.410227073031    -0.677497263953     0.145939589434
    C           -2.229886539322     1.535824114455    -0.903599289294
    C           -0.168130494864    -0.348668855886     0.995123963611
    H           -1.355377723272    -1.697994762714    -0.209290962786
    H           -2.304068816456    -0.564032061799     0.748723427690
    C            1.125404151569    -0.933571380424     0.428917642776
    H           -0.082029665133     0.726076460875     1.113139656084
    H           -0.324534725504    -0.748458634249     1.992051245570
    C            2.368444753507    -0.645365687069     1.272510190208
    H            1.281672316858    -0.571040699209    -0.581773796535
    H            1.003061032818    -2.009447762295     0.347679168816
    C            2.797898106702     0.819771493204     1.297406288573
    H            3.188382648228    -1.239494135434     0.881806374419
    H            2.203279427137    -0.990966607215     2.289925252948
    H            2.965038859866     1.192605012352     0.292214787446
    H            3.721767380660     0.939601816724     1.851503656252
    H            2.055549387987     1.454602041407     1.766695498612
    H           -3.292359290280     1.344980661227    -0.789213667414
    H           -2.070857395049     2.158389023415    -1.770631609963
    H           -1.898355015396     2.050055832714    -0.009341838980

  Mulliken Charges: (a.u.)
   Center  Symbol    Alpha    Beta     Spin     Total
       1     O     4.17682  4.17682  0.00000 -0.35365
       2     C     2.85865  2.85865  0.00000  0.28269
       3     C     3.10595  3.10595  0.00000 -0.21189
       4     C     3.15411  3.15411  0.00000 -0.30821
       5     C     3.11017  3.11017  0.00000 -0.22034
       6     H     0.43976  0.43976  0.00000  0.12049
       7     H     0.43960  0.43960  0.00000  0.12080
       8     C     3.09251  3.09251  0.00000 -0.18502
       9     H     0.44971  0.44971  0.00000  0.10058
      10     H     0.44530  0.44530  0.00000  0.10940
      11     C     3.09071  3.09071  0.00000 -0.18141
      12     H     0.44180  0.44180  0.00000  0.11639
      13     H     0.44887  0.44887  0.00000  0.10226
      14     C     3.15333  3.15333  0.00000 -0.30666
      15     H     0.44692  0.44692  0.00000  0.10616
      16     H     0.45565  0.45565  0.00000  0.08871
      17     H     0.45194  0.45194  0.00000  0.09613
      18     H     0.44579  0.44579  0.00000  0.10842
      19     H     0.45650  0.45650  0.00000  0.08701
      20     H     0.44824  0.44824  0.00000  0.10352
      21     H     0.43659  0.43659  0.00000  0.12683
      22     H     0.45110  0.45110  0.00000  0.09780

   Total alpha = 32.00000, Total beta = 32.00000, Total charge = -0.00000

*** Psi4 exiting successfully. Buy a developer a beer!
