  ==> Input File <==

--------------------------------------------------------------------------
set {
	reference rhf
	basis 6-31G*
}

set_num_threads( 1 )
memory 2 gb

molecule MOL {
0 1

O	 -1.276010	 1.052711	 -0.768302
C	 -1.204840	 0.067374	 -0.106123
C	 -2.388195	 -0.672128	 0.458071
O	 -0.067104	 -0.527208	 0.221609
H	 -2.388023	 -1.694060	 0.097175
H	 -3.300579	 -0.174919	 0.164318
H	 -2.315377	 -0.706351	 1.539059
C	 -0.046118	 -1.420791	 1.343660
C	 1.386466	 -1.424522	 1.846925
C	 -0.529923	 -2.796892	 0.913631
H	 -0.706683	 -1.020757	 2.098732
H	 1.696403	 -0.424245	 2.127338
H	 1.475477	 -2.067419	 2.716461
H	 2.061365	 -1.789210	 1.080004
H	 -0.494608	 -3.483979	 1.753083
H	 -1.551307	 -2.750895	 0.557773
H	 0.100802	 -3.190532	 0.122909

	symmetry c1
}
set optking {
	frozen_dihedral = ("
		11 8 4 2
	")
}

ee = energy('scf')
oeprop('DIPOLE', 'QUADRUPOLE', 'MULLIKEN_CHARGES')
f=open( 'psi4out.xyz', 'w' )
f.write( "17  " )
f.write( str(ee) + "\n" )
f.write( MOL.save_string_xyz() )
f.close()
--------------------------------------------------------------------------

    Molecular point group: c1

    Geometry (in Angstrom), charge = 0, multiplicity = 1:

       Center              X                  Y                   Z               Mass
    ------------   -----------------  -----------------  -----------------  -----------------
           O         -0.684843050590     1.875650858588    -1.327560317077    15.994914619560
           C         -0.613673050590     0.890313858588    -0.665381317077    12.000000000000
           C         -1.797028050590     0.150811858588    -0.101187317077    12.000000000000
           O          0.524062949410     0.295731858588    -0.337649317077    15.994914619560
           H         -1.796856050590    -0.871120141412    -0.462083317077     1.007825032070
           H         -2.709412050590     0.648020858588    -0.394940317077     1.007825032070
           H         -1.724210050590     0.116588858588     0.979800682923     1.007825032070
           C          0.545048949410    -0.597851141412     0.784401682923    12.000000000000
           C          1.977632949410    -0.601582141412     1.287666682923    12.000000000000
           C          0.061243949410    -1.973952141412     0.354372682923    12.000000000000
           H         -0.115516050590    -0.197817141412     1.539473682923     1.007825032070
           H          2.287569949410     0.398694858588     1.568079682923     1.007825032070
           H          2.066643949410    -1.244479141412     2.157202682923     1.007825032070
           H          2.652531949410    -0.966270141412     0.520745682923     1.007825032070
           H          0.096558949410    -2.661039141412     1.193824682923     1.007825032070
           H         -0.960140050590    -1.927955141412    -0.001485317077     1.007825032070
           H          0.691968949410    -2.367592141412    -0.436349317077     1.007825032070

  Charge       = 0
  Multiplicity = 1
  Basis Set: 6-31G*
  Basis Set:

    Orbital Energies (a.u.)
    -----------------------

    Doubly Occupied:

       1A    -20.600596     2A    -20.541940     3A    -11.375715
       4A    -11.308031     5A    -11.233442     6A    -11.229909
       7A    -11.228436     8A     -1.464017     9A     -1.366766
      10A     -1.082734    11A     -1.028151    12A     -0.958581
      13A     -0.861674    14A     -0.781468    15A     -0.709024
      16A     -0.675987    17A     -0.659076    18A     -0.639768
      19A     -0.605709    20A     -0.578087    21A     -0.565316
      22A     -0.558436    23A     -0.549285    24A     -0.524000
      25A     -0.514068    26A     -0.483893    27A     -0.444148
      28A     -0.431419

  @DF-RHF Final Energy:  -344.86972036378751

   => Energetics <=

    Nuclear Repulsion Energy =            327.5965128772957655
    One-Electron Energy =               -1118.9331059987180197
    Two-Electron Energy =                 446.4668727576345191
    DFT Exchange-Correlation Energy =       0.0000000000000000
    Empirical Dispersion Energy =           0.0000000000000000
    PCM Polarization Energy =               0.0000000000000000
    EFP Energy =                            0.0000000000000000
    Total Energy =                       -344.8697203637877919

  Mulliken Charges: (a.u.)
   Center  Symbol    Alpha    Beta     Spin     Total
       1     O     4.27114  4.27114  0.00000 -0.54227
       2     C     2.60505  2.60505  0.00000  0.78990
       3     C     3.32051  3.32051  0.00000 -0.64102
       4     O     4.30538  4.30538  0.00000 -0.61077
       5     H     0.39848  0.39848  0.00000  0.20303
       6     H     0.38973  0.38973  0.00000  0.22053
       7     H     0.40364  0.40364  0.00000  0.19271
       8     C     2.93681  2.93681  0.00000  0.12639
       9     C     3.23710  3.23710  0.00000 -0.47420
      10     C     3.24823  3.24823  0.00000 -0.49645
      11     H     0.41401  0.41401  0.00000  0.17197
      12     H     0.40613  0.40613  0.00000  0.18774
      13     H     0.41823  0.41823  0.00000  0.16353
      14     H     0.40860  0.40860  0.00000  0.18280
      15     H     0.41519  0.41519  0.00000  0.16961
      16     H     0.41493  0.41493  0.00000  0.17015
      17     H     0.40684  0.40684  0.00000  0.18633

   Total alpha = 28.00000, Total beta = 28.00000, Total charge =  0.00000
