                              Psi4 1.0.54 Driver

  ==> Input File <==

--------------------------------------------------------------------------
set {
	reference rhf
	basis cc-pvtz
}

set_num_threads( 4 )
memory 2 gb

molecule MOL {
0 1

H	 -2.382273	 -1.553962	 0.308012
O	 -2.658848	 -0.704215	 -0.000460
C	 -1.605397	 0.107680	 0.001145
C	 -0.310616	 -0.658853	 0.000791
O	 -1.718351	 1.284629	 -0.000627
C	 0.926581	 0.227233	 0.000178
H	 -0.327628	 -1.313681	 -0.864448
H	 -0.327041	 -1.313334	 0.866298
C	 2.220156	 -0.582071	 -0.000088
H	 0.899945	 0.878221	 -0.866390
H	 0.900542	 0.878581	 0.866486
C	 3.466689	 0.296012	 -0.000457
H	 2.239073	 -1.234095	 -0.869382
H	 2.239505	 -1.233985	 0.869270
H	 3.493549	 0.935857	 -0.875887
H	 4.368821	 -0.304526	 -0.001199
H	 3.494559	 0.935166	 0.875458

	symmetry c1
}
set optking {
	frozen_dihedral = ("
		1 2 3 5
	")
}

ee,wfn = optimize('scf', return_wfn=True)
oeprop( wfn, 'DIPOLE', 'QUADRUPOLE', 'MULLIKEN_CHARGES')
f=open( 'psi4out.xyz', 'w' )
f.write( "17  " )
f.write( str(ee) + "\n" )
f.write( MOL.save_string_xyz() )
f.close()
--------------------------------------------------------------------------

    Molecular point group: c1
  Charge       = 0
  Multiplicity = 1
  Basis Set: CC-PVTZ
  Basis Set:
  @DF-RHF Final Energy:  -345.03687425592716
    Total Energy =                       -345.0368742559272164
    Molecular point group: c1
  Basis Set: CC-PVTZ
  Basis Set:
  Basis Set: CC-PVTZ
  Basis Set:
  @DF-RHF Final Energy:  -345.03803288839731
    Total Energy =                       -345.0380328883974812
  Basis Set: CC-PVTZ
  Basis Set:
  Basis Set: CC-PVTZ
  Basis Set:
  @DF-RHF Final Energy:  -345.03798589597540
    Total Energy =                       -345.0379858959756234
  Basis Set: CC-PVTZ
  Basis Set:
  Basis Set: CC-PVTZ
  Basis Set:
  @DF-RHF Final Energy:  -345.03828407846277
    Total Energy =                       -345.0382840784628797
  Basis Set: CC-PVTZ
  Basis Set:
  Basis Set: CC-PVTZ
  Basis Set:
  @DF-RHF Final Energy:  -345.03829829006935
    Total Energy =                       -345.0382982900690649
  Basis Set: CC-PVTZ
  Basis Set:
  Basis Set: CC-PVTZ
  Basis Set:
  @DF-RHF Final Energy:  -345.03829946057846
    Total Energy =                       -345.0382994605782869
  Basis Set: CC-PVTZ
  Basis Set:
  Charge       = 0
  Multiplicity = 1
  Basis Set: CC-PVTZ
  Basis Set:

    Orbital Energies (a.u.)
    -----------------------

    Doubly Occupied:

       1A    -20.602520     2A    -20.537724     3A    -11.372866
       4A    -11.249902     5A    -11.226473     6A    -11.225692
       7A    -11.214158     8A     -1.470428     9A     -1.373366
      10A     -1.097440    11A     -1.020979    12A     -0.909129
      13A     -0.836106    14A     -0.807396    15A     -0.717747
      16A     -0.676978    17A     -0.662720    18A     -0.635116
      19A     -0.605255    20A     -0.583723    21A     -0.570025
      22A     -0.544691    23A     -0.515563    24A     -0.488378
      25A     -0.484854    26A     -0.480732    27A     -0.476684
      28A     -0.442701

  @DF-RHF Final Energy:  -345.03829953632993

   => Energetics <=

    Nuclear Repulsion Energy =            304.7406432798355240
    One-Electron Energy =               -1073.8991959362783746
    Two-Electron Energy =                 424.1202531201132615
    DFT Exchange-Correlation Energy =       0.0000000000000000
    Empirical Dispersion Energy =           0.0000000000000000
    PCM Polarization Energy =               0.0000000000000000
    EFP Energy =                            0.0000000000000000
    Total Energy =                       -345.0382995363296459
    Molecular point group: c1
  Basis Set: CC-PVTZ
  Basis Set:

  -Total Gradient:
     Atom            X                  Y                   Z
    ------   -----------------  -----------------  -----------------
       1       -0.000938928409     0.001178326955     0.004269556352
       2        0.001140922594    -0.001551484945    -0.003665708287
       3       -0.000164457570     0.000471010386    -0.004515794153
       4       -0.000000029013     0.000005032225    -0.000013236218
       5       -0.000034239356    -0.000105614082     0.003907963713
       6        0.000005126695    -0.000001857762     0.000008674771
       7        0.000001582726    -0.000002068307     0.000001534378
       8       -0.000004231451     0.000005592459     0.000012981779
       9       -0.000000169501    -0.000000465953     0.000000946898
      10       -0.000000063083     0.000003066922    -0.000005613876
      11       -0.000001644735    -0.000001575785     0.000000639146
      12       -0.000002543716     0.000000429850    -0.000002148227
      13       -0.000000141053    -0.000000672591    -0.000000601489
      14       -0.000000316704     0.000000240775     0.000002110220
      15        0.000000353025     0.000001600157    -0.000001048178
      16       -0.000000576001    -0.000001131065    -0.000001040469
      17       -0.000000644446    -0.000000429238     0.000000783639

  **** Optimization is complete! (in 7 steps) ****
    Final optimized geometry and variables:
    Molecular point group: c1

    Geometry (in Angstrom), charge = 0, multiplicity = 1:

    H           -2.537603276629    -1.537913810960     0.229958221709
    O           -2.713320519691    -0.658203471162    -0.054815015209
    C           -1.615059234259     0.105738402839    -0.028687974386
    C           -0.309439491860    -0.657024556616    -0.025227844716
    O           -1.709748022774     1.277367880230    -0.008757621107
    C            0.923008907568     0.234818744981     0.018814437729
    H           -0.299750838768    -1.288145345180    -0.909518786039
    H           -0.321167136300    -1.332241143051     0.827968291781
    C            2.222307615056    -0.565202871463     0.020587732184
    H            0.903435062086     0.906269346968    -0.831500006658
    H            0.874856690062     0.863680856256     0.900174064997
    C            3.461279172487     0.322513441803     0.061867481200
    H            2.261093462923    -1.195714843148    -0.863870636224
    H            2.233412138724    -1.237584223201     0.874627963085
    H            3.497082217183     0.982803927728    -0.797751742512
    H            4.368022901583    -0.270889820428     0.062211087351
    H            3.468999799586     0.940931249369     0.952811449096

  Mulliken Charges: (a.u.)
   Center  Symbol    Alpha    Beta     Spin     Total
       1     H     0.38805  0.38805  0.00000  0.22390
       2     O     4.14792  4.14792  0.00000 -0.29584
       3     C     2.80271  2.80271  0.00000  0.39457
       4     C     3.12802  3.12802  0.00000 -0.25603
       5     O     4.17395  4.17395  0.00000 -0.34791
       6     C     3.08567  3.08567  0.00000 -0.17134
       7     H     0.43786  0.43786  0.00000  0.12428
       8     H     0.44906  0.44906  0.00000  0.10187
       9     C     3.08665  3.08665  0.00000 -0.17330
      10     H     0.44277  0.44277  0.00000  0.11445
      11     H     0.44391  0.44391  0.00000  0.11218
      12     C     3.14935  3.14935  0.00000 -0.29869
      13     H     0.45496  0.45496  0.00000  0.09009
      14     H     0.45553  0.45553  0.00000  0.08894
      15     H     0.45279  0.45279  0.00000  0.09442
      16     H     0.44773  0.44773  0.00000  0.10454
      17     H     0.45306  0.45306  0.00000  0.09388

   Total alpha = 28.00000, Total beta = 28.00000, Total charge = -0.00000

*** Psi4 exiting successfully. Buy a developer a beer!
