                              Psi4 1.0.54 Driver

  ==> Input File <==

--------------------------------------------------------------------------
set {
	reference rhf
	basis cc-pvtz
}

set_num_threads( 4 )
memory 2 gb

molecule MOL {
0 1

O	 -2.817697	 1.304178	 0.001046
C	 -2.664672	 0.129869	 0.003507
C	 -3.797908	 -0.860100	 -0.001145
O	 -1.481217	 -0.452708	 0.001092
H	 -4.408836	 -0.679689	 -0.875387
H	 -3.443486	 -1.878443	 -0.002770
H	 -4.412123	 -0.683688	 0.871605
C	 -0.332055	 0.384012	 -0.000250
C	 0.892252	 -0.506059	 -0.000295
H	 -0.360822	 1.020205	 -0.874146
H	 -0.359817	 1.021310	 0.872861
C	 1.908834	 -0.084744	 -1.057374
H	 0.581729	 -1.531518	 -0.172571
H	 1.347877	 -0.477846	 0.984223
C	 3.153059	 -0.968312	 -1.075796
H	 1.441389	 -0.105871	 -2.038713
H	 2.205895	 0.946591	 -0.883947
C	 4.169703	 -0.546908	 -2.131193
H	 2.857656	 -1.998931	 -1.250774
H	 3.621127	 -0.947868	 -0.095704
H	 3.741104	 -0.590079	 -3.126826
H	 5.039522	 -1.193234	 -2.117729
H	 4.510246	 0.469257	 -1.962987

	symmetry c1
}
set optking {
	frozen_dihedral = ("
		13 9 8 10
	")
}

ee,wfn = optimize('scf', return_wfn=True)
oeprop( wfn, 'DIPOLE', 'QUADRUPOLE', 'MULLIKEN_CHARGES')
f=open( 'psi4out.xyz', 'w' )
f.write( "23  " )
f.write( str(ee) + "\n" )
f.write( MOL.save_string_xyz() )
f.close()
--------------------------------------------------------------------------

    Molecular point group: c1
  Charge       = 0
  Multiplicity = 1
  Basis Set: CC-PVTZ
  Basis Set:
  @DF-RHF Final Energy:  -423.12915790107098
    Total Energy =                       -423.1291579010705846
    Molecular point group: c1
  Basis Set: CC-PVTZ
  Basis Set:
  Basis Set: CC-PVTZ
  Basis Set:
  @DF-RHF Final Energy:  -423.12933345903338
    Total Energy =                       -423.1293334590334325
  Basis Set: CC-PVTZ
  Basis Set:
  Basis Set: CC-PVTZ
  Basis Set:
  @DF-RHF Final Energy:  -423.12942282888656
    Total Energy =                       -423.1294228288866179
  Basis Set: CC-PVTZ
  Basis Set:
  Basis Set: CC-PVTZ
  Basis Set:
  @DF-RHF Final Energy:  -423.12955386475755
    Total Energy =                       -423.1295538647580088
  Basis Set: CC-PVTZ
  Basis Set:
  Basis Set: CC-PVTZ
  Basis Set:
  @DF-RHF Final Energy:  -423.12958742456885
    Total Energy =                       -423.1295874245686264
  Basis Set: CC-PVTZ
  Basis Set:
  Charge       = 0
  Multiplicity = 1
  Basis Set: CC-PVTZ
  Basis Set:

    Orbital Energies (a.u.)
    -----------------------

    Doubly Occupied:

       1A    -20.596397     2A    -20.529706     3A    -11.366404
       4A    -11.279500     5A    -11.230876     6A    -11.221956
       7A    -11.220634     8A    -11.218762     9A    -11.210652
      10A     -1.471235    11A     -1.364095    12A     -1.093222
      13A     -1.042160    14A     -1.003543    15A     -0.931707
      16A     -0.843338    17A     -0.801944    18A     -0.780549
      19A     -0.691503    20A     -0.685496    21A     -0.670756
      22A     -0.646886    23A     -0.608109    24A     -0.585269
      25A     -0.583704    26A     -0.570253    27A     -0.559645
      28A     -0.537423    29A     -0.526409    30A     -0.503956
      31A     -0.496124    32A     -0.476224    33A     -0.471128
      34A     -0.466551    35A     -0.449002    36A     -0.439087

  @DF-RHF Final Energy:  -423.12958824176548

   => Energetics <=

    Nuclear Repulsion Energy =            451.0593106680630058
    One-Electron Energy =               -1470.0293849209401742
    Two-Electron Energy =                 595.8404860111121479
    DFT Exchange-Correlation Energy =       0.0000000000000000
    Empirical Dispersion Energy =           0.0000000000000000
    PCM Polarization Energy =               0.0000000000000000
    EFP Energy =                            0.0000000000000000
    Total Energy =                       -423.1295882417649636
    Molecular point group: c1
  Basis Set: CC-PVTZ
  Basis Set:

  -Total Gradient:
     Atom            X                  Y                   Z
    ------   -----------------  -----------------  -----------------
       1        0.000004355435    -0.000000748376    -0.000016039253
       2        0.000044085863    -0.000028965684     0.000045424683
       3       -0.000012241993     0.000003265241    -0.000003765778
       4       -0.000057257470     0.000017025323    -0.000016896179
       5        0.000003541484     0.000004086411    -0.000001533582
       6        0.000000330035    -0.000002227393     0.000000874159
       7        0.000001137256    -0.000003076822    -0.000002617093
       8       -0.001856670544    -0.002631976286    -0.001201410026
       9        0.000681838528     0.001083351632    -0.003029263142
      10        0.001473306060     0.002024293913     0.001447570055
      11       -0.000018915226    -0.000005095383    -0.000006037000
      12        0.000008371138     0.000016000025     0.000009853970
      13       -0.000272731329    -0.000425670813     0.002779133381
      14        0.000011338261    -0.000031641051    -0.000000804507
      15        0.000007197582     0.000009269174     0.000016780721
      16       -0.000005860896    -0.000026486085     0.000002088634
      17       -0.000020161512     0.000004920030    -0.000018377618
      18        0.000005119985    -0.000002156365     0.000001942243
      19        0.000005283769    -0.000000070196    -0.000006143213
      20       -0.000003254156    -0.000002374751     0.000001284839
      21       -0.000001387677     0.000002799738    -0.000001607359
      22        0.000001617930    -0.000002599751    -0.000004716976
      23        0.000000957468    -0.000001922528     0.000004259042

  **** Optimization is complete! (in 6 steps) ****
    Final optimized geometry and variables:
    Molecular point group: c1

    Geometry (in Angstrom), charge = 0, multiplicity = 1:

    O           -2.695953062607     1.486443283980     0.516617694874
    C           -2.558744079011     0.310270846901     0.498914353002
    C           -3.705232108968    -0.664425289784     0.521691036089
    O           -1.383984835098    -0.288181982683     0.456046708320
    H           -4.341304725105    -0.467067181433    -0.330739049444
    H           -3.365396127719    -1.687533012484     0.499144567121
    H           -4.288551800758    -0.488253009028     1.415499416515
    C           -0.224580483962     0.534639913368     0.435558048810
    C            1.014298218039    -0.360205309985     0.415613106819
    H           -0.262492321137     1.184172665403    -0.427713405605
    H           -0.241248601930     1.173838303454     1.306334953081
    C            2.053818277147     0.073971976029    -0.613253075919
    H            0.699408987414    -1.379996639366     0.230267431312
    H            1.467340310306    -0.367580119953     1.401701019277
    C            3.314034889351    -0.785209603645    -0.592484471016
    H            1.609956292173     0.040239024704    -1.605036406697
    H            2.325855235756     1.112282733894    -0.437164667126
    C            4.348308767424    -0.355033814382    -1.627172019847
    H            3.042063949995    -1.823077083754    -0.764010223947
    H            3.758074299178    -0.746877535060     0.398365060226
    H            3.944949899901    -0.415358619955    -2.632451697409
    H            5.229203362981    -0.985087045127    -1.586355414401
    H            4.666098384136     0.668825840520    -1.460685270835

  Mulliken Charges: (a.u.)
   Center  Symbol    Alpha    Beta     Spin     Total
       1     O     4.20236  4.20236  0.00000 -0.40471
       2     C     2.81033  2.81033  0.00000  0.37934
       3     C     3.13902  3.13902  0.00000 -0.27804
       4     O     4.14553  4.14553  0.00000 -0.29106
       5     H     0.44221  0.44221  0.00000  0.11557
       6     H     0.44213  0.44213  0.00000  0.11575
       7     H     0.44210  0.44210  0.00000  0.11579
       8     C     2.98393  2.98393  0.00000  0.03213
       9     C     3.09112  3.09112  0.00000 -0.18224
      10     H     0.45399  0.45399  0.00000  0.09203
      11     H     0.45200  0.45200  0.00000  0.09600
      12     C     3.09512  3.09512  0.00000 -0.19024
      13     H     0.44524  0.44524  0.00000  0.10952
      14     H     0.45102  0.45102  0.00000  0.09796
      15     C     3.08594  3.08594  0.00000 -0.17188
      16     H     0.45181  0.45181  0.00000  0.09637
      17     H     0.45238  0.45238  0.00000  0.09524
      18     C     3.14944  3.14944  0.00000 -0.29888
      19     H     0.45351  0.45351  0.00000  0.09299
      20     H     0.45373  0.45373  0.00000  0.09254
      21     H     0.45456  0.45456  0.00000  0.09087
      22     H     0.44787  0.44787  0.00000  0.10427
      23     H     0.45466  0.45466  0.00000  0.09068

   Total alpha = 36.00000, Total beta = 36.00000, Total charge = -0.00000

*** Psi4 exiting successfully. Buy a developer a beer!
