  ==> Input File <==

--------------------------------------------------------------------------
set {
	reference rhf
	basis cc-pvtz
}

set_num_threads( 4 )
memory 2 gb

molecule MOL {
0 1

O	 1.847685	 1.294399	 -0.000190
C	 1.704209	 0.119472	 -0.000093
C	 0.380337	 -0.600947	 -0.000234
O	 2.715427	 -0.733672	 0.000025
C	 -0.824290	 0.329213	 -0.000115
H	 0.371455	 -1.255476	 -0.865660
H	 0.371410	 -1.255787	 0.864952
C	 -2.146151	 -0.432825	 -0.000068
H	 -0.773936	 0.979158	 -0.866319
H	 -0.773838	 0.979034	 0.866186
C	 -3.366283	 0.483552	 0.000557
H	 -2.189286	 -1.084450	 -0.869996
H	 -2.188867	 -1.085083	 0.869399
C	 -4.210604	 0.356025	 1.263993
H	 -3.980616	 0.262083	 -0.867604
H	 -3.040286	 1.513606	 -0.112909
H	 -4.580621	 -0.656451	 1.387337
H	 -5.067476	 1.018950	 1.231830
H	 -3.632974	 0.605349	 2.147970
C	 4.020999	 -0.192556	 0.000019
H	 4.182809	 0.412891	 -0.879449
H	 4.692590	 -1.035653	 0.000152
H	 4.182726	 0.413087	 0.879368

	symmetry c1
}
set optking {
	frozen_dihedral = ("
		15 11 8 12
	")
}

ee = optimize('scf')
oeprop('DIPOLE', 'QUADRUPOLE', 'MULLIKEN_CHARGES')
f=open( 'psi4out.xyz', 'w' )
f.write( "23  " )
f.write( str(ee) + "\n" )
f.write( MOL.save_string_xyz() )
f.close()
--------------------------------------------------------------------------

    Molecular point group: c1
  Charge       = 0
  Multiplicity = 1
  Basis Set: CC-PVTZ
  Basis Set:
  @DF-RHF Final Energy:  -423.12526523143697
    Total Energy =                       -423.1252652314374245
    Molecular point group: c1
  Basis Set: CC-PVTZ
  Basis Set:
  Basis Set: CC-PVTZ
  Basis Set:
  @DF-RHF Final Energy:  -423.12551206780506
    Total Energy =                       -423.1255120678049479
  Basis Set: CC-PVTZ
  Basis Set:
  Basis Set: CC-PVTZ
  Basis Set:
  @DF-RHF Final Energy:  -423.12557971913964
    Total Energy =                       -423.1255797191396368
  Basis Set: CC-PVTZ
  Basis Set:
  Basis Set: CC-PVTZ
  Basis Set:
  @DF-RHF Final Energy:  -423.12556324495540
    Total Energy =                       -423.1255632449557424
  Basis Set: CC-PVTZ
  Basis Set:
  Basis Set: CC-PVTZ
  Basis Set:
  @DF-RHF Final Energy:  -423.12558041630746
    Total Energy =                       -423.1255804163070025
  Basis Set: CC-PVTZ
  Basis Set:
  Charge       = 0
  Multiplicity = 1
  Basis Set: CC-PVTZ
  Basis Set:

    Orbital Energies (a.u.)
    -----------------------

    Doubly Occupied:

       1A    -20.596332     2A    -20.534145     3A    -11.364633
       4A    -11.278496     5A    -11.233607     6A    -11.217733
       7A    -11.215537     8A    -11.214202     9A    -11.207972
      10A     -1.472231    11A     -1.365805    12A     -1.093163
      13A     -1.043069    14A     -0.987697    15A     -0.932202
      16A     -0.846889    17A     -0.794247    18A     -0.769632
      19A     -0.699021    20A     -0.686584    21A     -0.675851
      22A     -0.644713    23A     -0.614058    24A     -0.599475
      25A     -0.581491    26A     -0.565873    27A     -0.542633
      28A     -0.528218    29A     -0.523225    30A     -0.503617
      31A     -0.495245    32A     -0.468999    33A     -0.462706
      34A     -0.461039    35A     -0.455845    36A     -0.438205

  @DF-RHF Final Energy:  -423.12558054556013

   => Energetics <=

    Nuclear Repulsion Energy =            454.3790011724788087
    One-Electron Energy =               -1476.7803887127824964
    Two-Electron Energy =                 599.2758069947435615
    DFT Exchange-Correlation Energy =       0.0000000000000000
    Empirical Dispersion Energy =           0.0000000000000000
    PCM Polarization Energy =               0.0000000000000000
    EFP Energy =                            0.0000000000000000
    Total Energy =                       -423.1255805455600694
    Molecular point group: c1
  Basis Set: CC-PVTZ
  Basis Set:

  -Total Gradient:
     Atom            X                  Y                   Z
    ------   -----------------  -----------------  -----------------
       1        0.000000145367    -0.000000782588     0.000019801381
       2        0.000005630073    -0.000009616832    -0.000060960528
       3        0.000003866318    -0.000000794020     0.000016904607
       4        0.000012386811     0.000002831905     0.000018288446
       5       -0.000013999926    -0.000009711642     0.000006074788
       6        0.000006214803     0.000002869185    -0.000000311336
       7       -0.000002784079     0.000001364345    -0.000004449001
       8        0.000672573440     0.000954081930    -0.000714956328
       9       -0.000011643110    -0.000000860101     0.000004698209
      10       -0.000010673890    -0.000008676971    -0.000001327447
      11       -0.000666532930    -0.000950607878     0.000733806594
      12       -0.000458073732    -0.000619911050     0.000485894227
      13        0.000000755663     0.000006008414     0.000004131527
      14        0.000000821093     0.000008445143    -0.000010401119
      15        0.000454127513     0.000619474589    -0.000485840069
      16       -0.000001827261    -0.000000072186     0.000007564645
      17        0.000009787580     0.000005385715    -0.000009880891
      18       -0.000007782782     0.000004838637     0.000002816068
      19        0.000004210187    -0.000002821501    -0.000012766359
      20        0.000002117021    -0.000001561742     0.000000869954
      21       -0.000000534096    -0.000000171057    -0.000000163001
      22        0.000000487433     0.000000256603     0.000000275378
      23        0.000000728509     0.000000031106    -0.000000069744

  **** Optimization is complete! (in 6 steps) ****
    Final optimized geometry and variables:
    Molecular point group: c1

    Geometry (in Angstrom), charge = 0, multiplicity = 1:

    O            1.793243573558     1.221062818077    -0.149892456936
    C            1.651457220488     0.045910148344    -0.146256075626
    C            0.328560765971    -0.676259161334    -0.148419135257
    O            2.663963553915    -0.805704562376    -0.138969889718
    C           -0.876955068617     0.252122458943    -0.158383584371
    H            0.323956591242    -1.335211981908    -1.010577195290
    H            0.316742719396    -1.326778070652     0.720012312342
    C           -2.199320763717    -0.510725940574    -0.162462406262
    H           -0.823965816369     0.898908409144    -1.026675613284
    H           -0.833398425094     0.905850829479     0.705770075672
    C           -3.436898290824     0.409699176121    -0.143140635428
    H           -2.235444852226    -1.161982104496    -1.030394963495
    H           -2.228285883412    -1.171630007489     0.699641539568
    C           -4.267686606309     0.288849586758     1.130773518337
    H           -4.065987549679     0.199962253368    -1.001175924728
    H           -3.119521209036     1.441137861263    -0.258132446462
    H           -4.651281970842    -0.718573333126     1.252998560692
    H           -5.113901391023     0.966291830689     1.114351105566
    H           -3.672886355508     0.523240330315     2.007693551648
    C            3.968663237301    -0.262675283720    -0.135669740582
    H            4.133190555281     0.339884514282    -1.016631018705
    H            4.641541035651    -1.104745095905    -0.129847413120
    H            4.126064466421     0.346341846288     0.742148810360

  Mulliken Charges: (a.u.)
   Center  Symbol    Alpha    Beta     Spin     Total
       1     O     4.19698  4.19698  0.00000 -0.39396
       2     C     2.80612  2.80612  0.00000  0.38777
       3     C     3.10294  3.10294  0.00000 -0.20588
       4     O     4.14649  4.14649  0.00000 -0.29298
       5     C     3.08395  3.08395  0.00000 -0.16791
       6     H     0.44016  0.44016  0.00000  0.11968
       7     H     0.43975  0.43975  0.00000  0.12051
       8     C     3.09779  3.09779  0.00000 -0.19558
       9     H     0.44546  0.44546  0.00000  0.10908
      10     H     0.44579  0.44579  0.00000  0.10841
      11     C     3.09033  3.09033  0.00000 -0.18066
      12     H     0.44943  0.44943  0.00000  0.10113
      13     H     0.45574  0.45574  0.00000  0.08852
      14     C     3.14703  3.14703  0.00000 -0.29407
      15     H     0.44916  0.44916  0.00000  0.10168
      16     H     0.45200  0.45200  0.00000  0.09600
      17     H     0.45511  0.45511  0.00000  0.08978
      18     H     0.44907  0.44907  0.00000  0.10186
      19     H     0.45494  0.45494  0.00000  0.09011
      20     C     3.03770  3.03770  0.00000 -0.07540
      21     H     0.45435  0.45435  0.00000  0.09130
      22     H     0.44534  0.44534  0.00000  0.10932
      23     H     0.45436  0.45436  0.00000  0.09128

   Total alpha = 36.00000, Total beta = 36.00000, Total charge = -0.00000
