  ==> Input File <==

--------------------------------------------------------------------------
set {
	reference rhf
	basis cc-pvtz
}

set_num_threads( 4 )
memory 2 gb

molecule MOL {
0 1

H	 -3.144994	 -1.202467	 -0.018751
O	 -2.321472	 -0.864941	 -0.318626
C	 -2.021813	 0.336996	 0.342658
C	 -0.669613	 0.837286	 -0.127252
H	 -2.780861	 1.084746	 0.127159
H	 -2.006390	 0.184138	 1.420053
C	 0.490865	 -0.082543	 0.241244
H	 -0.708709	 0.967192	 -1.204587
H	 -0.507562	 1.822272	 0.303070
C	 1.839800	 0.429565	 -0.255472
H	 0.305636	 -1.070211	 -0.165276
H	 0.527397	 -0.195943	 1.322876
C	 1.791306	 0.948017	 -1.688874
H	 2.185421	 1.222758	 0.401867
H	 2.577222	 -0.366061	 -0.185633
H	 1.087951	 1.768541	 -1.783472
H	 2.762598	 1.305871	 -2.011109
H	 1.481444	 0.168270	 -2.376933

	symmetry c1
}
set optking {
	frozen_dihedral = ("
		14 10 7 11
	")
}

ee = optimize('scf')
oeprop('DIPOLE', 'QUADRUPOLE', 'MULLIKEN_CHARGES')
f=open( 'psi4out.xyz', 'w' )
f.write( "18  " )
f.write( str(ee) + "\n" )
f.write( MOL.save_string_xyz() )
f.close()
--------------------------------------------------------------------------

    Molecular point group: c1
  Charge       = 0
  Multiplicity = 1
  Basis Set: CC-PVTZ
  Basis Set:
  @DF-RHF Final Energy:  -271.28154498629613
    Total Energy =                       -271.2815449862963533
    Molecular point group: c1
  Basis Set: CC-PVTZ
  Basis Set:
  Basis Set: CC-PVTZ
  Basis Set:
  @DF-RHF Final Energy:  -271.28273382690236
    Total Energy =                       -271.2827338269023585
  Basis Set: CC-PVTZ
  Basis Set:
  Basis Set: CC-PVTZ
  Basis Set:
  @DF-RHF Final Energy:  -271.28371835770929
    Total Energy =                       -271.2837183577091764
  Basis Set: CC-PVTZ
  Basis Set:
  Basis Set: CC-PVTZ
  Basis Set:
  @DF-RHF Final Energy:  -271.28379971573753
    Total Energy =                       -271.2837997157378140
  Basis Set: CC-PVTZ
  Basis Set:
  Basis Set: CC-PVTZ
  Basis Set:
  @DF-RHF Final Energy:  -271.28380807545250
    Total Energy =                       -271.2838080754524412
  Basis Set: CC-PVTZ
  Basis Set:
  Basis Set: CC-PVTZ
  Basis Set:
  @DF-RHF Final Energy:  -271.28380989644972
    Total Energy =                       -271.2838098964496112
  Basis Set: CC-PVTZ
  Basis Set:
  Charge       = 0
  Multiplicity = 1
  Basis Set: CC-PVTZ
  Basis Set:

    Orbital Energies (a.u.)
    -----------------------

    Doubly Occupied:

       1A    -20.546050     2A    -11.265806     3A    -11.210059
       4A    -11.209572     5A    -11.205298     6A    -11.202509
       7A     -1.363963     8A     -1.075613     9A     -1.007115
      10A     -0.916331    11A     -0.832536    12A     -0.769374
      13A     -0.707225    14A     -0.644113    15A     -0.615019
      16A     -0.604047    17A     -0.563643    18A     -0.555949
      19A     -0.527525    20A     -0.507445    21A     -0.491041
      22A     -0.462816    23A     -0.454289    24A     -0.450514
      25A     -0.430074

  @DF-RHF Final Energy:  -271.28380997619143

   => Energetics <=

    Nuclear Repulsion Energy =            252.3773935272654967
    One-Electron Energy =                -868.0865572380570256
    Two-Electron Energy =                 344.4253537345998666
    DFT Exchange-Correlation Energy =       0.0000000000000000
    Empirical Dispersion Energy =           0.0000000000000000
    PCM Polarization Energy =               0.0000000000000000
    EFP Energy =                            0.0000000000000000
    Total Energy =                       -271.2838099761916055
    Molecular point group: c1
  Basis Set: CC-PVTZ
  Basis Set:

  -Total Gradient:
     Atom            X                  Y                   Z
    ------   -----------------  -----------------  -----------------
       1        0.000002138510     0.000000594057     0.000002343736
       2        0.000011439267    -0.000004736694     0.000002773663
       3       -0.000012285765     0.000009023734    -0.000018165587
       4        0.000002022278     0.000006381381     0.000021341217
       5       -0.000000960644     0.000004077073     0.000001857659
       6        0.000003486289    -0.000002139110    -0.000004676297
       7       -0.001629287153     0.001470774141    -0.003420999384
       8       -0.000004511511    -0.000003368156     0.000004496090
       9       -0.000003505105     0.000006485747     0.000001078470
      10       -0.001803621734     0.002954023953    -0.002049764799
      11        0.001668343221    -0.001713248587     0.003192083769
      12        0.000001856742     0.000001377029    -0.000003025402
      13       -0.000004020518    -0.000002336917    -0.000006347266
      14        0.001770015623    -0.002728742199     0.002275350374
      15       -0.000001271145    -0.000000169192     0.000004164796
      16       -0.000001482618     0.000001993169    -0.000001938394
      17        0.000001219707    -0.000000584219     0.000001916493
      18        0.000000424553     0.000000594788    -0.000002489137

  **** Optimization is complete! (in 7 steps) ****
    Final optimized geometry and variables:
    Molecular point group: c1

    Geometry (in Angstrom), charge = 0, multiplicity = 1:

    H           -2.955386196832    -1.479237954442     0.420012881103
    O           -2.153355554795    -1.135653764548     0.072750473080
    C           -1.831680705763     0.075290683975     0.706573636404
    C           -0.517489929428     0.590346838268     0.151443710230
    H           -2.612785708340     0.810971236351     0.531939312515
    H           -1.749217024534    -0.069238941288     1.781961718151
    C            0.667755866816    -0.321125980119     0.456771379288
    H           -0.632678339428     0.720431132918    -0.918398831644
    H           -0.339264405297     1.576860347431     0.573321678562
    C            2.037611397311     0.220300197698     0.033997223568
    H            0.509867288733    -1.299030640722     0.016932844168
    H            0.699048633169    -0.494311250331     1.530386377802
    C            2.134180469306     0.720048727725    -1.404200114416
    H            2.348897403422     0.999433909854     0.724998169277
    H            2.760959135190    -0.578893225320     0.169373575040
    H            1.524151118467     1.599512575528    -1.571175168052
    H            3.157180872978     0.982012915669    -1.649119087809
    H            1.812049062127    -0.043474208173    -2.105029302179

  Mulliken Charges: (a.u.)
   Center  Symbol    Alpha    Beta     Spin     Total
       1     H     0.39579  0.39579  0.00000  0.20843
       2     O     4.19869  4.19869  0.00000 -0.39738
       3     C     2.97471  2.97471  0.00000  0.05059
       4     C     3.09386  3.09386  0.00000 -0.18771
       5     H     0.46563  0.46563  0.00000  0.06873
       6     H     0.47306  0.47306  0.00000  0.05389
       7     C     3.09392  3.09392  0.00000 -0.18785
       8     H     0.44966  0.44966  0.00000  0.10068
       9     H     0.45319  0.45319  0.00000  0.09362
      10     C     3.08973  3.08973  0.00000 -0.17946
      11     H     0.44265  0.44265  0.00000  0.11469
      12     H     0.45614  0.45614  0.00000  0.08772
      13     C     3.15504  3.15504  0.00000 -0.31009
      14     H     0.45485  0.45485  0.00000  0.09030
      15     H     0.45098  0.45098  0.00000  0.09805
      16     H     0.45342  0.45342  0.00000  0.09315
      17     H     0.44672  0.44672  0.00000  0.10656
      18     H     0.45196  0.45196  0.00000  0.09607

   Total alpha = 25.00000, Total beta = 25.00000, Total charge = -0.00000
