  ==> Input File <==

--------------------------------------------------------------------------
set {
	reference rhf
	basis 6-31G*
}

set_num_threads( 4 )
memory 2 gb

molecule MOL {
0 1

H	 2.465338	 -2.224223	 0.000000
O	 2.784187	 -1.332015	 0.000000
C	 1.765313	 -0.449364	 0.000000
C	 0.485506	 -0.951319	 -0.214656
C	 1.953554	 0.904095	 0.202112
H	 0.365302	 -2.007026	 -0.369230
C	 -0.598506	 -0.098177	 -0.226109
H	 2.928281	 1.317991	 0.369809
C	 0.842925	 1.732348	 0.184269
H	 -1.583040	 -0.494213	 -0.392558
C	 -0.435386	 1.266001	 -0.025469
N	 1.047622	 3.163307	 0.398609
H	 -1.266465	 1.940297	 -0.031555
O	 2.165699	 3.542357	 0.578213
O	 0.086549	 3.869223	 0.381729

	symmetry c1
}
set optking {
	frozen_dihedral = ("
		4 3 2 1
	")
}

ee = optimize('scf')
oeprop('DIPOLE', 'QUADRUPOLE', 'MULLIKEN_CHARGES')
f=open( 'psi4out.xyz', 'w' )
f.write( "15  " )
f.write( str(ee) + "\n" )
f.write( MOL.save_string_xyz() )
f.close()
--------------------------------------------------------------------------

    Molecular point group: c1
  Charge       = 0
  Multiplicity = 1
  Basis Set: 6-31G*
  Basis Set:
  @DF-RHF Final Energy:  -509.02421236350131
    Total Energy =                       -509.0242123635015332
    Molecular point group: c1
  Basis Set: 6-31G*
  Basis Set:
  Basis Set: 6-31G*
  Basis Set:
  @DF-RHF Final Energy:  -509.02650599918150
    Total Energy =                       -509.0265059991816088
  Basis Set: 6-31G*
  Basis Set:
  Basis Set: 6-31G*
  Basis Set:
  @DF-RHF Final Energy:  -509.02573855880519
    Total Energy =                       -509.0257385588051875
  Basis Set: 6-31G*
  Basis Set:
  Basis Set: 6-31G*
  Basis Set:
  @DF-RHF Final Energy:  -509.02610582944811
    Total Energy =                       -509.0261058294488521
  Basis Set: 6-31G*
  Basis Set:
  Basis Set: 6-31G*
  Basis Set:
  @DF-RHF Final Energy:  -509.02674835267936
    Total Energy =                       -509.0267483526793058
  Basis Set: 6-31G*
  Basis Set:
  Basis Set: 6-31G*
  Basis Set:
  @DF-RHF Final Energy:  -509.02675209001421
    Total Energy =                       -509.0267520900141562
  Basis Set: 6-31G*
  Basis Set:
  Charge       = 0
  Multiplicity = 1
  Basis Set: 6-31G*
  Basis Set:

    Orbital Energies (a.u.)
    -----------------------

    Doubly Occupied:

       1A    -20.615562     2A    -20.602220     3A    -20.601970
       4A    -15.856630     5A    -11.330596     6A    -11.309609
       7A    -11.268598     8A    -11.265999     9A    -11.263263
      10A    -11.262192    11A     -1.635667    12A     -1.436300
      13A     -1.418980    14A     -1.199810    15A     -1.094158
      16A     -1.047537    17A     -0.964447    18A     -0.863963
      19A     -0.848194    20A     -0.795248    21A     -0.734461
      22A     -0.732656    23A     -0.718248    24A     -0.710603
      25A     -0.678269    26A     -0.635356    27A     -0.617607
      28A     -0.594883    29A     -0.565734    30A     -0.537762
      31A     -0.514929    32A     -0.489926    33A     -0.487402
      34A     -0.451845    35A     -0.378728    36A     -0.342157

  @DF-RHF Final Energy:  -509.02675341212921

   => Energetics <=

    Nuclear Repulsion Energy =            503.3791115894209725
    One-Electron Energy =               -1693.0687122116162300
    Two-Electron Energy =                 680.6628472100659337
    DFT Exchange-Correlation Energy =       0.0000000000000000
    Empirical Dispersion Energy =           0.0000000000000000
    PCM Polarization Energy =               0.0000000000000000
    EFP Energy =                            0.0000000000000000
    Total Energy =                       -509.0267534121293238
    Molecular point group: c1
  Basis Set: 6-31G*
  Basis Set:

  -Total Gradient:
     Atom            X                  Y                   Z
    ------   -----------------  -----------------  -----------------
       1       -0.000011011765     0.000011273683     0.000820361886
       2        0.000038369201     0.000037879521    -0.001367298366
       3       -0.000111985287    -0.000076576504     0.001161954931
       4        0.000076689976     0.000112162250    -0.000603892253
       5       -0.000027859974    -0.000038369203    -0.000007360565
       6        0.000010531645     0.000004776474    -0.000000147962
       7        0.000023965556    -0.000050099862    -0.000002710584
       8        0.000002868855    -0.000017843655    -0.000002679245
       9       -0.000039538114    -0.000032431352    -0.000004134084
      10       -0.000008916263     0.000013071497     0.000000700511
      11        0.000051718465     0.000048549140     0.000013814799
      12        0.000051955268     0.000005359517    -0.000021075207
      13       -0.000004045476    -0.000018088051    -0.000003334252
      14       -0.000048308103    -0.000018422453     0.000003039483
      15       -0.000004433982     0.000018759004     0.000012760905

  **** Optimization is complete! (in 7 steps) ****
    Final optimized geometry and variables:
    Molecular point group: c1

    Geometry (in Angstrom), charge = 0, multiplicity = 1:

    H            1.533112897877    -3.394257257822    -0.134201934557
    O            1.775126779101    -2.478591949216    -0.128224773759
    C            0.684258679901    -1.685592764120    -0.138043110936
    C           -0.595664405088    -2.170670680208    -0.356741683328
    C            0.888039946858    -0.328962719297     0.063062959914
    H           -0.749631559700    -3.223546107666    -0.519809039156
    C           -1.676906947844    -1.303385451349    -0.367127700554
    H            1.874608536181     0.050836169303     0.229965539279
    C           -0.208884348070     0.505585710647     0.041716177024
    H           -2.664352212824    -1.691384294367    -0.535365365978
    C           -1.499032570346     0.052174476467    -0.168307959776
    N            0.006281703389     1.936578020527     0.254834201244
    H           -2.321505739253     0.736620893962    -0.175014722791
    O            1.125024850583     2.309191137280     0.434370450265
    O           -0.952264050647     2.647235868843     0.236535311711

  Mulliken Charges: (a.u.)
   Center  Symbol    Alpha    Beta     Spin     Total
       1     H     0.26861  0.26861  0.00000  0.46278
       2     O     4.37433  4.37433  0.00000 -0.74866
       3     C     2.79599  2.79599  0.00000  0.40801
       4     C     3.12842  3.12842  0.00000 -0.25685
       5     C     3.11323  3.11323  0.00000 -0.22646
       6     H     0.39378  0.39378  0.00000  0.21244
       7     C     3.09933  3.09933  0.00000 -0.19865
       8     H     0.35724  0.35724  0.00000  0.28551
       9     C     2.91266  2.91266  0.00000  0.17467
      10     H     0.38702  0.38702  0.00000  0.22597
      11     C     3.09797  3.09797  0.00000 -0.19595
      12     N     3.24119  3.24119  0.00000  0.51762
      13     H     0.36536  0.36536  0.00000  0.26929
      14     O     4.23195  4.23195  0.00000 -0.46391
      15     O     4.23291  4.23291  0.00000 -0.46582

   Total alpha = 36.00000, Total beta = 36.00000, Total charge =  0.00000
