  ==> Input File <==

--------------------------------------------------------------------------
set {
	reference rhf
	basis cc-pvtz
}

set_num_threads( 4 )
memory 2 gb

molecule MOL {
0 1

O	 2.041570	 1.654834	 -0.946471
C	 0.923178	 1.354155	 -0.640676
C	 -0.206360	 2.345449	 -0.831235
N	 0.622280	 0.144970	 -0.099307
H	 -0.696239	 2.570662	 0.107723
H	 0.221548	 3.247733	 -1.235302
H	 -0.952892	 1.965765	 -1.517897
C	 1.664396	 -0.854993	 0.000772
C	 -0.723263	 -0.345916	 0.080412
H	 2.462727	 -0.615153	 -0.690869
H	 1.261798	 -1.821849	 -0.240651
H	 2.081615	 -0.891605	 1.003877
H	 -0.757303	 -0.977100	 0.959095
H	 -1.423946	 0.457593	 0.229784
H	 -1.055832	 -0.939032	 -0.768502

	symmetry c1
}
set optking {
	frozen_dihedral = ("
		2 4 8 10
	")
}

ee = optimize('scf')
oeprop('DIPOLE', 'QUADRUPOLE', 'MULLIKEN_CHARGES')
f=open( 'psi4out.xyz', 'w' )
f.write( "15  " )
f.write( str(ee) + "\n" )
f.write( MOL.save_string_xyz() )
f.close()
--------------------------------------------------------------------------

    Molecular point group: c1
  Charge       = 0
  Multiplicity = 1
  Basis Set: CC-PVTZ
  Basis Set:
  @DF-RHF Final Energy:  -286.13425167006187
    Total Energy =                       -286.1342516700618148
    Molecular point group: c1
  Basis Set: CC-PVTZ
  Basis Set:
  Basis Set: CC-PVTZ
  Basis Set:
  @DF-RHF Final Energy:  -286.13474241496283
    Total Energy =                       -286.1347424149629433
  Basis Set: CC-PVTZ
  Basis Set:
  Basis Set: CC-PVTZ
  Basis Set:
  @DF-RHF Final Energy:  -286.13454504974965
    Total Energy =                       -286.1345450497495904
  Basis Set: CC-PVTZ
  Basis Set:
  Basis Set: CC-PVTZ
  Basis Set:
  @DF-RHF Final Energy:  -286.13518489424075
    Total Energy =                       -286.1351848942410356
  Basis Set: CC-PVTZ
  Basis Set:
  @DF-RHF Final Energy:  -286.13527451386534
    Total Energy =                       -286.1352745138656246
  @DF-RHF Final Energy:  -286.13533079117428
    Total Energy =                       -286.1353307911742263
  @DF-RHF Final Energy:  -286.13539403203191
    Total Energy =                       -286.1353940320321385
  @DF-RHF Final Energy:  -286.13544023194817
    Total Energy =                       -286.1354402319479391
  @DF-RHF Final Energy:  -286.13553042419244
    Total Energy =                       -286.1355304241926660
  Basis Set: CC-PVTZ
  Basis Set:
  @DF-RHF Final Energy:  -286.13559742356506
    Total Energy =                       -286.1355974235651729
  Basis Set: CC-PVTZ
  Basis Set:
  Basis Set: CC-PVTZ
  Basis Set:
  @DF-RHF Final Energy:  -286.13563576736391
    Total Energy =                       -286.1356357673636808
  Basis Set: CC-PVTZ
  Basis Set:
  Basis Set: CC-PVTZ
  Basis Set:
  @DF-RHF Final Energy:  -286.13564036803524
    Total Energy =                       -286.1356403680351832
  Basis Set: CC-PVTZ
  Basis Set:
  Charge       = 0
  Multiplicity = 1
  Basis Set: CC-PVTZ
  Basis Set:

    Orbital Energies (a.u.)
    -----------------------

    Doubly Occupied:

       1A    -20.503524     2A    -15.578522     3A    -11.335175
       4A    -11.263986     5A    -11.246416     6A    -11.226486
       7A     -1.387303     8A     -1.246397     9A     -1.015096
      10A     -0.973229    11A     -0.920960    12A     -0.739121
      13A     -0.683313    14A     -0.661992    15A     -0.653848
      16A     -0.590421    17A     -0.578180    18A     -0.567471
      19A     -0.561631    20A     -0.548414    21A     -0.530358
      22A     -0.507296    23A     -0.413684    24A     -0.370463

  @DF-RHF Final Energy:  -286.13564093834498

   => Energetics <=

    Nuclear Repulsion Energy =            252.8900599040277086
    One-Electron Energy =                -889.8448311802738999
    Two-Electron Energy =                 350.8191303379014698
    DFT Exchange-Correlation Energy =       0.0000000000000000
    Empirical Dispersion Energy =           0.0000000000000000
    PCM Polarization Energy =               0.0000000000000000
    EFP Energy =                            0.0000000000000000
    Total Energy =                       -286.1356409383447499
    Molecular point group: c1
  Basis Set: CC-PVTZ
  Basis Set:

  -Total Gradient:
     Atom            X                  Y                   Z
    ------   -----------------  -----------------  -----------------
       1       -0.000002536698     0.000017898677    -0.000021575205
       2       -0.000005300014    -0.000024735645     0.000077036049
       3       -0.000010563006    -0.000003354228    -0.000036137677
       4        0.000064834662     0.000058844659    -0.000076150756
       5        0.000018026543    -0.000005942396     0.000003716139
       6        0.000009218247    -0.000006886684     0.000000151837
       7       -0.000003943465     0.000022194892    -0.000007232796
       8       -0.000169747116    -0.000107027072     0.000003998732
       9        0.000021435539    -0.000024219715     0.000036578162
      10        0.000036632151     0.000028100837    -0.000032049431
      11        0.000023326094     0.000088040840     0.000020656644
      12        0.000002043943     0.000008973874     0.000023997767
      13       -0.000012672662    -0.000006854580     0.000013056683
      14        0.000037161859    -0.000024650429    -0.000000382601
      15       -0.000007916073    -0.000020383029    -0.000005663547

  **** Optimization is complete! (in 13 steps) ****
    Final optimized geometry and variables:
    Molecular point group: c1

    Geometry (in Angstrom), charge = 0, multiplicity = 1:

    O            1.339833093306     0.983438903911    -0.431834248584
    C            0.207516733010     0.651257887191    -0.225875076288
    C           -0.911681547530     1.664979770876    -0.347761209946
    N           -0.122880473533    -0.625210577790     0.099612202263
    H           -1.431213685285     1.794169306256     0.593661041120
    H           -0.466667089427     2.601768137076    -0.639078051959
    H           -1.636384141783     1.365531039277    -1.094375702982
    C            0.933830556422    -1.590844170059     0.313903330987
    C           -1.430331736058    -1.034544142287     0.553270238951
    H            1.838986811681    -1.244911060634    -0.151113079885
    H            0.648468703735    -2.542153294582    -0.118481634518
    H            1.120732947280    -1.740733860563     1.374143803160
    H           -1.491645875136    -1.059441787333     1.638831019086
    H           -2.202932868960    -0.382644357714     0.184020352457
    H           -1.639999646641    -2.031574553653     0.186770174377

  Mulliken Charges: (a.u.)
   Center  Symbol    Alpha    Beta     Spin     Total
       1     O     4.22088  4.22088  0.00000 -0.44176
       2     C     2.84562  2.84562  0.00000  0.30876
       3     C     3.16074  3.16074  0.00000 -0.32148
       4     N     3.56140  3.56140  0.00000 -0.12279
       5     H     0.44924  0.44924  0.00000  0.10151
       6     H     0.42859  0.42859  0.00000  0.14282
       7     H     0.44900  0.44900  0.00000  0.10200
       8     C     3.09896  3.09896  0.00000 -0.19791
       9     C     3.09533  3.09533  0.00000 -0.19065
      10     H     0.42628  0.42628  0.00000  0.14745
      11     H     0.45673  0.45673  0.00000  0.08653
      12     H     0.45782  0.45782  0.00000  0.08436
      13     H     0.45466  0.45466  0.00000  0.09067
      14     H     0.44503  0.44503  0.00000  0.10993
      15     H     0.44972  0.44972  0.00000  0.10055

   Total alpha = 24.00000, Total beta = 24.00000, Total charge = -0.00000
