  ==> Input File <==

--------------------------------------------------------------------------
set {
	reference rhf
	basis cc-pvtz
}

set_num_threads( 4 )
memory 2 gb

molecule MOL {
0 1

H	 -2.498963	 -0.741158	 -0.729149
O	 -2.346257	 -0.289210	 0.080372
C	 -1.183935	 0.486039	 -0.009831
C	 0.062853	 -0.375310	 0.027457
H	 -1.178881	 1.094526	 -0.908634
H	 -1.184406	 1.155156	 0.838676
O	 -0.327560	 -1.709110	 0.030044
H	 0.647059	 -0.145985	 0.920211
H	 0.685338	 -0.151339	 -0.836212
C	 0.721985	 -2.619973	 0.032139
H	 1.346645	 -2.504517	 0.915171
H	 0.298133	 -3.613469	 0.033313
H	 1.348183	 -2.506574	 -0.849641

	symmetry c1
}
set optking {
	frozen_dihedral = ("
		8 4 3 5
	")
}

ee = optimize('scf')
oeprop('DIPOLE', 'QUADRUPOLE', 'MULLIKEN_CHARGES')
f=open( 'psi4out.xyz', 'w' )
f.write( "13  " )
f.write( str(ee) + "\n" )
f.write( MOL.save_string_xyz() )
f.close()
--------------------------------------------------------------------------

    Molecular point group: c1
  Charge       = 0
  Multiplicity = 1
  Basis Set: CC-PVTZ
  Basis Set:
  @DF-RHF Final Energy:  -268.04923527707143
    Total Energy =                       -268.0492352770713751
    Molecular point group: c1
  Basis Set: CC-PVTZ
  Basis Set:
  Basis Set: CC-PVTZ
  Basis Set:
  @DF-RHF Final Energy:  -268.05103921642319
    Total Energy =                       -268.0510392164230211
  Basis Set: CC-PVTZ
  Basis Set:
  Basis Set: CC-PVTZ
  Basis Set:
  @DF-RHF Final Energy:  -268.05273878883281
    Total Energy =                       -268.0527387888326416
  Basis Set: CC-PVTZ
  Basis Set:
  Basis Set: CC-PVTZ
  Basis Set:
  @DF-RHF Final Energy:  -268.05320698222107
    Total Energy =                       -268.0532069822212407
  Basis Set: CC-PVTZ
  Basis Set:
  @DF-RHF Final Energy:  -268.05355882161831
    Total Energy =                       -268.0535588216181964
  @DF-RHF Final Energy:  -268.05435608432799
    Total Energy =                       -268.0543560843278215
  @DF-RHF Final Energy:  -268.05494978078241
    Total Energy =                       -268.0549497807824082
  Basis Set: CC-PVTZ
  Basis Set:
  @DF-RHF Final Energy:  -268.05509516340953
    Total Energy =                       -268.0550951634095327
  Basis Set: CC-PVTZ
  Basis Set:
  Basis Set: CC-PVTZ
  Basis Set:
  @DF-RHF Final Energy:  -268.05511959518503
    Total Energy =                       -268.0551195951850332
  Basis Set: CC-PVTZ
  Basis Set:
  Basis Set: CC-PVTZ
  Basis Set:
  @DF-RHF Final Energy:  -268.05512292539368
    Total Energy =                       -268.0551229253937890
  Basis Set: CC-PVTZ
  Basis Set:
  Charge       = 0
  Multiplicity = 1
  Basis Set: CC-PVTZ
  Basis Set:

    Orbital Energies (a.u.)
    -----------------------

    Doubly Occupied:

       1A    -20.568789     2A    -20.533216     3A    -11.278973
       4A    -11.276693     5A    -11.266844     6A     -1.405927
       7A     -1.351778     8A     -1.017159     9A     -0.929017
      10A     -0.837401    11A     -0.701016    12A     -0.692205
      13A     -0.672308    14A     -0.625279    15A     -0.607923
      16A     -0.570432    17A     -0.548451    18A     -0.500338
      19A     -0.475380    20A     -0.451472    21A     -0.413644

  @DF-RHF Final Energy:  -268.05512309643456

   => Energetics <=

    Nuclear Repulsion Energy =            195.1793845511513723
    One-Electron Energy =                -753.0205202460880400
    Two-Electron Energy =                 289.7860125985022250
    DFT Exchange-Correlation Energy =       0.0000000000000000
    Empirical Dispersion Energy =           0.0000000000000000
    PCM Polarization Energy =               0.0000000000000000
    EFP Energy =                            0.0000000000000000
    Total Energy =                       -268.0551230964343858
    Molecular point group: c1
  Basis Set: CC-PVTZ
  Basis Set:

  -Total Gradient:
     Atom            X                  Y                   Z
    ------   -----------------  -----------------  -----------------
       1        0.000012990711     0.000005833211    -0.000001689490
       2       -0.000024583396    -0.000003510870     0.000007252341
       3       -0.000922259029    -0.001430027560    -0.001666231249
       4       -0.001221808527    -0.001531598895     0.001455575259
       5        0.000996936816     0.001467308411     0.001162635807
       6       -0.000006390312    -0.000007671799    -0.000005314627
       7       -0.000016903475    -0.000005437035     0.000008236081
       8        0.001176392496     0.001497441655    -0.000961562081
       9       -0.000001961805     0.000005195780     0.000004190397
      10        0.000017795104    -0.000004260771    -0.000004243233
      11       -0.000003396907     0.000000339595     0.000000131233
      12       -0.000005426048     0.000005658967     0.000001224537
      13       -0.000001385630     0.000000729314    -0.000000204974

  **** Optimization is complete! (in 11 steps) ****
    Final optimized geometry and variables:
    Molecular point group: c1

    Geometry (in Angstrom), charge = 0, multiplicity = 1:

    H           -1.575143246880    -0.187144597058    -0.181535541059
    O           -1.751298211086     0.729618416757    -0.063574611033
    C           -0.543575432436     1.422305793178    -0.025036712646
    C            0.698771358731     0.506272526685     0.071786480656
    H           -0.452944088137     2.054069816833    -0.902342436112
    H           -0.561724525768     2.082935109441     0.833614307977
    O            0.309141704297    -0.828358242577    -0.015655191364
    H            1.229723069498     0.683725527531     1.003399015982
    H            1.389695654333     0.737864585161    -0.735243380263
    C            1.354667322987    -1.744530907516     0.042827502612
    H            1.896513766664    -1.663842593816     0.981330672382
    H            0.930190158177    -2.734579842484    -0.032482277808
    H            2.054076477036    -1.597376324616    -0.775887116647

  Mulliken Charges: (a.u.)
   Center  Symbol    Alpha    Beta     Spin     Total
       1     H     0.38090  0.38090  0.00000  0.23821
       2     O     4.20805  4.20805  0.00000 -0.41609
       3     C     2.95371  2.95371  0.00000  0.09259
       4     C     2.97224  2.97224  0.00000  0.05552
       5     H     0.47594  0.47594  0.00000  0.04813
       6     H     0.47236  0.47236  0.00000  0.05529
       7     O     4.18017  4.18017  0.00000 -0.36034
       8     H     0.47166  0.47166  0.00000  0.05668
       9     H     0.47224  0.47224  0.00000  0.05553
      10     C     3.03164  3.03164  0.00000 -0.06327
      11     H     0.46765  0.46765  0.00000  0.06470
      12     H     0.44546  0.44546  0.00000  0.10907
      13     H     0.46801  0.46801  0.00000  0.06399

   Total alpha = 21.00000, Total beta = 21.00000, Total charge =  0.00000
