  ==> Input File <==

--------------------------------------------------------------------------
set {
	reference rhf
	basis 6-31G*
}

set_num_threads( 1 )
memory 2 gb

molecule MOL {
0 1

H	 -1.836216	 1.387520	 -0.000064
C	 -1.301823	 0.443321	 -0.000031
O	 -0.003969	 0.658512	 0.000451
O	 -1.829879	 -0.616434	 -0.000857
C	 0.439050	 1.997504	 -0.218684
C	 1.951692	 1.988550	 -0.172257
H	 0.017308	 2.633925	 0.547096
H	 0.068244	 2.335490	 -1.176579
H	 2.305080	 1.639796	 0.791341
H	 2.330805	 2.992110	 -0.334656
H	 2.356425	 1.339948	 -0.940629

	symmetry c1
}
set optking {
	frozen_dihedral = ("
		7 5 3 2
	")
}

ee = energy('scf')
oeprop('DIPOLE', 'QUADRUPOLE', 'MULLIKEN_CHARGES')
f=open( 'psi4out.xyz', 'w' )
f.write( "11  " )
f.write( str(ee) + "\n" )
f.write( MOL.save_string_xyz() )
f.close()
--------------------------------------------------------------------------

    Molecular point group: c1

    Geometry (in Angstrom), charge = 0, multiplicity = 1:

       Center              X                  Y                   Z               Mass
    ------------   -----------------  -----------------  -----------------  -----------------
           H         -1.687876860703     0.492683721392     0.078550468144     1.007825032070
           C         -1.153483860703    -0.451515278608     0.078583468144    12.000000000000
           O          0.144370139297    -0.236324278608     0.079065468144    15.994914619560
           O         -1.681539860703    -1.511270278608     0.077757468144    15.994914619560
           C          0.587389139297     1.102667721392    -0.140069531856    12.000000000000
           C          2.100031139297     1.093713721392    -0.093642531856    12.000000000000
           H          0.165647139297     1.739088721392     0.625710468144     1.007825032070
           H          0.216583139297     1.440653721392    -1.097964531856     1.007825032070
           H          2.453419139297     0.744959721392     0.869955468144     1.007825032070
           H          2.479144139297     2.097273721392    -0.256041531856     1.007825032070
           H          2.504764139297     0.445111721392    -0.862014531856     1.007825032070

  Charge       = 0
  Multiplicity = 1
  Basis Set: 6-31G*
  Basis Set:

    Orbital Energies (a.u.)
    -----------------------

    Doubly Occupied:

       1A    -20.612931     2A    -20.555848     3A    -11.379508
       4A    -11.309233     5A    -11.236125     6A     -1.473087
       7A     -1.378691     8A     -1.058220     9A     -0.890789
      10A     -0.851649    11A     -0.735337    12A     -0.698097
      13A     -0.667407    14A     -0.598905    15A     -0.576608
      16A     -0.565294    17A     -0.531591    18A     -0.526606
      19A     -0.456955    20A     -0.449139

  @DF-RHF Final Energy:  -266.81810099721326

   => Energetics <=

    Nuclear Repulsion Energy =            176.1363912364390956
    One-Electron Energy =                -712.8049478671855468
    Two-Electron Energy =                 269.8504556335327607
    DFT Exchange-Correlation Energy =       0.0000000000000000
    Empirical Dispersion Energy =           0.0000000000000000
    PCM Polarization Energy =               0.0000000000000000
    EFP Energy =                            0.0000000000000000
    Total Energy =                       -266.8181009972137190

  Mulliken Charges: (a.u.)
   Center  Symbol    Alpha    Beta     Spin     Total
       1     H     0.43712  0.43712  0.00000  0.12575
       2     C     2.71187  2.71187  0.00000  0.57627
       3     O     4.28457  4.28457  0.00000 -0.56914
       4     O     4.25453  4.25453  0.00000 -0.50905
       5     C     3.01257  3.01257  0.00000 -0.02513
       6     C     3.24740  3.24740  0.00000 -0.49481
       7     H     0.41405  0.41405  0.00000  0.17189
       8     H     0.41263  0.41263  0.00000  0.17474
       9     H     0.40550  0.40550  0.00000  0.18901
      10     H     0.41510  0.41510  0.00000  0.16980
      11     H     0.40466  0.40466  0.00000  0.19067

   Total alpha = 20.00000, Total beta = 20.00000, Total charge =  0.00000
