                              Psi4 1.0.54 Driver

  ==> Input File <==

--------------------------------------------------------------------------
set {
	reference rhf
	basis cc-pvtz
}

set_num_threads( 4 )
memory 2 gb

molecule MOL {
0 1

H	 1.260270	 1.131559	 1.589715
C	 0.347629	 1.246253	 1.023464
O	 0.000000	 0.000000	 0.518769
H	 -0.425083	 1.639769	 1.680668
H	 0.518779	 1.965805	 0.225461
C	 -1.165153	 0.000000	 -0.236961
H	 -1.229451	 0.882440	 -0.870223
H	 -2.002557	 0.000000	 0.445289
H	 -1.229451	 -0.882440	 -0.870223

	symmetry c1
}
set optking {
	frozen_dihedral = ("
		2 3 6 7
	")
}

ee,wfn = optimize('scf', return_wfn=True)
oeprop( wfn, 'DIPOLE', 'QUADRUPOLE', 'MULLIKEN_CHARGES')
f=open( 'psi4out.xyz', 'w' )
f.write( "9  " )
f.write( str(ee) + "\n" )
f.write( MOL.save_string_xyz() )
f.close()
--------------------------------------------------------------------------

    Molecular point group: c1
  Charge       = 0
  Multiplicity = 1
  Basis Set: CC-PVTZ
  Basis Set:
  @DF-RHF Final Energy:  -154.12537038310120
    Total Energy =                       -154.1253703831013411
    Molecular point group: c1
  Basis Set: CC-PVTZ
  Basis Set:
  Basis Set: CC-PVTZ
  Basis Set:
  @DF-RHF Final Energy:  -154.12605953401362
    Total Energy =                       -154.1260595340136206
  Basis Set: CC-PVTZ
  Basis Set:
  Basis Set: CC-PVTZ
  Basis Set:
  @DF-RHF Final Energy:  -154.12622745160007
    Total Energy =                       -154.1262274516000161
  Basis Set: CC-PVTZ
  Basis Set:
  Charge       = 0
  Multiplicity = 1
  Basis Set: CC-PVTZ
  Basis Set:

    Orbital Energies (a.u.)
    -----------------------

    Doubly Occupied:

       1A    -20.549468     2A    -11.263399     3A    -11.263092
       4A     -1.381690     5A     -0.975848     6A     -0.872843
       7A     -0.662675     8A     -0.655881     9A     -0.646705
      10A     -0.552865    11A     -0.529760    12A     -0.477079
      13A     -0.418642

  @DF-RHF Final Energy:  -154.12622885161571

   => Energetics <=

    Nuclear Repulsion Energy =             84.8016928559270298
    One-Electron Energy =                -377.3559483806145636
    Two-Electron Energy =                 138.4280266730717983
    DFT Exchange-Correlation Energy =       0.0000000000000000
    Empirical Dispersion Energy =           0.0000000000000000
    PCM Polarization Energy =               0.0000000000000000
    EFP Energy =                            0.0000000000000000
    Total Energy =                       -154.1262288516157071
    Molecular point group: c1
  Basis Set: CC-PVTZ
  Basis Set:

  -Total Gradient:
     Atom            X                  Y                   Z
    ------   -----------------  -----------------  -----------------
       1       -0.000025692571    -0.000083136344    -0.000023141707
       2        0.000963878637     0.000491901210    -0.001783396401
       3       -0.001903009771    -0.000283821370     0.002904045620
       4        0.000008374008    -0.000034938416    -0.000000625184
       5        0.000012369209     0.000015039348    -0.000000112171
       6        0.001980540651    -0.001368884185    -0.003066406567
       7       -0.001140377945     0.001252573632     0.001896682739
       8        0.000033444213    -0.000011916325     0.000016712331
       9        0.000070473569     0.000023182449     0.000056241340

  **** Optimization is complete! (in 4 steps) ****
    Final optimized geometry and variables:
    Molecular point group: c1

    Geometry (in Angstrom), charge = 0, multiplicity = 1:

    H            1.553113050906     0.685972622075     1.153418228512
    C            0.639802372728     0.813629030272     0.590593879419
    O            0.278685388170    -0.426880637437     0.081120390250
    H           -0.124407271105     1.214380677044     1.253951610422
    H            0.815760352750     1.533609387635    -0.205455539995
    C           -0.894202438757    -0.424548953939    -0.665177799774
    H           -0.965698240336     0.458228936175    -1.295903108459
    H           -1.770044666685    -0.441219240145    -0.019587685803
    H           -0.902564569468    -1.308776700154    -1.285805003344

  Mulliken Charges: (a.u.)
   Center  Symbol    Alpha    Beta     Spin     Total
       1     H     0.44874  0.44874  0.00000  0.10253
       2     C     3.02193  3.02193  0.00000 -0.04387
       3     O     4.16863  4.16863  0.00000 -0.33725
       4     H     0.47377  0.47377  0.00000  0.05245
       5     H     0.47205  0.47205  0.00000  0.05590
       6     C     3.02050  3.02050  0.00000 -0.04100
       7     H     0.47555  0.47555  0.00000  0.04890
       8     H     0.46904  0.46904  0.00000  0.06192
       9     H     0.44979  0.44979  0.00000  0.10042

   Total alpha = 13.00000, Total beta = 13.00000, Total charge =  0.00000

*** Psi4 exiting successfully. Buy a developer a beer!
