  ==> Input File <==

--------------------------------------------------------------------------
set {
	reference rhf
	basis 6-31G*
}

set_num_threads( 4 )
memory 2 gb

molecule MOL {
0 1

O	 3.225979	 0.970355	 -0.599647
C	 2.701189	 0.057885	 -0.047330
C	 1.245376	 -0.013843	 0.345420
O	 3.347903	 -1.046386	 0.304773
C	 0.455112	 1.231400	 -0.050772
H	 0.838542	 -0.913825	 -0.103701
H	 1.208210	 -0.175333	 1.419774
C	 -0.998893	 1.219485	 0.433193
H	 0.482531	 1.345121	 -1.130325
H	 0.957290	 2.103070	 0.354729
C	 -1.883438	 0.145884	 -0.207175
H	 -1.431207	 2.195402	 0.224832
H	 -1.019646	 1.105716	 1.516076
C	 -3.362291	 0.300572	 0.153470
H	 -1.770988	 0.188594	 -1.289464
H	 -1.549921	 -0.844044	 0.095780
C	 -4.255039	 -0.769969	 -0.476668
H	 -3.707696	 1.284669	 -0.158753
H	 -3.474156	 0.268704	 1.236138
C	 -5.730781	 -0.606095	 -0.114686
H	 -4.143711	 -0.740182	 -1.558500
H	 -3.914034	 -1.754169	 -0.162268
H	 -6.337561	 -1.379196	 -0.575924
H	 -6.111550	 0.355471	 -0.447253
H	 -5.879910	 -0.665726	 0.959781
C	 4.728119	 -1.109107	 -0.004993
H	 4.882018	 -1.033965	 -1.071845
H	 5.068212	 -2.067527	 0.355250
H	 5.265056	 -0.311663	 0.488280

	symmetry c1
}
set optking {
	frozen_dihedral = ("
		15 11 8 5
	")
}

ee = optimize('scf')
oeprop('DIPOLE', 'QUADRUPOLE', 'MULLIKEN_CHARGES')
f=open( 'psi4out.xyz', 'w' )
f.write( "29  " )
f.write( str(ee) + "\n" )
f.write( MOL.save_string_xyz() )
f.close()
--------------------------------------------------------------------------

    Molecular point group: c1
  Charge       = 0
  Multiplicity = 1
  Basis Set: 6-31G*
  Basis Set:
  @DF-RHF Final Energy:  -501.04406064561840
    Total Energy =                       -501.0440606456174919
    Molecular point group: c1
  Basis Set: 6-31G*
  Basis Set:
  Basis Set: 6-31G*
  Basis Set:
  @DF-RHF Final Energy:  -501.04400357930251
    Total Energy =                       -501.0440035793023981
  Basis Set: 6-31G*
  Basis Set:
  Basis Set: 6-31G*
  Basis Set:
  @DF-RHF Final Energy:  -501.04406908524095
    Total Energy =                       -501.0440690852408352
  Basis Set: 6-31G*
  Basis Set:
  Basis Set: 6-31G*
  Basis Set:
  @DF-RHF Final Energy:  -501.04406783168213
    Total Energy =                       -501.0440678316815593
  Basis Set: 6-31G*
  Basis Set:
  Basis Set: 6-31G*
  Basis Set:
  @DF-RHF Final Energy:  -501.04405823318280
    Total Energy =                       -501.0440582331832502
  Basis Set: 6-31G*
  Basis Set:
  Basis Set: 6-31G*
  Basis Set:
  @DF-RHF Final Energy:  -501.04407124224565
    Total Energy =                       -501.0440712422450815
  Basis Set: 6-31G*
  Basis Set:
  Charge       = 0
  Multiplicity = 1
  Basis Set: 6-31G*
  Basis Set:

    Orbital Energies (a.u.)
    -----------------------

    Doubly Occupied:

       1A    -20.603349     2A    -20.545172     3A    -11.371971
       4A    -11.280645     5A    -11.234694     6A    -11.219084
       7A    -11.217600     8A    -11.216035     9A    -11.215870
      10A    -11.214507    11A    -11.209071    12A     -1.469043
      13A     -1.362485    14A     -1.098097    15A     -1.066807
      16A     -1.019450    17A     -0.977202    18A     -0.928571
      19A     -0.861682    20A     -0.799322    21A     -0.790555
      22A     -0.763686    23A     -0.700580    24A     -0.682319
      25A     -0.672131    26A     -0.651021    27A     -0.628762
      28A     -0.604681    29A     -0.594628    30A     -0.581031
      31A     -0.567058    32A     -0.549285    33A     -0.531618
      34A     -0.530453    35A     -0.516289    36A     -0.512111
      37A     -0.495849    38A     -0.477950    39A     -0.470245
      40A     -0.462295    41A     -0.458732    42A     -0.455832
      43A     -0.441217    44A     -0.435355

  @DF-RHF Final Energy:  -501.04407114016863

   => Energetics <=

    Nuclear Repulsion Energy =            610.2065510920685938
    One-Electron Energy =               -1891.5325701694091549
    Two-Electron Energy =                 780.2819479371717080
    DFT Exchange-Correlation Energy =       0.0000000000000000
    Empirical Dispersion Energy =           0.0000000000000000
    PCM Polarization Energy =               0.0000000000000000
    EFP Energy =                            0.0000000000000000
    Total Energy =                       -501.0440711401688532
    Molecular point group: c1
  Basis Set: 6-31G*
  Basis Set:

  -Total Gradient:
     Atom            X                  Y                   Z
    ------   -----------------  -----------------  -----------------
       1       -0.000009574786    -0.000015738025    -0.000035853200
       2        0.000024979256     0.000053066480     0.000100432894
       3       -0.000015053283    -0.000015747044    -0.000034139488
       4       -0.000011796026    -0.000013672548    -0.000027527048
       5       -0.000120232357     0.000315682218    -0.000369328595
       6       -0.000005939003    -0.000000902105     0.000002612978
       7        0.000006478448     0.000001810137    -0.000001818257
       8        0.000300078213    -0.000567105546     0.000547884063
       9        0.000004159951    -0.000000982497    -0.000002262267
      10        0.000003114254     0.000000705956     0.000001138675
      11       -0.000672369808     0.000698973123    -0.000254027080
      12        0.000009017060    -0.000015497341    -0.000007605931
      13       -0.000001063271     0.000012339130     0.000015758586
      14        0.000001993799    -0.000021425786     0.000022634950
      15        0.000505923166    -0.000442273040     0.000019607814
      16       -0.000013160572     0.000022331921     0.000006123637
      17       -0.000000377450    -0.000007755600     0.000015826144
      18       -0.000002644888    -0.000007707879     0.000005395572
      19        0.000001166183    -0.000003626484     0.000008076227
      20       -0.000003628000     0.000010937242    -0.000017974949
      21        0.000008971469    -0.000007137112     0.000003708278
      22       -0.000007005965    -0.000001082673     0.000009854387
      23       -0.000001713240     0.000004250324    -0.000005756595
      24       -0.000005018938     0.000004569206     0.000003659123
      25        0.000005086334    -0.000004241963    -0.000004263521
      26       -0.000000748407     0.000000381603    -0.000002141480
      27        0.000001297119    -0.000000296296     0.000000060906
      28       -0.000000580452    -0.000000209167    -0.000000302105
      29       -0.000001358822     0.000000353768     0.000000226282

  **** Optimization is complete! (in 7 steps) ****
    Final optimized geometry and variables:
    Molecular point group: c1

    Geometry (in Angstrom), charge = 0, multiplicity = 1:

    O            3.233948825008     0.952458255357    -0.560895512671
    C            2.702661591950     0.037068053788    -0.019711853528
    C            1.245191894498    -0.031062751335     0.367333886018
    O            3.342346027844    -1.074388746146     0.322451964132
    C            0.462830867096     1.222666322240    -0.017485118793
    H            0.834489167697    -0.923413942244    -0.093533708727
    H            1.203313869440    -0.204686190580     1.439630147535
    C           -0.993066901818     1.211402709627     0.460133152986
    H            0.494319117767     1.348011934779    -1.095581265293
    H            0.967340550371     2.087528801724     0.399561228508
    C           -1.873955051334     0.135912853048    -0.182921691652
    H           -1.422769435672     2.187157786048     0.245333478321
    H           -1.021074536666     1.101751739942     1.543179956452
    C           -3.353682695709     0.283596435665     0.176068985810
    H           -1.757451622638     0.175638088657    -1.264968944544
    H           -1.536118008738    -0.852343367948     0.121390262824
    C           -4.238944104984    -0.799053305926    -0.443792888821
    H           -3.705666765152     1.262233743808    -0.145631087878
    H           -3.465372679469     0.261463074068     1.259041483303
    C           -5.716775617548    -0.637786714522    -0.089226183485
    H           -4.123788763256    -0.782147481371    -1.525514185479
    H           -3.894369622944    -1.777584255402    -0.115938788326
    H           -6.318191648693    -1.419311600523    -0.543238953207
    H           -6.100847714917     0.317845070716    -0.434836386676
    H           -5.869571088797    -0.685077921783     0.985336413757
    C            4.723121991272    -1.141298896608     0.016086078722
    H            4.880625544625    -1.055652806550    -1.049452882008
    H            5.056940372452    -2.105326721495     0.367100008375
    H            5.262867977383    -0.352074478261     0.519411664779

  Mulliken Charges: (a.u.)
   Center  Symbol    Alpha    Beta     Spin     Total
       1     O     4.28598  4.28598  0.00000 -0.57196
       2     C     2.60485  2.60485  0.00000  0.79030
       3     C     3.20980  3.20980  0.00000 -0.41959
       4     O     4.30746  4.30746  0.00000 -0.61491
       5     C     3.15381  3.15381  0.00000 -0.30763
       6     H     0.39865  0.39865  0.00000  0.20271
       7     H     0.40128  0.40128  0.00000  0.19743
       8     C     3.15660  3.15660  0.00000 -0.31320
       9     H     0.41304  0.41304  0.00000  0.17392
      10     H     0.40881  0.40881  0.00000  0.18239
      11     C     3.15530  3.15530  0.00000 -0.31060
      12     H     0.41833  0.41833  0.00000  0.16334
      13     H     0.42358  0.42358  0.00000  0.15283
      14     C     3.15029  3.15029  0.00000 -0.30058
      15     H     0.42270  0.42270  0.00000  0.15460
      16     H     0.42358  0.42358  0.00000  0.15284
      17     C     3.15150  3.15150  0.00000 -0.30301
      18     H     0.42324  0.42324  0.00000  0.15352
      19     H     0.42390  0.42390  0.00000  0.15220
      20     C     3.23936  3.23936  0.00000 -0.47872
      21     H     0.42282  0.42282  0.00000  0.15436
      22     H     0.42339  0.42339  0.00000  0.15322
      23     H     0.41923  0.41923  0.00000  0.16154
      24     H     0.42153  0.42153  0.00000  0.15694
      25     H     0.42182  0.42182  0.00000  0.15637
      26     C     3.09240  3.09240  0.00000 -0.18481
      27     H     0.40909  0.40909  0.00000  0.18183
      28     H     0.40852  0.40852  0.00000  0.18296
      29     H     0.40913  0.40913  0.00000  0.18174

   Total alpha = 44.00000, Total beta = 44.00000, Total charge =  0.00000
