  ==> Input File <==

--------------------------------------------------------------------------
set {
	reference rhf
	basis cc-pvtz
}

set_num_threads( 4 )
memory 2 gb

molecule MOL {
0 1

H	 1.320286	 -1.585255	 0.001733
O	 1.583947	 -0.677544	 -0.001533
C	 0.489979	 0.078084	 0.002623
C	 -0.763662	 -0.754014	 0.000816
O	 0.539051	 1.259395	 -0.000088
C	 -2.038001	 0.074705	 -0.000833
H	 -0.712945	 -1.405886	 -0.864342
H	 -0.715137	 -1.405770	 0.866182
H	 -2.087267	 0.710831	 -0.874232
H	 -2.903419	 -0.576199	 -0.001922
H	 -2.089467	 0.710909	 0.872389

	symmetry c1
}
set optking {
	frozen_dihedral = ("
		1 2 3 5
	")
}

ee = optimize('scf')
oeprop('DIPOLE', 'QUADRUPOLE', 'MULLIKEN_CHARGES')
f=open( 'psi4out.xyz', 'w' )
f.write( "11  " )
f.write( str(ee) + "\n" )
f.write( MOL.save_string_xyz() )
f.close()
--------------------------------------------------------------------------

    Molecular point group: c1
  Charge       = 0
  Multiplicity = 1
  Basis Set: CC-PVTZ
  Basis Set:
  @DF-RHF Final Energy:  -266.94249939030419
    Total Energy =                       -266.9424993903041923
    Molecular point group: c1
  Basis Set: CC-PVTZ
  Basis Set:
  Basis Set: CC-PVTZ
  Basis Set:
  @DF-RHF Final Energy:  -266.94377202082262
    Total Energy =                       -266.9437720208227347
  Basis Set: CC-PVTZ
  Basis Set:
  Basis Set: CC-PVTZ
  Basis Set:
  @DF-RHF Final Energy:  -266.94369460981744
    Total Energy =                       -266.9436946098173848
  Basis Set: CC-PVTZ
  Basis Set:
  Basis Set: CC-PVTZ
  Basis Set:
  @DF-RHF Final Energy:  -266.94397004275868
    Total Energy =                       -266.9439700427586217
  Basis Set: CC-PVTZ
  Basis Set:
  Basis Set: CC-PVTZ
  Basis Set:
  @DF-RHF Final Energy:  -266.94397460551670
    Total Energy =                       -266.9439746055165870
  Basis Set: CC-PVTZ
  Basis Set:
  Charge       = 0
  Multiplicity = 1
  Basis Set: CC-PVTZ
  Basis Set:

    Orbital Energies (a.u.)
    -----------------------

    Doubly Occupied:

       1A    -20.605754     2A    -20.537094     3A    -11.373588
       4A    -11.254327     5A    -11.224582     6A     -1.472750
       7A     -1.374490     8A     -1.070151     9A     -0.909495
      10A     -0.832981    11A     -0.720237    12A     -0.669241
      13A     -0.662529    14A     -0.610877    15A     -0.600296
      16A     -0.535432    17A     -0.530115    18A     -0.514068
      19A     -0.482273    20A     -0.445322

  @DF-RHF Final Energy:  -266.94397583602245

   => Energetics <=

    Nuclear Repulsion Energy =            180.0989906790739781
    One-Electron Energy =                -721.2347293482769146
    Two-Electron Energy =                 274.1917628331804622
    DFT Exchange-Correlation Energy =       0.0000000000000000
    Empirical Dispersion Energy =           0.0000000000000000
    PCM Polarization Energy =               0.0000000000000000
    EFP Energy =                            0.0000000000000000
    Total Energy =                       -266.9439758360225028
    Molecular point group: c1
  Basis Set: CC-PVTZ
  Basis Set:

  -Total Gradient:
     Atom            X                  Y                   Z
    ------   -----------------  -----------------  -----------------
       1        0.000007721786    -0.000017807197    -0.000000035956
       2       -0.000009784141    -0.000004849363    -0.000000088011
       3        0.000034975606    -0.000022636926     0.000001059987
       4       -0.000004922546     0.000017273531    -0.000000384597
       5       -0.000021565070     0.000037628787    -0.000000318178
       6        0.000000429871    -0.000010169482     0.000000132687
       7       -0.000000576090     0.000001257760     0.000001326826
       8       -0.000000168133     0.000001731257    -0.000001504936
       9        0.000002012000    -0.000002271738     0.000001357492
      10       -0.000010404926     0.000002231857    -0.000000088471
      11        0.000002281642    -0.000002388489    -0.000001456842

  **** Optimization is complete! (in 6 steps) ****
    Final optimized geometry and variables:
    Molecular point group: c1

    Geometry (in Angstrom), charge = 0, multiplicity = 1:

    H            1.465946639955    -1.556808854900     0.001134023016
    O            1.631298126476    -0.630394451559     0.001014977060
    C            0.501270521582     0.080577355632     0.000250208633
    C           -0.770584586952    -0.738584758977    -0.000246807659
    O            0.541447419964     1.255818563682     0.000003702651
    C           -2.033121644517     0.107911682369    -0.001108391375
    H           -0.742113386682    -1.389777622319    -0.869687752004
    H           -0.743039467532    -1.389386450191     0.869516242300
    H           -2.069626929378     0.744300959449    -0.874399484657
    H           -2.908954436801    -0.529059117374    -0.001431306922
    H           -2.070553411317     0.744692076131     0.871858023425

  Mulliken Charges: (a.u.)
   Center  Symbol    Alpha    Beta     Spin     Total
       1     H     0.38805  0.38805  0.00000  0.22389
       2     O     4.14468  4.14468  0.00000 -0.28937
       3     C     2.80487  2.80487  0.00000  0.39026
       4     C     3.11802  3.11802  0.00000 -0.23605
       5     O     4.17600  4.17600  0.00000 -0.35199
       6     C     3.14058  3.14058  0.00000 -0.28115
       7     H     0.44371  0.44371  0.00000  0.11258
       8     H     0.44371  0.44371  0.00000  0.11258
       9     H     0.44495  0.44495  0.00000  0.11010
      10     H     0.45047  0.45047  0.00000  0.09905
      11     H     0.44495  0.44495  0.00000  0.11010

   Total alpha = 20.00000, Total beta = 20.00000, Total charge =  0.00000
