                              Psi4 1.0.54 Driver

  ==> Input File <==

--------------------------------------------------------------------------
set {
	reference rhf
	basis cc-pvtz
}

set_num_threads( 4 )
memory 2 gb

molecule MOL {
0 1

H	 0.935579	 1.508002	 -0.422717
O	 0.057669	 1.301365	 -0.158528
C	 0.004145	 -0.005141	 0.363049
C	 1.199168	 -0.827145	 -0.096690
C	 -1.316386	 -0.602081	 -0.083515
H	 0.012026	 0.043363	 1.450619
H	 1.216685	 -0.896776	 -1.178167
H	 2.129940	 -0.372354	 0.228035
H	 1.160783	 -1.829622	 0.314294
H	 -1.357882	 -0.655920	 -1.165207
H	 -2.140147	 0.011735	 0.257253
H	 -1.440790	 -1.601175	 0.317669

	symmetry c1
}
set optking {
	frozen_dihedral = ("
		1 2 3 4
	")
}

ee,wfn = optimize('scf', return_wfn=True)
oeprop( wfn, 'DIPOLE', 'QUADRUPOLE', 'MULLIKEN_CHARGES')
f=open( 'psi4out.xyz', 'w' )
f.write( "12  " )
f.write( str(ee) + "\n" )
f.write( MOL.save_string_xyz() )
f.close()
--------------------------------------------------------------------------

    Molecular point group: c1
  Charge       = 0
  Multiplicity = 1
  Basis Set: CC-PVTZ
  Basis Set:
  @DF-RHF Final Energy:  -193.19441441111388
    Total Energy =                       -193.1944144111139678
    Molecular point group: c1
  Basis Set: CC-PVTZ
  Basis Set:
  Basis Set: CC-PVTZ
  Basis Set:
  @DF-RHF Final Energy:  -193.19444883497684
    Total Energy =                       -193.1944488349767823
  Basis Set: CC-PVTZ
  Basis Set:
  Basis Set: CC-PVTZ
  Basis Set:
  @DF-RHF Final Energy:  -193.19459252403533
    Total Energy =                       -193.1945925240352437
  Basis Set: CC-PVTZ
  Basis Set:
  Basis Set: CC-PVTZ
  Basis Set:
  @DF-RHF Final Energy:  -193.19459389486013
    Total Energy =                       -193.1945938948602475
  Basis Set: CC-PVTZ
  Basis Set:
  Charge       = 0
  Multiplicity = 1
  Basis Set: CC-PVTZ
  Basis Set:

    Orbital Energies (a.u.)
    -----------------------

    Doubly Occupied:

       1A    -20.542678     2A    -11.273975     3A    -11.216975
       4A    -11.204984     5A     -1.363361     6A     -1.044137
       7A     -0.943863     8A     -0.809754     9A     -0.683567
      10A     -0.643473    11A     -0.608615    12A     -0.549150
      13A     -0.541649    14A     -0.523842    15A     -0.515053
      16A     -0.470040    17A     -0.430910

  @DF-RHF Final Energy:  -193.19459413659914

   => Energetics <=

    Nuclear Repulsion Energy =            135.7228705497041972
    One-Electron Energy =                -531.1028729639563153
    Two-Electron Energy =                 202.1854082776529538
    DFT Exchange-Correlation Energy =       0.0000000000000000
    Empirical Dispersion Energy =           0.0000000000000000
    PCM Polarization Energy =               0.0000000000000000
    EFP Energy =                            0.0000000000000000
    Total Energy =                       -193.1945941365991359
    Molecular point group: c1
  Basis Set: CC-PVTZ
  Basis Set:

  -Total Gradient:
     Atom            X                  Y                   Z
    ------   -----------------  -----------------  -----------------
       1       -0.000328534945    -0.000707884306    -0.001590422693
       2        0.000623610153     0.001046363549     0.002284235364
       3       -0.000862750583    -0.000728021436    -0.001539791554
       4        0.000567882656     0.000390491566     0.000867443109
       5       -0.000002328550     0.000009594533    -0.000015614797
       6        0.000004106699    -0.000002605294    -0.000000773384
       7       -0.000004307621    -0.000001109507     0.000003049444
       8        0.000005074552    -0.000000906113    -0.000005808888
       9        0.000000698968    -0.000005739341     0.000001819901
      10       -0.000006761968    -0.000002787868    -0.000004531501
      11       -0.000000632429    -0.000000106007    -0.000000425949
      12        0.000003943069     0.000002710224     0.000000820947

  **** Optimization is complete! (in 5 steps) ****
    Final optimized geometry and variables:
    Molecular point group: c1

    Geometry (in Angstrom), charge = 0, multiplicity = 1:

    H            0.901173011544     1.524365701819    -0.493684913530
    O            0.032268773781     1.303718743790    -0.215657423445
    C            0.006502604087     0.017476220398     0.360763495546
    C            1.212722383462    -0.805447713829    -0.062857314654
    C           -1.310200047477    -0.633631860529    -0.019066923819
    H            0.035985210407     0.130525121721     1.442319964916
    H            1.225621599214    -0.942242569779    -1.139259159001
    H            2.136194004679    -0.316676696318     0.232241824383
    H            1.194626260102    -1.783011919899     0.403618011760
    H           -1.362027978273    -0.789143767071    -1.090653208723
    H           -2.136717866286     0.002759726272     0.270344961451
    H           -1.423758645106    -1.590750554313     0.477621063290

  Mulliken Charges: (a.u.)
   Center  Symbol    Alpha    Beta     Spin     Total
       1     H     0.39237  0.39237  0.00000  0.21526
       2     O     4.20912  4.20912  0.00000 -0.41823
       3     C     2.91906  2.91906  0.00000  0.16189
       4     C     3.15608  3.15608  0.00000 -0.31215
       5     C     3.13829  3.13829  0.00000 -0.27658
       6     H     0.46539  0.46539  0.00000  0.06922
       7     H     0.45124  0.45124  0.00000  0.09751
       8     H     0.45383  0.45383  0.00000  0.09234
       9     H     0.45213  0.45213  0.00000  0.09573
      10     H     0.45655  0.45655  0.00000  0.08690
      11     H     0.44618  0.44618  0.00000  0.10765
      12     H     0.45977  0.45977  0.00000  0.08047

   Total alpha = 17.00000, Total beta = 17.00000, Total charge =  0.00000

*** Psi4 exiting successfully. Buy a developer a beer!
