  ==> Input File <==

--------------------------------------------------------------------------
set {
	reference rhf
	basis cc-pvtz
}

set_num_threads( 4 )
memory 2 gb

molecule MOL {
0 1

H	 -3.162190	 0.493205	 -0.000107
C	 -2.363908	 -0.234727	 0.000005
O	 -1.158738	 0.454634	 -0.000087
H	 -2.464314	 -0.863616	 -0.882153
H	 -2.464327	 -0.863359	 0.882345
C	 -0.028611	 -0.359694	 0.000037
C	 -0.444533	 -1.790845	 -0.274206
H	 0.479484	 -0.293937	 0.962406
H	 0.676259	 -0.021115	 -0.759677
C	 0.741286	 -2.748925	 -0.290507
H	 -1.159295	 -2.093945	 0.482875
H	 -0.964031	 -1.823293	 -1.225532
H	 1.261663	 -2.750215	 0.661487
H	 0.415956	 -3.762882	 -0.488175
H	 1.458077	 -2.477938	 -1.058521

	symmetry c1
}
set optking {
	frozen_dihedral = ("
		8 6 3 2
	")
}

ee = optimize('scf')
oeprop('DIPOLE', 'QUADRUPOLE', 'MULLIKEN_CHARGES')
f=open( 'psi4out.xyz', 'w' )
f.write( "15  " )
f.write( str(ee) + "\n" )
f.write( MOL.save_string_xyz() )
f.close()
--------------------------------------------------------------------------

    Molecular point group: c1
  Charge       = 0
  Multiplicity = 1
  Basis Set: CC-PVTZ
  Basis Set:
  @DF-RHF Final Energy:  -232.20159311996008
    Total Energy =                       -232.2015931199602505
    Molecular point group: c1
  Basis Set: CC-PVTZ
  Basis Set:
  Basis Set: CC-PVTZ
  Basis Set:
  @DF-RHF Final Energy:  -232.20545760004606
    Total Energy =                       -232.2054576000462021
  Basis Set: CC-PVTZ
  Basis Set:
  Basis Set: CC-PVTZ
  Basis Set:
  @DF-RHF Final Energy:  -232.21318015836303
    Total Energy =                       -232.2131801583631159
  Basis Set: CC-PVTZ
  Basis Set:
  Basis Set: CC-PVTZ
  Basis Set:
  @DF-RHF Final Energy:  -232.21644584811611
    Total Energy =                       -232.2164458481161660
  Basis Set: CC-PVTZ
  Basis Set:
  @DF-RHF Final Energy:  -232.21703943795544
    Total Energy =                       -232.2170394379555205
  Basis Set: CC-PVTZ
  Basis Set:
  @DF-RHF Final Energy:  -232.21773670555180
    Total Energy =                       -232.2177367055518289
  Basis Set: CC-PVTZ
  Basis Set:
  Basis Set: CC-PVTZ
  Basis Set:
  @DF-RHF Final Energy:  -232.21786384338091
    Total Energy =                       -232.2178638433808828
  Basis Set: CC-PVTZ
  Basis Set:
  Basis Set: CC-PVTZ
  Basis Set:
  @DF-RHF Final Energy:  -232.21787417444182
    Total Energy =                       -232.2178741744418176
  Basis Set: CC-PVTZ
  Basis Set:
  Charge       = 0
  Multiplicity = 1
  Basis Set: CC-PVTZ
  Basis Set:

    Orbital Energies (a.u.)
    -----------------------

    Doubly Occupied:

       1A    -20.540566     2A    -11.264028     3A    -11.259932
       4A    -11.220914     5A    -11.215318     6A     -1.369885
       7A     -1.060572     8A     -0.962916     9A     -0.886416
      10A     -0.797566    11A     -0.672369    12A     -0.660799
      13A     -0.627306    14A     -0.607302    15A     -0.556575
      16A     -0.544474    17A     -0.523756    18A     -0.500907
      19A     -0.492629    20A     -0.444822    21A     -0.403678

  @DF-RHF Final Energy:  -232.21787479997246

   => Energetics <=

    Nuclear Repulsion Energy =            192.2190098842252439
    One-Electron Energy =                -695.6483091192604888
    Two-Electron Energy =                 271.2114244350627814
    DFT Exchange-Correlation Energy =       0.0000000000000000
    Empirical Dispersion Energy =           0.0000000000000000
    PCM Polarization Energy =               0.0000000000000000
    EFP Energy =                            0.0000000000000000
    Total Energy =                       -232.2178747999724919
    Molecular point group: c1
  Basis Set: CC-PVTZ
  Basis Set:

  -Total Gradient:
     Atom            X                  Y                   Z
    ------   -----------------  -----------------  -----------------
       1        0.000018940839     0.000002577930    -0.000002286333
       2       -0.000070516815    -0.000137452928    -0.002923964925
       3        0.000619588706     0.000775957035     0.004111463270
       4       -0.000005911643     0.000003619938     0.000000222170
       5       -0.000014896505     0.000007134221    -0.000004068585
       6       -0.002519972811    -0.003070624002     0.000105810040
       7        0.000010730867    -0.000029083212     0.000019549950
       8        0.001974714712     0.002440176108    -0.001289794920
       9       -0.000011719781     0.000020383675    -0.000002232281
      10       -0.000014643308    -0.000006636716    -0.000011982431
      11        0.000004084227     0.000000302407    -0.000006702414
      12       -0.000000502392    -0.000000857887     0.000005782765
      13       -0.000001722183    -0.000001475467    -0.000000580946
      14        0.000007770968    -0.000003300638    -0.000002605773
      15        0.000004055117    -0.000000720462     0.000001390412

  **** Optimization is complete! (in 9 steps) ****
    Final optimized geometry and variables:
    Molecular point group: c1

    Geometry (in Angstrom), charge = 0, multiplicity = 1:

    H           -2.460240798694     1.767415878461     0.133361831954
    C           -1.818929850801     0.897707625496     0.148270341148
    O           -0.511739754492     1.368162937400     0.100466142169
    H           -2.070580437561     0.275641694678    -0.703899509174
    H           -2.026651024301     0.340104162349     1.057957884067
    C            0.571953483157     0.474803249614     0.105050155541
    C            0.282792752747    -0.989977425136    -0.191203857688
    H            1.081768921724     0.564966433202     1.061604954017
    H            1.267387241513     0.844214508337    -0.641511977535
    C            1.571082038748    -1.807739802808    -0.176300645864
    H           -0.407267362006    -1.398150012137     0.538301839556
    H           -0.190171061251    -1.083273900389    -1.162754960336
    H            2.057094993122    -1.757851729472     0.791971667156
    H            1.369467295526    -2.849970851856    -0.391235283846
    H            2.274637934903    -1.447146968977    -0.918697620420

  Mulliken Charges: (a.u.)
   Center  Symbol    Alpha    Beta     Spin     Total
       1     H     0.44216  0.44216  0.00000  0.11568
       2     C     3.03639  3.03639  0.00000 -0.07278
       3     O     4.18093  4.18093  0.00000 -0.36186
       4     H     0.46965  0.46965  0.00000  0.06071
       5     H     0.47194  0.47194  0.00000  0.05612
       6     C     2.95807  2.95807  0.00000  0.08387
       7     C     3.10457  3.10457  0.00000 -0.20914
       8     H     0.46772  0.46772  0.00000  0.06457
       9     H     0.46229  0.46229  0.00000  0.07542
      10     C     3.15246  3.15246  0.00000 -0.30492
      11     H     0.45043  0.45043  0.00000  0.09915
      12     H     0.44986  0.44986  0.00000  0.10028
      13     H     0.45386  0.45386  0.00000  0.09227
      14     H     0.44629  0.44629  0.00000  0.10742
      15     H     0.45339  0.45339  0.00000  0.09321

   Total alpha = 21.00000, Total beta = 21.00000, Total charge = -0.00000
