                              Psi4 1.0.54 Driver

  ==> Input File <==

--------------------------------------------------------------------------
set {
	reference rhf
	basis cc-pvtz
}

set_num_threads( 4 )
memory 2 gb

molecule MOL {
0 1

H	 -3.436473	 1.252944	 -1.023892
O	 -3.458596	 0.315260	 -0.960865
C	 -3.176635	 -0.080824	 0.355601
C	 -1.763371	 0.265266	 0.799691
H	 -3.321825	 -1.153438	 0.379502
H	 -3.895468	 0.357385	 1.043382
C	 -0.673390	 -0.426948	 -0.013392
H	 -1.631049	 1.344913	 0.747560
H	 -1.664587	 -0.001624	 1.849167
C	 0.737842	 -0.043159	 0.423759
H	 -0.806103	 -0.190518	 -1.063345
H	 -0.797221	 -1.503753	 0.074146
C	 1.568517	 0.558062	 -0.708301
H	 0.672023	 0.659455	 1.248921
H	 1.247429	 -0.922669	 0.811883
C	 3.016901	 0.884877	 -0.340574
H	 1.079937	 1.459193	 -1.071758
H	 1.574380	 -0.138947	 -1.541827
C	 3.177847	 2.000097	 0.689730
H	 3.544439	 1.169901	 -1.245693
H	 3.506060	 -0.014919	 0.023446
H	 2.692928	 2.911720	 0.355253
H	 4.225817	 2.225205	 0.851983
H	 2.751278	 1.731530	 1.648644

	symmetry c1
}
set optking {
	frozen_dihedral = ("
		13 10 7 11
	")
}

ee,wfn = optimize('scf', return_wfn=True)
oeprop( wfn, 'DIPOLE', 'QUADRUPOLE', 'MULLIKEN_CHARGES')
f=open( 'psi4out.xyz', 'w' )
f.write( "24  " )
f.write( str(ee) + "\n" )
f.write( MOL.save_string_xyz() )
f.close()
--------------------------------------------------------------------------

    Molecular point group: c1
  Charge       = 0
  Multiplicity = 1
  Basis Set: CC-PVTZ
  Basis Set:
  @DF-RHF Final Energy:  -349.37470406977013
    Total Energy =                       -349.3747040697701891
    Molecular point group: c1
  Basis Set: CC-PVTZ
  Basis Set:
  Basis Set: CC-PVTZ
  Basis Set:
  @DF-RHF Final Energy:  -349.37493111658921
    Total Energy =                       -349.3749311165895506
  Basis Set: CC-PVTZ
  Basis Set:
  Basis Set: CC-PVTZ
  Basis Set:
  @DF-RHF Final Energy:  -349.37499232039204
    Total Energy =                       -349.3749923203916978
  Basis Set: CC-PVTZ
  Basis Set:
  Basis Set: CC-PVTZ
  Basis Set:
  @DF-RHF Final Energy:  -349.37498226579021
    Total Energy =                       -349.3749822657900950
  Basis Set: CC-PVTZ
  Basis Set:
  Charge       = 0
  Multiplicity = 1
  Basis Set: CC-PVTZ
  Basis Set:

    Orbital Energies (a.u.)
    -----------------------

    Doubly Occupied:

       1A    -20.546343     2A    -11.265331     3A    -11.215673
       4A    -11.212172     5A    -11.210467     6A    -11.209644
       7A    -11.208688     8A    -11.205809     9A     -1.364129
      10A     -1.088287    11A     -1.048985    12A     -0.985752
      13A     -0.915850    14A     -0.852173    15A     -0.803625
      16A     -0.776733    17A     -0.682718    18A     -0.642770
      19A     -0.633009    20A     -0.616889    21A     -0.601940
      22A     -0.589310    23A     -0.556609    24A     -0.543023
      25A     -0.516639    26A     -0.510660    27A     -0.498950
      28A     -0.476346    29A     -0.466995    30A     -0.461142
      31A     -0.452109    32A     -0.449382    33A     -0.420658

  @DF-RHF Final Energy:  -349.37499621495959

   => Energetics <=

    Nuclear Repulsion Energy =            386.8577024981902355
    One-Electron Energy =               -1240.4077777537077054
    Two-Electron Energy =                 504.1750790405574207
    DFT Exchange-Correlation Energy =       0.0000000000000000
    Empirical Dispersion Energy =           0.0000000000000000
    PCM Polarization Energy =               0.0000000000000000
    EFP Energy =                            0.0000000000000000
    Total Energy =                       -349.3749962149599924
    Molecular point group: c1
  Basis Set: CC-PVTZ
  Basis Set:

  -Total Gradient:
     Atom            X                  Y                   Z
    ------   -----------------  -----------------  -----------------
       1       -0.000000341521    -0.000001945043     0.000006821983
       2        0.000000049333    -0.000014856010    -0.000004897891
       3       -0.000005655539     0.000015848163     0.000007386773
       4        0.000004473903    -0.000005019506     0.000002802418
       5       -0.000003575112     0.000006077593    -0.000010517078
       6       -0.000007593199    -0.000002493586     0.000000101111
       7       -0.000231346150     0.000776337961     0.000233955902
       8        0.000002549398    -0.000002995211     0.000000249983
       9        0.000001078197     0.000000851369    -0.000000071388
      10        0.000188209527    -0.000628053670    -0.000201322835
      11        0.000179458019    -0.000498088303    -0.000144872149
      12       -0.000001274462    -0.000003087878     0.000003001497
      13       -0.000143756894     0.000352754495     0.000100008505
      14       -0.000007174504     0.000002545405     0.000003849513
      15        0.000004049981    -0.000005356153     0.000000435012
      16        0.000015694241     0.000011862186     0.000003745090
      17        0.000002929252    -0.000003345328    -0.000001430876
      18       -0.000008760868    -0.000001661614     0.000000322311
      19        0.000001248439    -0.000011269802    -0.000003207357
      20        0.000007635800     0.000003227523     0.000002994491
      21       -0.000000250911     0.000005339641    -0.000002402912
      22        0.000002641455    -0.000001506071    -0.000000299839
      23       -0.000000401329     0.000002679131     0.000002490182
      24        0.000000112950     0.000002154707     0.000000857555

  **** Optimization is complete! (in 5 steps) ****
    Final optimized geometry and variables:
    Molecular point group: c1

    Geometry (in Angstrom), charge = 0, multiplicity = 1:

    H           -3.320733001760     0.785477889541    -1.041130205522
    O           -3.340404279165    -0.152211754597    -0.977564167915
    C           -3.055403551890    -0.546728356570     0.338706338669
    C           -1.643389596436    -0.194871912343     0.781241281798
    H           -3.195979579084    -1.619995049126     0.362618960852
    H           -3.775548014144    -0.111748953089     1.027253927128
    C           -0.549926947711    -0.878586343541    -0.035984187101
    H           -1.514710441965     0.885621339736     0.731676460455
    H           -1.540469354713    -0.463825471964     1.829776468726
    C            0.878829358410    -0.493609916089     0.400615112974
    H           -0.693296795536    -0.639978157868    -1.082702424341
    H           -0.681699841275    -1.953472399293     0.041301092667
    C            1.711215529993     0.113219153715    -0.728813255618
    H            0.825346768041     0.207327461169     1.226473847317
    H            1.395492113428    -1.367392745167     0.785823969241
    C            3.154385967095     0.454631009215    -0.355341894016
    H            1.214565339672     1.008640872963    -1.097072202037
    H            1.725974066782    -0.585719601007    -1.560450953320
    C            3.301424727239     1.576710153348     0.669781947353
    H            3.684268075539     0.739264205753    -1.259262620759
    H            3.649116456428    -0.439195539239     0.015788728558
    H            2.808888966433     2.482014703518     0.329065145984
    H            4.346646487203     1.812977286342     0.833719746544
    H            2.874937008023     1.309416010336     1.629021116074

  Mulliken Charges: (a.u.)
   Center  Symbol    Alpha    Beta     Spin     Total
       1     H     0.39538  0.39538  0.00000  0.20924
       2     O     4.20307  4.20307  0.00000 -0.40614
       3     C     2.97679  2.97679  0.00000  0.04642
       4     C     3.10270  3.10270  0.00000 -0.20540
       5     H     0.45930  0.45930  0.00000  0.08141
       6     H     0.46059  0.46059  0.00000  0.07881
       7     C     3.09411  3.09411  0.00000 -0.18822
       8     H     0.45853  0.45853  0.00000  0.08294
       9     H     0.45187  0.45187  0.00000  0.09626
      10     C     3.09964  3.09964  0.00000 -0.19929
      11     H     0.44659  0.44659  0.00000  0.10682
      12     H     0.44994  0.44994  0.00000  0.10012
      13     C     3.09330  3.09330  0.00000 -0.18661
      14     H     0.45303  0.45303  0.00000  0.09395
      15     H     0.44952  0.44952  0.00000  0.10096
      16     C     3.09062  3.09062  0.00000 -0.18124
      17     H     0.45511  0.45511  0.00000  0.08978
      18     H     0.44771  0.44771  0.00000  0.10458
      19     C     3.15301  3.15301  0.00000 -0.30601
      20     H     0.44867  0.44867  0.00000  0.10266
      21     H     0.45490  0.45490  0.00000  0.09020
      22     H     0.45537  0.45537  0.00000  0.08926
      23     H     0.44629  0.44629  0.00000  0.10742
      24     H     0.45396  0.45396  0.00000  0.09209

   Total alpha = 33.00000, Total beta = 33.00000, Total charge = -0.00000

*** Psi4 exiting successfully. Buy a developer a beer!
