  ==> Input File <==

--------------------------------------------------------------------------
set {
	reference rhf
	basis 6-31G*
}

set_num_threads( 4 )
memory 2 gb

molecule MOL {
0 1

H	 -2.689854	 0.958294	 -2.128354
C	 -1.978921	 0.292063	 -1.679610
C	 -2.076860	 -0.007332	 -0.404944
H	 -1.198362	 -0.115464	 -2.294069
O	 -1.180634	 -0.819263	 0.215062
H	 -2.855173	 0.384412	 0.225897
C	 0.051604	 -1.018856	 -0.387932
C	 1.043764	 0.054862	 -0.001873
H	 -0.017620	 -1.041351	 -1.469781
H	 0.437898	 -1.966374	 -0.042284
F	 2.212596	 -0.199467	 -0.571921
F	 0.652529	 1.252447	 -0.405055
F	 1.230877	 0.110694	 1.300533

	symmetry c1
}
set optking {
	frozen_dihedral = ("
		6 3 5 7
	")
}

ee = optimize('scf')
oeprop('DIPOLE', 'QUADRUPOLE', 'MULLIKEN_CHARGES')
f=open( 'psi4out.xyz', 'w' )
f.write( "13  " )
f.write( str(ee) + "\n" )
f.write( MOL.save_string_xyz() )
f.close()
--------------------------------------------------------------------------

    Molecular point group: c1
  Charge       = 0
  Multiplicity = 1
  Basis Set: 6-31G*
  Basis Set:
  @DF-RHF Final Energy:  -527.52648341365716
    Total Energy =                       -527.5264834136567060
    Molecular point group: c1
  Basis Set: 6-31G*
  Basis Set:
  Basis Set: 6-31G*
  Basis Set:
  @DF-RHF Final Energy:  -527.53038221058159
    Total Energy =                       -527.5303822105813651
  Basis Set: 6-31G*
  Basis Set:
  Basis Set: 6-31G*
  Basis Set:
  @DF-RHF Final Energy:  -527.53287777173000
    Total Energy =                       -527.5328777717297726
  Basis Set: 6-31G*
  Basis Set:
  Basis Set: 6-31G*
  Basis Set:
  @DF-RHF Final Energy:  -527.53350528782994
    Total Energy =                       -527.5335052878301667
  Basis Set: 6-31G*
  Basis Set:
  @DF-RHF Final Energy:  -527.53371590765209
    Total Energy =                       -527.5337159076523221
  @DF-RHF Final Energy:  -527.53380765638167
    Total Energy =                       -527.5338076563817822
  @DF-RHF Final Energy:  -527.53386829771830
    Total Energy =                       -527.5338682977185272
  Basis Set: 6-31G*
  Basis Set:
  @DF-RHF Final Energy:  -527.53391036502717
    Total Energy =                       -527.5339103650268271
  Basis Set: 6-31G*
  Basis Set:
  Basis Set: 6-31G*
  Basis Set:
  @DF-RHF Final Energy:  -527.53395770074439
    Total Energy =                       -527.5339577007443950
  Basis Set: 6-31G*
  Basis Set:
  Basis Set: 6-31G*
  Basis Set:
  @DF-RHF Final Energy:  -527.53396266735388
    Total Energy =                       -527.5339626673537623
  Basis Set: 6-31G*
  Basis Set:
  Charge       = 0
  Multiplicity = 1
  Basis Set: 6-31G*
  Basis Set:

    Orbital Energies (a.u.)
    -----------------------

    Doubly Occupied:

       1A    -26.342039     2A    -26.339607     3A    -26.338038
       4A    -20.610209     5A    -11.501240     6A    -11.316300
       7A    -11.304044     8A    -11.221533     9A     -1.739035
      10A     -1.637059    11A     -1.635183    12A     -1.437317
      13A     -1.080449    14A     -1.023340    15A     -0.931569
      16A     -0.838200    17A     -0.828668    18A     -0.825185
      19A     -0.765071    20A     -0.727604    21A     -0.708828
      22A     -0.699319    23A     -0.675856    24A     -0.658037
      25A     -0.655694    26A     -0.640134    27A     -0.636575
      28A     -0.594069    29A     -0.550464    30A     -0.529141
      31A     -0.509448    32A     -0.358320

  @DF-RHF Final Energy:  -527.53396319904277

   => Energetics <=

    Nuclear Repulsion Energy =            417.0846095686351873
    One-Electron Energy =               -1557.9219946964813062
    Two-Electron Energy =                 613.3034219288038003
    DFT Exchange-Correlation Energy =       0.0000000000000000
    Empirical Dispersion Energy =           0.0000000000000000
    PCM Polarization Energy =               0.0000000000000000
    EFP Energy =                            0.0000000000000000
    Total Energy =                       -527.5339631990423186
    Molecular point group: c1
  Basis Set: 6-31G*
  Basis Set:

  -Total Gradient:
     Atom            X                  Y                   Z
    ------   -----------------  -----------------  -----------------
       1       -0.000000691265    -0.000000806513     0.000004146303
       2        0.000008917671     0.000003702522     0.000004691945
       3       -0.001070956869    -0.001309460033     0.000031382349
       4        0.000004439285    -0.000001805611    -0.000000873830
       5       -0.000684353099    -0.001764642327    -0.001060420542
       6        0.001148394330     0.001648893291     0.000289681220
       7        0.000641960971     0.001445620244     0.000741822909
       8        0.000028540431     0.000069068529    -0.000005743820
       9        0.000000277722    -0.000005324238    -0.000001960835
      10       -0.000005493210    -0.000003995381     0.000005489751
      11       -0.000000474197    -0.000032234212     0.000002282490
      12       -0.000066989165    -0.000007923849    -0.000028817004
      13       -0.000003572595    -0.000041092414     0.000018319071

  **** Optimization is complete! (in 11 steps) ****
    Final optimized geometry and variables:
    Molecular point group: c1

    Geometry (in Angstrom), charge = 0, multiplicity = 1:

    H           -3.131271273282     0.914687906696    -1.928902559133
    C           -2.317079906606     0.306172376626    -1.585911067943
    C           -2.234294151983     0.035335073456    -0.300655653178
    H           -1.618249240329    -0.031726108569    -2.326568264621
    O           -1.318358798914    -0.716859043662     0.359413408643
    H           -2.953591197594     0.413085953365     0.400062435282
    C           -0.071695070664    -0.987575940935    -0.192889898823
    C            0.944753412369     0.043136851900     0.242716755184
    H           -0.080299419756    -1.030761744915    -1.271417156085
    H            0.250730640958    -1.945135746207     0.188998774857
    F            2.125874482801    -0.262081638161    -0.276232967437
    F            0.630145557872     1.260269064139    -0.158782009418
    F            1.076852023732     0.075285604484     1.554506797537

  Mulliken Charges: (a.u.)
   Center  Symbol    Alpha    Beta     Spin     Total
       1     H     0.40370  0.40370  0.00000  0.19261
       2     C     3.24042  3.24042  0.00000 -0.48084
       3     C     2.89659  2.89659  0.00000  0.20683
       4     H     0.40875  0.40875  0.00000  0.18250
       5     O     4.30953  4.30953  0.00000 -0.61905
       6     H     0.39673  0.39673  0.00000  0.20653
       7     C     3.05628  3.05628  0.00000 -0.11256
       8     C     2.45725  2.45725  0.00000  1.08549
       9     H     0.40226  0.40226  0.00000  0.19547
      10     H     0.39202  0.39202  0.00000  0.21596
      11     F     4.68349  4.68349  0.00000 -0.36698
      12     F     4.67650  4.67650  0.00000 -0.35301
      13     F     4.67647  4.67647  0.00000 -0.35294

   Total alpha = 32.00000, Total beta = 32.00000, Total charge =  0.00000
