  ==> Input File <==

--------------------------------------------------------------------------
set {
	reference rhf
	basis 6-31G*
}

set_num_threads( 1 )
memory 2 gb

molecule MOL {
0 1

H	 -0.688875	 1.759616	 -4.777973
C	 -0.295614	 1.471919	 -3.819140
C	 -0.569611	 2.243461	 -2.699856
C	 0.483388	 0.331128	 -3.706513
H	 -1.173897	 3.127957	 -2.788586
C	 -0.063604	 1.872899	 -1.467329
H	 0.694729	 -0.265711	 -4.575262
C	 0.990973	 -0.041743	 -2.473753
H	 -0.265369	 2.457847	 -0.590518
C	 0.718174	 0.729398	 -1.350061
H	 1.594260	 -0.923755	 -2.381986
C	 1.239129	 0.373821	 0.000060
O	 1.970282	 -0.730723	 0.000018
O	 1.026216	 1.009975	 0.984355
C	 3.377318	 -0.566646	 -0.000065
H	 3.695437	 -0.028981	 -0.881264
H	 3.789299	 -1.563704	 0.000236
H	 3.695516	 -0.028316	 0.880770

	symmetry c1
}
set optking {
	frozen_dihedral = ("
		12 13 15 16,
		13 12 10 6
	")
}

ee = energy('scf')
oeprop('DIPOLE', 'QUADRUPOLE', 'MULLIKEN_CHARGES')
f=open( 'psi4out.xyz', 'w' )
f.write( "18  " )
f.write( str(ee) + "\n" )
f.write( MOL.save_string_xyz() )
f.close()
--------------------------------------------------------------------------

    Molecular point group: c1

    Geometry (in Angstrom), charge = 0, multiplicity = 1:

       Center              X                  Y                   Z               Mass
    ------------   -----------------  -----------------  -----------------  -----------------
           H         -1.643803997744     1.127448714426    -3.413147853575     1.007825032070
           C         -1.250542997744     0.839751714426    -2.454314853575    12.000000000000
           C         -1.524539997744     1.611293714426    -1.335030853575    12.000000000000
           C         -0.471540997744    -0.301039285574    -2.341687853575    12.000000000000
           H         -2.128825997744     2.495789714426    -1.423760853575     1.007825032070
           C         -1.018532997744     1.240731714426    -0.102503853575    12.000000000000
           H         -0.260199997744    -0.897878285574    -3.210436853575     1.007825032070
           C          0.036044002256    -0.673910285574    -1.108927853575    12.000000000000
           H         -1.220297997744     1.825679714426     0.774307146425     1.007825032070
           C         -0.236754997744     0.097230714426     0.014764146425    12.000000000000
           H          0.639331002256    -1.555922285574    -1.017160853575     1.007825032070
           C          0.284200002256    -0.258346285574     1.364885146425    12.000000000000
           O          1.015353002256    -1.362890285574     1.364843146425    15.994914619560
           O          0.071287002256     0.377807714426     2.349180146425    15.994914619560
           C          2.422389002256    -1.198813285574     1.364760146425    12.000000000000
           H          2.740508002256    -0.661148285574     0.483561146425     1.007825032070
           H          2.834370002256    -2.195871285574     1.365061146425     1.007825032070
           H          2.740587002256    -0.660483285574     2.245595146425     1.007825032070

  Charge       = 0
  Multiplicity = 1
  Basis Set: 6-31G*
  Basis Set:

    Orbital Energies (a.u.)
    -----------------------

    Doubly Occupied:

       1A    -20.589936     2A    -20.552331     3A    -11.378028
       4A    -11.293510     5A    -11.248676     6A    -11.248588
       7A    -11.245577     8A    -11.243710     9A    -11.240915
      10A    -11.239444    11A     -1.466384    12A     -1.366707
      13A     -1.167757    14A     -1.045979    15A     -1.027836
      16A     -0.981280    17A     -0.869027    18A     -0.838319
      19A     -0.780411    20A     -0.739663    21A     -0.684214
      22A     -0.676858    23A     -0.666300    24A     -0.638260
      25A     -0.626682    26A     -0.607256    27A     -0.596665
      28A     -0.561453    29A     -0.526725    30A     -0.520317
      31A     -0.502927    32A     -0.492189    33A     -0.462404
      34A     -0.442399    35A     -0.347786    36A     -0.343917

  @DF-RHF Final Energy:  -457.33160682629614

   => Energetics <=

    Nuclear Repulsion Energy =            496.5431583602749015
    One-Electron Energy =               -1607.2285889789256998
    Two-Electron Energy =                 653.3538237923553424
    DFT Exchange-Correlation Energy =       0.0000000000000000
    Empirical Dispersion Energy =           0.0000000000000000
    PCM Polarization Energy =               0.0000000000000000
    EFP Energy =                            0.0000000000000000
    Total Energy =                       -457.3316068262954559

  Mulliken Charges: (a.u.)
   Center  Symbol    Alpha    Beta     Spin     Total
       1     H     0.39462  0.39462  0.00000  0.21075
       2     C     3.08996  3.08996  0.00000 -0.17992
       3     C     3.10673  3.10673  0.00000 -0.21345
       4     C     3.10652  3.10652  0.00000 -0.21304
       5     H     0.39478  0.39478  0.00000  0.21045
       6     C     3.08544  3.08544  0.00000 -0.17088
       7     H     0.39590  0.39590  0.00000  0.20820
       8     C     3.09150  3.09150  0.00000 -0.18301
       9     H     0.37564  0.37564  0.00000  0.24872
      10     C     3.07740  3.07740  0.00000 -0.15480
      11     H     0.38434  0.38434  0.00000  0.23131
      12     C     2.59214  2.59214  0.00000  0.81572
      13     O     4.31765  4.31765  0.00000 -0.63531
      14     O     4.26761  4.26761  0.00000 -0.53522
      15     C     3.09538  3.09538  0.00000 -0.19076
      16     H     0.41739  0.41739  0.00000  0.16522
      17     H     0.40275  0.40275  0.00000  0.19450
      18     H     0.40425  0.40425  0.00000  0.19150

   Total alpha = 36.00000, Total beta = 36.00000, Total charge =  0.00000
