                              Psi4 1.0.54 Driver

  ==> Input File <==

--------------------------------------------------------------------------
set {
	reference rhf
	basis cc-pvtz
}

set_num_threads( 4 )
memory 2 gb

molecule MOL {
0 1

H	 2.476562	 -1.305901	 1.067059
N	 1.497938	 -1.119059	 1.084172
C	 0.798347	 -1.966006	 0.139135
C	 1.240213	 0.284746	 0.833669
H	 0.996476	 -3.003535	 0.379200
H	 1.119557	 -1.792240	 -0.889577
C	 -0.693217	 -1.700449	 0.232909
H	 1.758528	 0.878165	 1.577009
H	 1.589341	 0.600716	 -0.151162
C	 -0.251930	 0.547355	 0.926533
H	 -1.050327	 -2.021419	 1.215783
H	 -1.212914	 -2.289454	 -0.513487
N	 -0.976577	 -0.298712	 -0.000000
H	 -0.452548	 1.583652	 0.681671
H	 -0.578639	 0.381239	 1.957192
C	 -2.391156	 -0.021003	 -0.000000
H	 -2.853954	 -0.458728	 -0.875714
H	 -2.853954	 -0.458728	 0.875714
H	 -2.614037	 1.049773	 -0.000000

	symmetry c1
}
set optking {
	frozen_dihedral = ("
		7 13 16 19
	")
}

ee,wfn = optimize('scf', return_wfn=True)
oeprop( wfn, 'DIPOLE', 'QUADRUPOLE', 'MULLIKEN_CHARGES')
f=open( 'psi4out.xyz', 'w' )
f.write( "19  " )
f.write( str(ee) + "\n" )
f.write( MOL.save_string_xyz() )
f.close()
--------------------------------------------------------------------------

    Molecular point group: c1
  Charge       = 0
  Multiplicity = 1
  Basis Set: CC-PVTZ
  Basis Set:
  @DF-RHF Final Energy:  -305.30763887517685
    Total Energy =                       -305.3076388751769628
    Molecular point group: c1
  Basis Set: CC-PVTZ
  Basis Set:
  Basis Set: CC-PVTZ
  Basis Set:
  @DF-RHF Final Energy:  -305.30829574338281
    Total Energy =                       -305.3082957433831552
  Basis Set: CC-PVTZ
  Basis Set:
  Basis Set: CC-PVTZ
  Basis Set:
  @DF-RHF Final Energy:  -305.30838883512484
    Total Energy =                       -305.3083888351250152
  Basis Set: CC-PVTZ
  Basis Set:
  Charge       = 0
  Multiplicity = 1
  Basis Set: CC-PVTZ
  Basis Set:

    Orbital Energies (a.u.)
    -----------------------

    Doubly Occupied:

       1A    -15.536978     2A    -15.531189     3A    -11.237277
       4A    -11.237230     5A    -11.235955     6A    -11.235775
       7A    -11.233257     8A     -1.249413     9A     -1.187830
      10A     -1.023831    11A     -0.965675    12A     -0.861586
      13A     -0.858404    14A     -0.758091    15A     -0.692851
      16A     -0.634636    17A     -0.627425    18A     -0.609511
      19A     -0.605556    20A     -0.581289    21A     -0.543811
      22A     -0.529273    23A     -0.512779    24A     -0.490399
      25A     -0.467366    26A     -0.458134    27A     -0.365981
      28A     -0.349123

  @DF-RHF Final Energy:  -305.30839018325071

   => Energetics <=

    Nuclear Repulsion Energy =            340.3549270909801407
    One-Electron Energy =               -1088.0853832260941090
    Two-Electron Energy =                 442.4220659518631464
    DFT Exchange-Correlation Energy =       0.0000000000000000
    Empirical Dispersion Energy =           0.0000000000000000
    PCM Polarization Energy =               0.0000000000000000
    EFP Energy =                            0.0000000000000000
    Total Energy =                       -305.3083901832508218
    Molecular point group: c1
  Basis Set: CC-PVTZ
  Basis Set:

  -Total Gradient:
     Atom            X                  Y                   Z
    ------   -----------------  -----------------  -----------------
       1        0.000004970835     0.000022266277     0.000014601428
       2        0.000012857452    -0.000005960023     0.000011069276
       3       -0.000005628659     0.000124624285    -0.000059427039
       4        0.000027379430     0.000022878305     0.000070601977
       5       -0.000052357198     0.000031895631    -0.000000967658
       6        0.000033960401    -0.000013756075    -0.000031945611
       7       -0.000039631069     0.000395320507     0.002262589282
       8        0.000036333791    -0.000009570555     0.000006435402
       9       -0.000023416769    -0.000012616294     0.000009679516
      10       -0.000013366100    -0.000045593547    -0.000093615424
      11       -0.000020767932    -0.000002586580     0.000018567675
      12       -0.000020244730     0.000007448630    -0.000006938272
      13       -0.000102512885    -0.000568059225    -0.002256081170
      14        0.000010712570    -0.000000775271     0.000011349775
      15        0.000031558057     0.000004721914     0.000002838327
      16        0.000088172569     0.000099033916    -0.002936051541
      17        0.000008105315    -0.000007455434    -0.000009928408
      18        0.000011550825    -0.000014896202     0.000019852824
      19        0.000012324098    -0.000026920254     0.002967369644

  **** Optimization is complete! (in 4 steps) ****
    Final optimized geometry and variables:
    Molecular point group: c1

    Geometry (in Angstrom), charge = 0, multiplicity = 1:

    H            2.582366244746    -0.735386115238     0.625487171084
    N            1.605739958604    -0.537517528475     0.635573043339
    C            0.904488803806    -1.364443746627    -0.325535181644
    C            1.366093724439     0.871970828910     0.400830486103
    H            1.083403026683    -2.407304247659    -0.093304627266
    H            1.239561703402    -1.186365063332    -1.349139432731
    C           -0.583446091991    -1.076288718605    -0.244119892403
    H            1.881956121116     1.450165139552     1.157921587398
    H            1.730250245473     1.197041693786    -0.575639542314
    C           -0.124131977946     1.151825125182     0.478014890792
    H           -0.954528284995    -1.392197653304     0.734901058470
    H           -1.106641668546    -1.656519364600    -0.995688524083
    N           -0.846120705597     0.330316721488    -0.474560221362
    H           -0.305996589563     2.194580722484     0.247515065045
    H           -0.466185296640     0.973231232655     1.501639648494
    C           -2.261296189095     0.614533179613    -0.481069333908
    H           -2.727354914711     0.193463649530    -1.363410276558
    H           -2.772932159085     0.210917043985     0.397345292552
    H           -2.423874390008     1.684543870319    -0.478261789167

  Mulliken Charges: (a.u.)
   Center  Symbol    Alpha    Beta     Spin     Total
       1     H     0.43997  0.43997  0.00000  0.12005
       2     N     3.64290  3.64290  0.00000 -0.28580
       3     C     3.04052  3.04052  0.00000 -0.08104
       4     C     3.04132  3.04132  0.00000 -0.08264
       5     H     0.45244  0.45244  0.00000  0.09511
       6     H     0.46524  0.46524  0.00000  0.06952
       7     C     3.03560  3.03560  0.00000 -0.07119
       8     H     0.45246  0.45246  0.00000  0.09507
       9     H     0.46536  0.46536  0.00000  0.06927
      10     C     3.03370  3.03370  0.00000 -0.06741
      11     H     0.46739  0.46739  0.00000  0.06522
      12     H     0.45423  0.45423  0.00000  0.09153
      13     N     3.61477  3.61477  0.00000 -0.22955
      14     H     0.45392  0.45392  0.00000  0.09216
      15     H     0.46909  0.46909  0.00000  0.06181
      16     C     3.09665  3.09665  0.00000 -0.19330
      17     H     0.45068  0.45068  0.00000  0.09864
      18     H     0.47026  0.47026  0.00000  0.05947
      19     H     0.45347  0.45347  0.00000  0.09306

   Total alpha = 28.00000, Total beta = 28.00000, Total charge =  0.00000

*** Psi4 exiting successfully. Buy a developer a beer!
