  ==> Input File <==

--------------------------------------------------------------------------
set {
	reference rhf
	basis 6-31G*
}

set_num_threads( 4 )
memory 2 gb

molecule MOL {
0 1

H	 0.489908	 -5.549648	 -2.210938
C	 0.688329	 -4.689478	 -1.579681
C	 -0.475246	 -3.699693	 -1.616849
H	 0.861494	 -5.053984	 -0.571030
H	 1.609466	 -4.230469	 -1.927624
C	 -0.235895	 -2.473316	 -0.742145
H	 -1.390070	 -4.184169	 -1.290092
H	 -0.643468	 -3.380399	 -2.644051
N	 -1.371533	 -1.573094	 -0.779370
H	 -0.093858	 -2.789795	 0.287724
H	 0.694898	 -1.982726	 -1.045994
C	 -1.217365	 -0.386708	 0.039277
H	 -1.550542	 -1.302113	 -1.727824
C	 -2.452633	 0.504241	 -0.042481
H	 -1.073732	 -0.706700	 1.067836
H	 -0.328713	 0.193520	 -0.230939
C	 -3.758029	 -0.289423	 -0.010781
H	 -2.394220	 1.093569	 -0.952170
H	 -2.440793	 1.210787	 0.785871
H	 -3.816659	 -0.981993	 -0.845726
H	 -4.617837	 0.370165	 -0.069296
H	 -3.847478	 -0.867502	 0.904682

	symmetry c1
}
set optking {
	frozen_dihedral = ("
		15 12 14 18
	")
}

ee = optimize('scf')
oeprop('DIPOLE', 'QUADRUPOLE', 'MULLIKEN_CHARGES')
f=open( 'psi4out.xyz', 'w' )
f.write( "22  " )
f.write( str(ee) + "\n" )
f.write( MOL.save_string_xyz() )
f.close()
--------------------------------------------------------------------------

    Molecular point group: c1
  Charge       = 0
  Multiplicity = 1
  Basis Set: 6-31G*
  Basis Set:
  @DF-RHF Final Energy:  -290.38011464543877
    Total Energy =                       -290.3801146454388231
    Molecular point group: c1
  Basis Set: 6-31G*
  Basis Set:
  Basis Set: 6-31G*
  Basis Set:
  @DF-RHF Final Energy:  -290.38087252130373
    Total Energy =                       -290.3808725213033313
  Basis Set: 6-31G*
  Basis Set:
  Basis Set: 6-31G*
  Basis Set:
  @DF-RHF Final Energy:  -290.38126566496243
    Total Energy =                       -290.3812656649623705
  Basis Set: 6-31G*
  Basis Set:
  Basis Set: 6-31G*
  Basis Set:
  @DF-RHF Final Energy:  -290.38128496393199
    Total Energy =                       -290.3812849639321598
  Basis Set: 6-31G*
  Basis Set:
  Basis Set: 6-31G*
  Basis Set:
  @DF-RHF Final Energy:  -290.38128616584487
    Total Energy =                       -290.3812861658446423
  Basis Set: 6-31G*
  Basis Set:
  Charge       = 0
  Multiplicity = 1
  Basis Set: 6-31G*
  Basis Set:

    Orbital Energies (a.u.)
    -----------------------

    Doubly Occupied:

       1A    -15.534682     2A    -11.238684     3A    -11.238547
       4A    -11.214102     5A    -11.214023     6A    -11.210086
       7A    -11.200796     8A     -1.206622     9A     -1.057737
      10A     -1.021656    11A     -0.926284    12A     -0.877777
      13A     -0.806086    14A     -0.789213    15A     -0.661930
      16A     -0.631957    17A     -0.614761    18A     -0.608413
      19A     -0.572497    20A     -0.565686    21A     -0.534627
      22A     -0.527555    23A     -0.502483    24A     -0.488177
      25A     -0.482617    26A     -0.469948    27A     -0.463860
      28A     -0.450232    29A     -0.358581

  @DF-RHF Final Energy:  -290.38128642195619

   => Energetics <=

    Nuclear Repulsion Energy =            317.9316613930391782
    One-Electron Energy =               -1021.6866576432349802
    Two-Electron Energy =                 413.3737098282399529
    DFT Exchange-Correlation Energy =       0.0000000000000000
    Empirical Dispersion Energy =           0.0000000000000000
    PCM Polarization Energy =               0.0000000000000000
    EFP Energy =                            0.0000000000000000
    Total Energy =                       -290.3812864219557923
    Molecular point group: c1
  Basis Set: 6-31G*
  Basis Set:

  -Total Gradient:
     Atom            X                  Y                   Z
    ------   -----------------  -----------------  -----------------
       1       -0.000002406868    -0.000000137185     0.000001984598
       2       -0.000002052788     0.000000857075     0.000008207447
       3       -0.000005880725     0.000009150220    -0.000005385050
       4        0.000002969551     0.000001073809     0.000000471786
       5       -0.000001044123    -0.000000303011    -0.000002272785
       6        0.000003937427     0.000004693487     0.000008673270
       7       -0.000000928450    -0.000001532365    -0.000005308551
       8        0.000000339221     0.000001329695     0.000000918782
       9       -0.000021845850    -0.000019901854    -0.000021456217
      10        0.000002532652    -0.000000449594     0.000001741777
      11       -0.000003246374     0.000003466068    -0.000002230635
      12       -0.002844737587    -0.003768935217    -0.000373371713
      13        0.000002068388    -0.000003885996    -0.000000811750
      14       -0.002265250951    -0.003260011686    -0.002651985873
      15        0.002767146586     0.003712376761     0.000753475537
      16       -0.000007143511     0.000008323861     0.000009016024
      17        0.000000368345    -0.000014616835     0.000002762127
      18        0.002370056123     0.003340074285     0.002280533700
      19        0.000011766082    -0.000003400050    -0.000001427039
      20       -0.000006180718    -0.000006134672     0.000000036254
      21        0.000005822919    -0.000001589196    -0.000001098860
      22       -0.000006289349    -0.000000447603    -0.000002472828

  **** Optimization is complete! (in 6 steps) ****
    Final optimized geometry and variables:
    Molecular point group: c1

    Geometry (in Angstrom), charge = 0, multiplicity = 1:

    H            1.831864649173    -3.737224421499    -1.535377500760
    C            2.002424930843    -2.880373011470    -0.891585698350
    C            0.828973035227    -1.903616674012    -0.953682298321
    H            2.151110516937    -3.251563644010     0.118497025247
    H            2.927666383944    -2.407967218244    -1.209395950851
    C            1.028747035881    -0.683233399291    -0.060984691559
    H           -0.089214674527    -2.401565995360    -0.658194238898
    H            0.687030815862    -1.576353832443    -1.982397353904
    N           -0.115700432861     0.204392337521    -0.122082588600
    H            1.144556412110    -1.007443034730     0.969675804654
    H            1.961730444411    -0.178521337888    -0.333188093432
    C            0.006424918885     1.382578178802     0.711350887630
    H           -0.268709311859     0.485282956996    -1.072710308551
    C           -1.207907087261     2.309245276593     0.615323567939
    H            0.141838778510     1.072074352959     1.743952456739
    H            0.901581147520     1.964997562117     0.468001501636
    C           -2.558392330523     1.605814504502     0.729095028128
    H           -1.149250790789     2.894735479437    -0.300739627507
    H           -1.118211173008     3.040770395579     1.415884609935
    H           -2.720813578326     0.914526046827    -0.088192387395
    H           -3.367449443529     2.330243726726     0.727904699149
    H           -2.620051537918     1.037331263050     1.652266742647

  Mulliken Charges: (a.u.)
   Center  Symbol    Alpha    Beta     Spin     Total
       1     H     0.41764  0.41764  0.00000  0.16471
       2     C     3.24335  3.24335  0.00000 -0.48669
       3     C     3.15556  3.15556  0.00000 -0.31113
       4     H     0.42062  0.42062  0.00000  0.15876
       5     H     0.42160  0.42160  0.00000  0.15680
       6     C     3.04637  3.04637  0.00000 -0.09274
       7     H     0.41298  0.41298  0.00000  0.17404
       8     H     0.42668  0.42668  0.00000  0.14664
       9     N     3.85537  3.85537  0.00000 -0.71075
      10     H     0.42130  0.42130  0.00000  0.15740
      11     H     0.43620  0.43620  0.00000  0.12761
      12     C     3.05017  3.05017  0.00000 -0.10035
      13     H     0.33534  0.33534  0.00000  0.32932
      14     C     3.16340  3.16340  0.00000 -0.32680
      15     H     0.42169  0.42169  0.00000  0.15661
      16     H     0.43474  0.43474  0.00000  0.13053
      17     C     3.23136  3.23136  0.00000 -0.46273
      18     H     0.42504  0.42504  0.00000  0.14992
      19     H     0.42100  0.42100  0.00000  0.15799
      20     H     0.41413  0.41413  0.00000  0.17175
      21     H     0.42414  0.42414  0.00000  0.15171
      22     H     0.42131  0.42131  0.00000  0.15739

   Total alpha = 29.00000, Total beta = 29.00000, Total charge = -0.00000
