                              Psi4 1.0.54 Driver

  ==> Input File <==

--------------------------------------------------------------------------
set {
	reference rhf
	basis cc-pvtz
}

set_num_threads( 4 )
memory 2 gb

molecule MOL {
0 1

H	 -3.436473	 1.252944	 -1.023892
O	 -3.458596	 0.315260	 -0.960865
C	 -3.176635	 -0.080824	 0.355601
C	 -1.763371	 0.265266	 0.799691
H	 -3.321825	 -1.153438	 0.379502
H	 -3.895468	 0.357385	 1.043382
C	 -0.673390	 -0.426948	 -0.013392
H	 -1.631049	 1.344913	 0.747560
H	 -1.664587	 -0.001624	 1.849167
C	 0.737842	 -0.043159	 0.423759
H	 -0.806103	 -0.190518	 -1.063345
H	 -0.797221	 -1.503753	 0.074146
C	 1.824000	 -0.743224	 -0.390623
H	 0.850588	 1.033777	 0.343840
H	 0.868587	 -0.286314	 1.476203
C	 1.382586	 -1.222974	 -1.774401
H	 2.207272	 -1.589061	 0.175515
H	 2.659438	 -0.059557	 -0.514163
C	 0.340296	 -2.338586	 -1.760785
H	 2.258771	 -1.573250	 -2.311413
H	 0.998717	 -0.378522	 -2.340940
H	 0.694392	 -3.194957	 -1.195700
H	 0.124649	 -2.675472	 -2.768379
H	 -0.594755	 -2.015180	 -1.319545

	symmetry c1
}
set optking {
	frozen_dihedral = ("
		17 13 10 7
	")
}

ee,wfn = optimize('scf', return_wfn=True)
oeprop( wfn, 'DIPOLE', 'QUADRUPOLE', 'MULLIKEN_CHARGES')
f=open( 'psi4out.xyz', 'w' )
f.write( "24  " )
f.write( str(ee) + "\n" )
f.write( MOL.save_string_xyz() )
f.close()
--------------------------------------------------------------------------

    Molecular point group: c1
  Charge       = 0
  Multiplicity = 1
  Basis Set: CC-PVTZ
  Basis Set:
  @DF-RHF Final Energy:  -349.34713333187705
    Total Energy =                       -349.3471333318773304
    Molecular point group: c1
  Basis Set: CC-PVTZ
  Basis Set:
  Basis Set: CC-PVTZ
  Basis Set:
  @DF-RHF Final Energy:  -349.36416962969520
    Total Energy =                       -349.3641696296950840
  Basis Set: CC-PVTZ
  Basis Set:
  Basis Set: CC-PVTZ
  Basis Set:
  @DF-RHF Final Energy:  -349.36868668748218
    Total Energy =                       -349.3686866874825228
  Basis Set: CC-PVTZ
  Basis Set:
  Basis Set: CC-PVTZ
  Basis Set:
  @DF-RHF Final Energy:  -349.36992964502906
    Total Energy =                       -349.3699296450288330
  Basis Set: CC-PVTZ
  Basis Set:
  @DF-RHF Final Energy:  -349.37021681149321
    Total Energy =                       -349.3702168114936057
  @DF-RHF Final Energy:  -349.37048287045144
    Total Energy =                       -349.3704828704518377
  Basis Set: CC-PVTZ
  Basis Set:
  @DF-RHF Final Energy:  -349.37050588602943
    Total Energy =                       -349.3705058860296049
  Basis Set: CC-PVTZ
  Basis Set:
  Basis Set: CC-PVTZ
  Basis Set:
  @DF-RHF Final Energy:  -349.37051044633472
    Total Energy =                       -349.3705104463343787
  Basis Set: CC-PVTZ
  Basis Set:
  Basis Set: CC-PVTZ
  Basis Set:
  @DF-RHF Final Energy:  -349.37051167942502
    Total Energy =                       -349.3705116794246237
  Basis Set: CC-PVTZ
  Basis Set:
  Charge       = 0
  Multiplicity = 1
  Basis Set: CC-PVTZ
  Basis Set:

    Orbital Energies (a.u.)
    -----------------------

    Doubly Occupied:

       1A    -20.546744     2A    -11.265719     3A    -11.215121
       4A    -11.211615     5A    -11.211455     6A    -11.210103
       7A    -11.208680     8A    -11.201694     9A     -1.364478
      10A     -1.086763    11A     -1.045987    12A     -0.984587
      13A     -0.920622    14A     -0.850181    15A     -0.809121
      16A     -0.765257    17A     -0.683133    18A     -0.653472
      19A     -0.620852    20A     -0.613477    21A     -0.608102
      22A     -0.585450    23A     -0.556365    24A     -0.540262
      25A     -0.519681    26A     -0.508252    27A     -0.497989
      28A     -0.480576    29A     -0.471050    30A     -0.457669
      31A     -0.446477    32A     -0.442258    33A     -0.421951

  @DF-RHF Final Energy:  -349.37051184117081

   => Energetics <=

    Nuclear Repulsion Energy =            394.2891020198323986
    One-Electron Energy =               -1255.3089410147529179
    Two-Electron Energy =                 511.6493271537495957
    DFT Exchange-Correlation Energy =       0.0000000000000000
    Empirical Dispersion Energy =           0.0000000000000000
    PCM Polarization Energy =               0.0000000000000000
    EFP Energy =                            0.0000000000000000
    Total Energy =                       -349.3705118411709236
    Molecular point group: c1
  Basis Set: CC-PVTZ
  Basis Set:

  -Total Gradient:
     Atom            X                  Y                   Z
    ------   -----------------  -----------------  -----------------
       1        0.000000291841    -0.000002574323     0.000003073217
       2        0.000001950821    -0.000005598035    -0.000005928935
       3       -0.000000573280     0.000020015000     0.000003657578
       4       -0.000005734432    -0.000014073186     0.000008168141
       5        0.000005733349     0.000002135266    -0.000007466031
       6       -0.000004478661    -0.000005021811     0.000008568101
       7        0.000324553294     0.003402446258    -0.003012478092
       8       -0.000000403790    -0.000009230306    -0.000008728033
       9        0.000000507113     0.000004042496     0.000001835650
      10        0.000543246846    -0.004215694699     0.005031124012
      11       -0.000003566732     0.000008011628    -0.000004122486
      12       -0.000000202922     0.000006491879     0.000001167183
      13       -0.005138942892    -0.002454840877    -0.004599699819
      14        0.000001492537    -0.000000976279    -0.000002199506
      15        0.000008095337    -0.000003211358    -0.000002603231
      16       -0.000028173349    -0.000006468975    -0.000003972184
      17        0.004287435119     0.003265977474     0.002585403270
      18       -0.000006567152     0.000006544554    -0.000002283452
      19        0.000006990544     0.000002122322     0.000010462725
      20        0.000004879564     0.000000828863     0.000013117448
      21        0.000001088125     0.000006267166    -0.000004993514
      22       -0.000000293193    -0.000004754117    -0.000002453037
      23       -0.000005149915     0.000001511702    -0.000003460680
      24        0.000007821828    -0.000003950645    -0.000006188326

  **** Optimization is complete! (in 10 steps) ****
    Final optimized geometry and variables:
    Molecular point group: c1

    Geometry (in Angstrom), charge = 0, multiplicity = 1:

    H           -2.666028892365     2.119563220143    -0.578309369786
    O           -2.829960275441     1.204299141527    -0.440098337089
    C           -2.553922550476     0.866857150305     0.893962762136
    C           -1.084282010796     1.010455695823     1.259738742448
    H           -2.867635144266    -0.162880311324     1.009306156313
    H           -3.160818767077     1.466179352410     1.567960079710
    C           -0.158766806380     0.093620912151     0.463450144317
    H           -0.784779437179     2.047790960656     1.118328663643
    H           -0.979442200646     0.807198277671     2.322749732900
    C            1.308396533639     0.290261822239     0.843355572345
    H           -0.303434014983     0.280247156472    -0.592279963627
    H           -0.458634800459    -0.935265704583     0.640782641256
    C            2.383233107819    -0.501868228601     0.062428129420
    H            1.525311624781     1.348490204024     0.720145994701
    H            1.433776979319     0.088554837183     1.902571695068
    C            2.099292381774    -0.913290279306    -1.386896492969
    H            2.694035711433    -1.367479240609     0.641089840678
    H            3.267411714929     0.128662381189     0.049017544374
    C            1.301424188698    -2.203877205552    -1.563223352863
    H            3.056294515193    -1.046664848465    -1.881588011459
    H            1.607322885905    -0.100802731206    -1.912944143245
    H            1.800725548128    -3.031900636157    -1.070566430665
    H            1.210114453784    -2.454308139633    -2.614382783909
    H            0.301839326964    -2.132916249380    -1.157617748272

  Mulliken Charges: (a.u.)
   Center  Symbol    Alpha    Beta     Spin     Total
       1     H     0.39524  0.39524  0.00000  0.20952
       2     O     4.20310  4.20310  0.00000 -0.40621
       3     C     2.97793  2.97793  0.00000  0.04414
       4     C     3.10322  3.10322  0.00000 -0.20644
       5     H     0.45876  0.45876  0.00000  0.08248
       6     H     0.45990  0.45990  0.00000  0.08021
       7     C     3.09773  3.09773  0.00000 -0.19545
       8     H     0.45912  0.45912  0.00000  0.08175
       9     H     0.45279  0.45279  0.00000  0.09442
      10     C     3.09193  3.09193  0.00000 -0.18386
      11     H     0.44158  0.44158  0.00000  0.11683
      12     H     0.45428  0.45428  0.00000  0.09145
      13     C     3.09775  3.09775  0.00000 -0.19549
      14     H     0.45505  0.45505  0.00000  0.08991
      15     H     0.45034  0.45034  0.00000  0.09931
      16     C     3.10042  3.10042  0.00000 -0.20084
      17     H     0.45347  0.45347  0.00000  0.09306
      18     H     0.44846  0.44846  0.00000  0.10308
      19     C     3.14866  3.14866  0.00000 -0.29732
      20     H     0.44506  0.44506  0.00000  0.10987
      21     H     0.45148  0.45148  0.00000  0.09705
      22     H     0.45587  0.45587  0.00000  0.08825
      23     H     0.44819  0.44819  0.00000  0.10361
      24     H     0.44967  0.44967  0.00000  0.10067

   Total alpha = 33.00000, Total beta = 33.00000, Total charge =  0.00000

*** Psi4 exiting successfully. Buy a developer a beer!
