  ==> Input File <==

--------------------------------------------------------------------------
set {
	reference rhf
	basis 6-31G*
}

set_num_threads( 4 )
memory 2 gb

molecule MOL {
0 1

H	 -3.135461	 -1.215070	 0.001379
O	 -2.310168	 -0.871793	 -0.309793
C	 -2.026376	 0.340750	 0.341611
C	 -0.673256	 0.843270	 -0.132153
H	 -2.792215	 1.080697	 0.115987
H	 -2.013526	 0.200402	 1.421792
C	 0.486613	 -0.083066	 0.235839
H	 -0.715586	 0.970948	 -1.210718
H	 -0.508072	 1.829858	 0.297090
C	 0.136429	 -1.058404	 1.360962
H	 1.342591	 0.517143	 0.526640
H	 0.788708	 -0.646824	 -0.646066
C	 1.293627	 -1.988054	 1.724715
H	 -0.164702	 -0.496630	 2.242692
H	 -0.726530	 -1.654235	 1.069879
H	 2.160888	 -1.422621	 2.053402
H	 1.017465	 -2.666470	 2.526232
H	 1.596366	 -2.589485	 0.871989

	symmetry c1
}
set optking {
	frozen_dihedral = ("
		10 7 4 8
	")
}

ee = optimize('scf')
oeprop('DIPOLE', 'QUADRUPOLE', 'MULLIKEN_CHARGES')
f=open( 'psi4out.xyz', 'w' )
f.write( "18  " )
f.write( str(ee) + "\n" )
f.write( MOL.save_string_xyz() )
f.close()
--------------------------------------------------------------------------

    Molecular point group: c1
  Charge       = 0
  Multiplicity = 1
  Basis Set: 6-31G*
  Basis Set:
  @DF-RHF Final Energy:  -271.16862826748479
    Total Energy =                       -271.1686282674847916
    Molecular point group: c1
  Basis Set: 6-31G*
  Basis Set:
  Basis Set: 6-31G*
  Basis Set:
  @DF-RHF Final Energy:  -271.17140402930261
    Total Energy =                       -271.1714040293026073
  Basis Set: 6-31G*
  Basis Set:
  Basis Set: 6-31G*
  Basis Set:
  @DF-RHF Final Energy:  -271.17253857174273
    Total Energy =                       -271.1725385717427343
  Basis Set: 6-31G*
  Basis Set:
  Basis Set: 6-31G*
  Basis Set:
  @DF-RHF Final Energy:  -271.17266240615243
    Total Energy =                       -271.1726624061525399
  Basis Set: 6-31G*
  Basis Set:
  Basis Set: 6-31G*
  Basis Set:
  @DF-RHF Final Energy:  -271.17263376897603
    Total Energy =                       -271.1726337689757429
  Basis Set: 6-31G*
  Basis Set:
  Basis Set: 6-31G*
  Basis Set:
  @DF-RHF Final Energy:  -271.17269375494232
    Total Energy =                       -271.1726937549422018
  Basis Set: 6-31G*
  Basis Set:
  Charge       = 0
  Multiplicity = 1
  Basis Set: 6-31G*
  Basis Set:

    Orbital Energies (a.u.)
    -----------------------

    Doubly Occupied:

       1A    -20.554234     2A    -11.267561     3A    -11.212859
       4A    -11.208632     5A    -11.206782     6A    -11.203150
       7A     -1.360360     8A     -1.070875     9A     -1.005615
      10A     -0.912381    11A     -0.833291    12A     -0.764846
      13A     -0.705923    14A     -0.643284    15A     -0.626592
      16A     -0.582051    17A     -0.561197    18A     -0.552825
      19A     -0.534502    20A     -0.494824    21A     -0.492846
      22A     -0.464289    23A     -0.453202    24A     -0.443991
      25A     -0.428296

  @DF-RHF Final Energy:  -271.17269413686790

   => Energetics <=

    Nuclear Repulsion Energy =            255.2553191291610517
    One-Electron Energy =                -873.6872142381805588
    Two-Electron Energy =                 347.2592009721513477
    DFT Exchange-Correlation Energy =       0.0000000000000000
    Empirical Dispersion Energy =           0.0000000000000000
    PCM Polarization Energy =               0.0000000000000000
    EFP Energy =                            0.0000000000000000
    Total Energy =                       -271.1726941368681310
    Molecular point group: c1
  Basis Set: 6-31G*
  Basis Set:

  -Total Gradient:
     Atom            X                  Y                   Z
    ------   -----------------  -----------------  -----------------
       1        0.000001176497     0.000009129149    -0.000002239199
       2        0.000025507682     0.000017858385    -0.000007196077
       3       -0.000018800049    -0.000042654749     0.000028745825
       4        0.003835270809     0.004264423175    -0.001005357816
       5        0.000013882496     0.000002108820    -0.000006405595
       6        0.000006645388     0.000017470576     0.000018085836
       7        0.001313246530     0.003265170029     0.004144046619
       8       -0.003669717031    -0.004548947275    -0.000264030127
       9       -0.000012682840    -0.000011334863     0.000003212122
      10       -0.001503020510    -0.002991666676    -0.002890758105
      11       -0.000006611542     0.000000293288     0.000001007692
      12       -0.000001742788    -0.000010500334     0.000006198061
      13        0.000025373347     0.000004327443    -0.000011360835
      14       -0.000000473430     0.000009953594    -0.000010863565
      15       -0.000007315942     0.000003667112    -0.000002973555
      16        0.000008844323    -0.000000329227     0.000009358858
      17       -0.000009331953     0.000008622943    -0.000009768475
      18       -0.000000250989     0.000002408609     0.000000298339

  **** Optimization is complete! (in 7 steps) ****
    Final optimized geometry and variables:
    Molecular point group: c1

    Geometry (in Angstrom), charge = 0, multiplicity = 1:

    H           -2.716282384309    -0.583047465326    -0.687912578442
    O           -1.849559874855    -0.294011855515    -0.935834796369
    C           -1.522430795889     0.879753804890    -0.233061140796
    C           -0.118645982227     1.309375268718    -0.635052250952
    H           -2.218833138114     1.676439551174    -0.488873515583
    H           -1.594460423778     0.718133858496     0.839297951328
    C            1.034253613986     0.353995448324    -0.240816881378
    H           -0.148961511886     1.396208880704    -1.716413069393
    H            0.053637926320     2.300410098285    -0.224559337430
    C            0.765166572762    -0.624107783151     0.907048945769
    H            1.913458924550     0.948294999320    -0.004636860235
    H            1.301661666827    -0.237356958219    -1.111958299408
    C            1.980756507150    -1.502228469956     1.204807776662
    H            0.495895428951    -0.078454508079     1.810001473873
    H           -0.080949496465    -1.251633819858     0.654200085071
    H            2.839921605279    -0.903109421598     1.493832468914
    H            1.774784526782    -2.196231127938     2.014169669246
    H            2.264088047795    -2.086099095072     0.333555934796

  Mulliken Charges: (a.u.)
   Center  Symbol    Alpha    Beta     Spin     Total
       1     H     0.28079  0.28079  0.00000  0.43843
       2     O     4.36970  4.36970  0.00000 -0.73941
       3     C     3.00266  3.00266  0.00000 -0.00532
       4     C     3.16250  3.16250  0.00000 -0.32500
       5     H     0.42814  0.42814  0.00000  0.14373
       6     H     0.42933  0.42933  0.00000  0.14135
       7     C     3.15041  3.15041  0.00000 -0.30082
       8     H     0.41182  0.41182  0.00000  0.17636
       9     H     0.42217  0.42217  0.00000  0.15566
      10     C     3.16007  3.16007  0.00000 -0.32014
      11     H     0.42357  0.42357  0.00000  0.15285
      12     H     0.41748  0.41748  0.00000  0.16505
      13     C     3.23926  3.23926  0.00000 -0.47851
      14     H     0.42808  0.42808  0.00000  0.14384
      15     H     0.40848  0.40848  0.00000  0.18305
      16     H     0.42356  0.42356  0.00000  0.15288
      17     H     0.42086  0.42086  0.00000  0.15828
      18     H     0.42114  0.42114  0.00000  0.15772

   Total alpha = 25.00000, Total beta = 25.00000, Total charge = -0.00000
