  ==> Input File <==

--------------------------------------------------------------------------
set {
	reference rhf
	basis 6-31G*
}

set_num_threads( 4 )
memory 2 gb

molecule MOL {
0 1

H	 3.463771	 0.168298	 -0.756243
C	 2.752674	 -0.045734	 0.033351
C	 1.322923	 0.120767	 -0.479465
H	 2.934561	 -1.059086	 0.377456
H	 2.958358	 0.631174	 0.856809
C	 0.306652	 -0.176050	 0.621399
H	 1.144658	 -0.551717	 -1.312180
H	 1.166477	 1.131798	 -0.836680
N	 -1.068537	 -0.011044	 0.085269
H	 0.372515	 -1.192590	 0.973735
H	 0.391664	 0.520566	 1.441230
O	 -1.388674	 -0.701754	 -0.832230
O	 -1.749641	 0.827718	 0.591826

	symmetry c1
}
set optking {
	frozen_dihedral = ("
		12 9 6 3
	")
}

ee = optimize('scf')
oeprop('DIPOLE', 'QUADRUPOLE', 'MULLIKEN_CHARGES')
f=open( 'psi4out.xyz', 'w' )
f.write( "13  " )
f.write( str(ee) + "\n" )
f.write( MOL.save_string_xyz() )
f.close()
--------------------------------------------------------------------------

    Molecular point group: c1
  Charge       = 0
  Multiplicity = 1
  Basis Set: 6-31G*
  Basis Set:
  @DF-RHF Final Energy:  -321.73525731006669
    Total Energy =                       -321.7352573100665722
    Molecular point group: c1
  Basis Set: 6-31G*
  Basis Set:
  Basis Set: 6-31G*
  Basis Set:
  @DF-RHF Final Energy:  -321.73067114562610
    Total Energy =                       -321.7306711456260473
  Basis Set: 6-31G*
  Basis Set:
  Basis Set: 6-31G*
  Basis Set:
  @DF-RHF Final Energy:  -321.73471653028673
    Total Energy =                       -321.7347165302865619
  Basis Set: 6-31G*
  Basis Set:
  Basis Set: 6-31G*
  Basis Set:
  @DF-RHF Final Energy:  -321.73551004126125
    Total Energy =                       -321.7355100412612501
  Basis Set: 6-31G*
  Basis Set:
  Basis Set: 6-31G*
  Basis Set:
  @DF-RHF Final Energy:  -321.73551058571627
    Total Energy =                       -321.7355105857162698
  Basis Set: 6-31G*
  Basis Set:
  Basis Set: 6-31G*
  Basis Set:
  @DF-RHF Final Energy:  -321.73551833603744
    Total Energy =                       -321.7355183360373303
  Basis Set: 6-31G*
  Basis Set:
  Charge       = 0
  Multiplicity = 1
  Basis Set: 6-31G*
  Basis Set:

    Orbital Energies (a.u.)
    -----------------------

    Doubly Occupied:

       1A    -20.603091     2A    -20.599001     3A    -15.847441
       4A    -11.299639     5A    -11.254925     6A    -11.239221
       7A     -1.631039     8A     -1.416420     9A     -1.134551
      10A     -1.028191    11A     -0.884335    12A     -0.831298
      13A     -0.759419    14A     -0.737369    15A     -0.723908
      16A     -0.668978    17A     -0.604957    18A     -0.586121
      19A     -0.550714    20A     -0.522386    21A     -0.512574
      22A     -0.484280    23A     -0.473451    24A     -0.448536

  @DF-RHF Final Energy:  -321.73551846276985

   => Energetics <=

    Nuclear Repulsion Energy =            247.2618763294148323
    One-Electron Energy =                -928.3111019483742439
    Two-Electron Energy =                 359.3137071561896505
    DFT Exchange-Correlation Energy =       0.0000000000000000
    Empirical Dispersion Energy =           0.0000000000000000
    PCM Polarization Energy =               0.0000000000000000
    EFP Energy =                            0.0000000000000000
    Total Energy =                       -321.7355184627697895
    Molecular point group: c1
  Basis Set: 6-31G*
  Basis Set:

  -Total Gradient:
     Atom            X                  Y                   Z
    ------   -----------------  -----------------  -----------------
       1        0.000000493347    -0.000008359915    -0.000000290429
       2        0.000001056364    -0.000012804151    -0.000003881405
       3       -0.000025911488    -0.000202816212    -0.000053111824
       4       -0.000004450325     0.000003721622     0.000007872286
       5        0.000005895220     0.000009168576    -0.000004263147
       6        0.000034548907     0.000349912604     0.000019077133
       7        0.000004393549     0.000019701427    -0.000021084752
       8       -0.000001703245    -0.000002162711     0.000013092579
       9       -0.000130332828    -0.000337986758     0.000175152335
      10       -0.000002688877    -0.000001106776    -0.000005309244
      11       -0.000009458159    -0.000005762050     0.000004945295
      12        0.000115662821     0.000173496238    -0.000146584448
      13        0.000012494714     0.000014998108     0.000014385622

  **** Optimization is complete! (in 7 steps) ****
    Final optimized geometry and variables:
    Molecular point group: c1

    Geometry (in Angstrom), charge = 0, multiplicity = 1:

    H            3.479004057205     0.155147244931    -0.755611134083
    C            2.761066451657    -0.047243174657     0.030849745794
    C            1.335645603986     0.111668675002    -0.497112265858
    H            2.939228626236    -1.056496290967     0.389471766942
    H            2.962031578599     0.639356696318     0.847372550160
    C            0.314038851668    -0.172889262531     0.599163886960
    H            1.161549112523    -0.563376870967    -1.324821228559
    H            1.187939655564     1.122212085799    -0.865380584795
    N           -1.071063404700    -0.004259729212     0.084897417871
    H            0.371682630037    -1.198794703252     0.935507008194
    H            0.403558117897     0.498529547986     1.437061350044
    O           -1.398164886056    -0.701844071185    -0.826772781339
    O           -1.761194055537     0.812366294917     0.610927074926

  Mulliken Charges: (a.u.)
   Center  Symbol    Alpha    Beta     Spin     Total
       1     H     0.40740  0.40740  0.00000  0.18520
       2     C     3.24866  3.24866  0.00000 -0.49731
       3     C     3.17218  3.17218  0.00000 -0.34435
       4     H     0.41517  0.41517  0.00000  0.16965
       5     H     0.41512  0.41512  0.00000  0.16976
       6     C     3.08581  3.08581  0.00000 -0.17161
       7     H     0.39398  0.39398  0.00000  0.21203
       8     H     0.40461  0.40461  0.00000  0.19078
       9     N     3.22250  3.22250  0.00000  0.55500
      10     H     0.38857  0.38857  0.00000  0.22287
      11     H     0.38628  0.38628  0.00000  0.22744
      12     O     4.23135  4.23135  0.00000 -0.46270
      13     O     4.22839  4.22839  0.00000 -0.45677

   Total alpha = 24.00000, Total beta = 24.00000, Total charge = -0.00000
