  ==> Input File <==

--------------------------------------------------------------------------
set {
	reference rhf
	basis cc-pvtz
}

set_num_threads( 4 )
memory 2 gb

molecule MOL {
0 1

H	 -4.024094	 -0.454727	 -0.000159
C	 -2.962215	 -0.297920	 -0.000126
C	 -2.454736	 0.988978	 -0.000067
C	 -2.105837	 -1.382632	 -0.000143
H	 -3.120052	 1.830438	 -0.000054
C	 -1.090106	 1.189676	 -0.000024
H	 -2.500390	 -2.380229	 -0.000189
C	 -0.739175	 -1.183302	 -0.000101
H	 -0.680214	 2.179144	 0.000022
C	 -0.227341	 0.104540	 -0.000040
H	 -0.073209	 -2.021168	 -0.000113
C	 1.238974	 0.374429	 0.000004
O	 1.968286	 -0.725612	 -0.000027
O	 1.709187	 1.462583	 0.000023
C	 3.373556	 -0.568203	 0.000011
H	 3.695416	 -0.031588	 -0.879663
H	 3.782700	 -1.565294	 -0.000152
H	 3.695405	 -0.031851	 0.879862

	symmetry c1
}
set optking {
	frozen_dihedral = ("
		10 12 13 15
	")
}

ee = optimize('scf')
oeprop('DIPOLE', 'QUADRUPOLE', 'MULLIKEN_CHARGES')
f=open( 'psi4out.xyz', 'w' )
f.write( "18  " )
f.write( str(ee) + "\n" )
f.write( MOL.save_string_xyz() )
f.close()
--------------------------------------------------------------------------

    Molecular point group: c1
  Charge       = 0
  Multiplicity = 1
  Basis Set: CC-PVTZ
  Basis Set:

    Orbital Energies (a.u.)
    -----------------------

    Doubly Occupied:

       1A    -20.600980     2A    -20.534497     3A    -11.371746
       4A    -11.281258     5A    -11.244995     6A    -11.243525
       7A    -11.242723     8A    -11.240096     9A    -11.236084
      10A    -11.235332    11A     -1.476970    12A     -1.368435
      13A     -1.170854    14A     -1.051908    15A     -1.029118
      16A     -0.980491    17A     -0.863304    18A     -0.838533
      19A     -0.781253    20A     -0.745068    21A     -0.687883
      22A     -0.681769    23A     -0.676390    24A     -0.634113
      25A     -0.630114    26A     -0.601358    27A     -0.587560
      28A     -0.565014    29A     -0.531988    30A     -0.520385
      31A     -0.509514    32A     -0.502279    33A     -0.464220
      34A     -0.449513    35A     -0.350246    36A     -0.346309

  @DF-RHF Final Energy:  -457.51024308835633

   => Energetics <=

    Nuclear Repulsion Energy =            494.0499257662391983
    One-Electron Energy =               -1602.5686897645623503
    Two-Electron Energy =                 651.0085209099668191
    DFT Exchange-Correlation Energy =       0.0000000000000000
    Empirical Dispersion Energy =           0.0000000000000000
    PCM Polarization Energy =               0.0000000000000000
    EFP Energy =                            0.0000000000000000
    Total Energy =                       -457.5102430883564466
    Molecular point group: c1
  Basis Set: CC-PVTZ
  Basis Set:

  -Total Gradient:
     Atom            X                  Y                   Z
    ------   -----------------  -----------------  -----------------
       1        0.000029080435    -0.000006447966    -0.000000011061
       2        0.000011224155     0.000061265304     0.000000048011
       3       -0.000041191016    -0.000029459535    -0.000000045056
       4        0.000078624946    -0.000024058354     0.000000152201
       5        0.000021940193    -0.000033458402     0.000000019369
       6       -0.000000921152     0.000012685829    -0.000000115673
       7       -0.000007442688     0.000026407448     0.000000026138
       8       -0.000096309586    -0.000089387325    -0.000000538985
       9        0.000000372508    -0.000046659278     0.000000011471
      10        0.000189910341     0.000142650014    -0.000001298165
      11       -0.000005986671     0.000045270790     0.000000057719
      12       -0.000186847444     0.000042942164     0.000006576853
      13       -0.000100891160    -0.000198738124    -0.000002760999
      14       -0.000033839423     0.000056073015    -0.000003111146
      15        0.000283580862     0.000094195951    -0.000001601220
      16       -0.000039675919    -0.000028170913     0.000032712566
      17       -0.000063951209    -0.000001555336    -0.000002166817
      18       -0.000037677176    -0.000023555281    -0.000027955208

  **** Optimization is complete! (in 1 steps) ****
    Final optimized geometry and variables:
    Molecular point group: c1

    Geometry (in Angstrom), charge = 0, multiplicity = 1:

    H           -4.024093540238    -0.454726530445    -0.000112360115
    C           -2.962214540238    -0.297919530445    -0.000079360115
    C           -2.454735540238     0.988978469555    -0.000020360115
    C           -2.105836540238    -1.382631530445    -0.000096360115
    H           -3.120051540238     1.830438469555    -0.000007360115
    C           -1.090105540238     1.189676469555     0.000022639885
    H           -2.500389540238    -2.380228530445    -0.000142360115
    C           -0.739174540238    -1.183301530445    -0.000054360115
    H           -0.680213540238     2.179144469555     0.000068639885
    C           -0.227340540238     0.104540469555     0.000006639885
    H           -0.073208540238    -2.021167530445    -0.000066360115
    C            1.238974459762     0.374429469555     0.000050639885
    O            1.968286459762    -0.725611530445     0.000019639885
    O            1.709187459762     1.462583469555     0.000069639885
    C            3.373556459762    -0.568202530445     0.000057639885
    H            3.695416459762    -0.031587530445    -0.879616360115
    H            3.782700459762    -1.565293530445    -0.000105360115
    H            3.695405459762    -0.031850530445     0.879908639885

  Mulliken Charges: (a.u.)
   Center  Symbol    Alpha    Beta     Spin     Total
       1     H     0.42028  0.42028  0.00000  0.15944
       2     C     3.06972  3.06972  0.00000 -0.13943
       3     C     3.07554  3.07554  0.00000 -0.15107
       4     C     3.07495  3.07495  0.00000 -0.14991
       5     H     0.42036  0.42036  0.00000  0.15927
       6     C     3.07587  3.07587  0.00000 -0.15174
       7     H     0.42187  0.42187  0.00000  0.15625
       8     C     3.08209  3.08209  0.00000 -0.16417
       9     H     0.40667  0.40667  0.00000  0.18666
      10     C     3.01230  3.01230  0.00000 -0.02461
      11     H     0.41101  0.41101  0.00000  0.17797
      12     C     2.78241  2.78241  0.00000  0.43518
      13     O     4.14849  4.14849  0.00000 -0.29698
      14     O     4.21127  4.21127  0.00000 -0.42254
      15     C     3.03660  3.03660  0.00000 -0.07320
      16     H     0.45264  0.45264  0.00000  0.09473
      17     H     0.44528  0.44528  0.00000  0.10943
      18     H     0.45264  0.45264  0.00000  0.09472

   Total alpha = 36.00000, Total beta = 36.00000, Total charge = -0.00000
