  ==> Input File <==

--------------------------------------------------------------------------
set {
	reference rhf
	basis 6-31G*
}

set_num_threads( 4 )
memory 2 gb

molecule MOL {
0 1

O	 1.846825	 1.296220	 0.000415
C	 1.705091	 0.115954	 0.001797
C	 0.381791	 -0.609817	 0.001258
O	 2.721346	 -0.737485	 -0.000216
C	 -0.823008	 0.326187	 0.001381
H	 0.371250	 -1.265087	 -0.865474
H	 0.370908	 -1.265746	 0.867490
C	 -2.149452	 -0.435131	 -0.000098
H	 -0.770201	 0.977095	 -0.865636
H	 -0.771220	 0.975655	 0.869608
C	 -3.368779	 0.488503	 -0.000883
H	 -2.193746	 -1.087250	 -0.871175
H	 -2.195311	 -1.087803	 0.870418
C	 -4.454222	 0.044385	 0.978823
H	 -3.784674	 0.533528	 -1.004947
H	 -3.053107	 1.500244	 0.243797
H	 -4.815485	 -0.951717	 0.739064
H	 -5.304606	 0.718732	 0.955278
H	 -4.077926	 0.022244	 1.997755
C	 4.024888	 -0.184556	 -0.001949
H	 4.179030	 0.422472	 -0.882452
H	 4.701782	 -1.024608	 -0.003642
H	 4.181981	 0.421185	 0.878906

	symmetry c1
}
set optking {
	frozen_dihedral = ("
		15 11 8 12
	")
}

ee = optimize('scf')
oeprop('DIPOLE', 'QUADRUPOLE', 'MULLIKEN_CHARGES')
f=open( 'psi4out.xyz', 'w' )
f.write( "23  " )
f.write( str(ee) + "\n" )
f.write( MOL.save_string_xyz() )
f.close()
--------------------------------------------------------------------------

    Molecular point group: c1
  Charge       = 0
  Multiplicity = 1
  Basis Set: 6-31G*
  Basis Set:
  @DF-RHF Final Energy:  -422.97142038786757
    Total Energy =                       -422.9714203878666012
    Molecular point group: c1
  Basis Set: 6-31G*
  Basis Set:
  Basis Set: 6-31G*
  Basis Set:
  @DF-RHF Final Energy:  -422.97163135559191
    Total Energy =                       -422.9716313555921943
  Basis Set: 6-31G*
  Basis Set:
  Basis Set: 6-31G*
  Basis Set:
  @DF-RHF Final Energy:  -422.97151532044791
    Total Energy =                       -422.9715153204481339
  Basis Set: 6-31G*
  Basis Set:
  Basis Set: 6-31G*
  Basis Set:
  @DF-RHF Final Energy:  -422.97175843715985
    Total Energy =                       -422.9717584371599060
  Basis Set: 6-31G*
  Basis Set:
  Basis Set: 6-31G*
  Basis Set:
  @DF-RHF Final Energy:  -422.97175548837367
    Total Energy =                       -422.9717554883740149
  Basis Set: 6-31G*
  Basis Set:
  Basis Set: 6-31G*
  Basis Set:
  @DF-RHF Final Energy:  -422.97176369572742
    Total Energy =                       -422.9717636957273044
  Basis Set: 6-31G*
  Basis Set:
  Charge       = 0
  Multiplicity = 1
  Basis Set: 6-31G*
  Basis Set:

    Orbital Energies (a.u.)
    -----------------------

    Doubly Occupied:

       1A    -20.603572     2A    -20.545366     3A    -11.372226
       4A    -11.280808     5A    -11.235276     6A    -11.219358
       7A    -11.217719     8A    -11.216259     9A    -11.209479
      10A     -1.469261    11A     -1.362706    12A     -1.091896
      13A     -1.042229    14A     -0.986854    15A     -0.931594
      16A     -0.843832    17A     -0.794678    18A     -0.767367
      19A     -0.696721    20A     -0.683540    21A     -0.671722
      22A     -0.647266    23A     -0.611593    24A     -0.598855
      25A     -0.575430    26A     -0.565853    27A     -0.546557
      28A     -0.524831    29A     -0.522011    30A     -0.503702
      31A     -0.490067    32A     -0.469130    33A     -0.462120
      34A     -0.459297    35A     -0.454913    36A     -0.435101

  @DF-RHF Final Energy:  -422.97176388891836

   => Energetics <=

    Nuclear Repulsion Energy =            452.5047879901667898
    One-Electron Energy =               -1472.7347261713409807
    Two-Electron Energy =                 597.2581742922552621
    DFT Exchange-Correlation Energy =       0.0000000000000000
    Empirical Dispersion Energy =           0.0000000000000000
    PCM Polarization Energy =               0.0000000000000000
    EFP Energy =                            0.0000000000000000
    Total Energy =                       -422.9717638889189857
    Molecular point group: c1
  Basis Set: 6-31G*
  Basis Set:

  -Total Gradient:
     Atom            X                  Y                   Z
    ------   -----------------  -----------------  -----------------
       1        0.000002556242    -0.000001347081    -0.000010299760
       2        0.000000279216    -0.000004871605     0.000020967396
       3        0.000003134102     0.000000093824    -0.000006748669
       4        0.000003034844     0.000004512995    -0.000009276066
       5       -0.000001028686    -0.000007685497    -0.000002649828
       6        0.000000575341    -0.000000483124    -0.000001029332
       7        0.000000638677     0.000000508443    -0.000002304329
       8       -0.002738795405    -0.003532061940     0.002457766880
       9       -0.000002092866    -0.000000068031     0.000001386038
      10       -0.000003526880    -0.000000888653     0.000001210120
      11        0.002994410080     0.003908533294    -0.001335412398
      12        0.001831993575     0.002348692363    -0.001833435213
      13        0.000001454404     0.000007765959     0.000000378501
      14        0.000001258404     0.000009288526     0.000000576627
      15       -0.002089083175    -0.002720101623     0.000716353032
      16       -0.000007577008    -0.000009594515    -0.000000195825
      17       -0.000003365895     0.000003787741    -0.000008995066
      18       -0.000001244153     0.000006521503     0.000010142073
      19        0.000004789178    -0.000011811778    -0.000002426946
      20        0.000001510334    -0.000001318777     0.000008334432
      21       -0.000001636434    -0.000000105353    -0.000001428130
      22        0.000000806034     0.000000525578    -0.000001471459
      23        0.000001910060     0.000000107749    -0.000001442077

  **** Optimization is complete! (in 7 steps) ****
    Final optimized geometry and variables:
    Molecular point group: c1

    Geometry (in Angstrom), charge = 0, multiplicity = 1:

    O            1.826362458080     1.257944711673    -0.107180858122
    C            1.684139241817     0.077781029011    -0.114623522526
    C            0.360535830192    -0.647475789211    -0.106189956711
    O            2.699999716161    -0.775997232762    -0.131901040209
    C           -0.843842752117     0.288387198953    -0.087880660198
    H            0.341198704791    -1.297674145153    -0.976627936782
    H            0.358187917670    -1.308813433653     0.756141950827
    C           -2.172702174769    -0.472553135525    -0.071414609023
    H           -0.804203635813     0.940869484213    -0.954805482153
    H           -0.781003753221     0.936955816807     0.780325372908
    C           -3.399020068055     0.462562371867    -0.102477866144
    H           -2.197044861170    -1.132249822214    -0.935657690906
    H           -2.209831559859    -1.107787460842     0.810521087371
    C           -4.522008255735     0.008236876245     0.832205615274
    H           -3.797717109667     0.504458252026    -1.112114164195
    H           -3.103490814558     1.473723797386     0.162318986253
    H           -4.856435296908    -0.995136780895     0.583092153746
    H           -5.381025090724     0.668964026779     0.766262571376
    H           -4.189931051081    -0.002636102789     1.866576744566
    C            4.003705097469    -0.223484875119    -0.141340463694
    H            4.150260789999     0.389713778508    -1.018852755881
    H            4.680250850582    -1.063763704999    -0.155107552222
    H            4.168916924003     0.375880361453     0.742393080763

  Mulliken Charges: (a.u.)
   Center  Symbol    Alpha    Beta     Spin     Total
       1     O     4.28609  4.28609  0.00000 -0.57218
       2     C     2.60512  2.60512  0.00000  0.78976
       3     C     3.20854  3.20854  0.00000 -0.41709
       4     O     4.30725  4.30725  0.00000 -0.61449
       5     C     3.15457  3.15457  0.00000 -0.30913
       6     H     0.40080  0.40080  0.00000  0.19841
       7     H     0.40072  0.40072  0.00000  0.19857
       8     C     3.15595  3.15595  0.00000 -0.31190
       9     H     0.41150  0.41150  0.00000  0.17701
      10     H     0.41171  0.41171  0.00000  0.17659
      11     C     3.15426  3.15426  0.00000 -0.30853
      12     H     0.42184  0.42184  0.00000  0.15632
      13     H     0.42144  0.42144  0.00000  0.15713
      14     C     3.24026  3.24026  0.00000 -0.48053
      15     H     0.41992  0.41992  0.00000  0.16017
      16     H     0.41757  0.41757  0.00000  0.16485
      17     H     0.42184  0.42184  0.00000  0.15632
      18     H     0.41974  0.41974  0.00000  0.16051
      19     H     0.42185  0.42185  0.00000  0.15631
      20     C     3.09242  3.09242  0.00000 -0.18485
      21     H     0.40908  0.40908  0.00000  0.18184
      22     H     0.40845  0.40845  0.00000  0.18311
      23     H     0.40909  0.40909  0.00000  0.18181

   Total alpha = 36.00000, Total beta = 36.00000, Total charge =  0.00000
