                              Psi4 1.0.54 Driver

  ==> Input File <==

--------------------------------------------------------------------------
set {
	reference rhf
	basis cc-pvtz
}

set_num_threads( 4 )
memory 2 gb

molecule MOL {
0 1

H	 2.386617	 -0.137064	 -0.852832
O	 1.675515	 -0.612943	 -0.465627
C	 1.135873	 0.113391	 0.608264
C	 0.027642	 1.012027	 0.090274
H	 1.902972	 0.727968	 1.072615
H	 0.756163	 -0.561896	 1.370018
C	 -1.138737	 0.285728	 -0.581921
H	 0.464661	 1.708096	 -0.618252
H	 -0.340737	 1.603071	 0.925246
C	 -1.933983	 -0.631436	 0.343653
H	 -0.763151	 -0.285569	 -1.422081
H	 -1.808359	 1.035291	 -0.992333
H	 -2.789188	 -1.049673	 -0.174718
H	 -1.335629	 -1.461368	 0.700418
H	 -2.305435	 -0.092167	 1.209725

	symmetry c1
}
set optking {
	frozen_dihedral = ("
		1 2 3 4
	")
}

ee,wfn = optimize('scf', return_wfn=True)
oeprop( wfn, 'DIPOLE', 'QUADRUPOLE', 'MULLIKEN_CHARGES')
f=open( 'psi4out.xyz', 'w' )
f.write( "15  " )
f.write( str(ee) + "\n" )
f.write( MOL.save_string_xyz() )
f.close()
--------------------------------------------------------------------------

    Molecular point group: c1
  Charge       = 0
  Multiplicity = 1
  Basis Set: CC-PVTZ
  Basis Set:
  @DF-RHF Final Energy:  -232.23537735651473
    Total Energy =                       -232.2353773565148458
    Molecular point group: c1
  Basis Set: CC-PVTZ
  Basis Set:
  Basis Set: CC-PVTZ
  Basis Set:
  @DF-RHF Final Energy:  -232.07205414191898
    Total Energy =                       -232.0720541419188692
  Basis Set: CC-PVTZ
  Basis Set:
  Basis Set: CC-PVTZ
  Basis Set:
  @DF-RHF Final Energy:  -232.18124352484091
    Total Energy =                       -232.1812435248408519
  Basis Set: CC-PVTZ
  Basis Set:
  Basis Set: CC-PVTZ
  Basis Set:
  @DF-RHF Final Energy:  -232.23315345648422
    Total Energy =                       -232.2331534564843309
  Basis Set: CC-PVTZ
  Basis Set:
  @DF-RHF Final Energy:  -232.23561948036664
    Total Energy =                       -232.2356194803667222
  Basis Set: CC-PVTZ
  Basis Set:
  @DF-RHF Final Energy:  -232.23654807460076
    Total Energy =                       -232.2365480746007620
  Basis Set: CC-PVTZ
  Basis Set:
  Basis Set: CC-PVTZ
  Basis Set:
  @DF-RHF Final Energy:  -232.23664482194724
    Total Energy =                       -232.2366448219476069
  Basis Set: CC-PVTZ
  Basis Set:
  Basis Set: CC-PVTZ
  Basis Set:
  @DF-RHF Final Energy:  -232.23664896774841
    Total Energy =                       -232.2366489677483514
  Basis Set: CC-PVTZ
  Basis Set:
  Charge       = 0
  Multiplicity = 1
  Basis Set: CC-PVTZ
  Basis Set:

    Orbital Energies (a.u.)
    -----------------------

    Doubly Occupied:

       1A    -20.546215     2A    -11.265592     3A    -11.212636
       4A    -11.209153     5A    -11.203241     6A     -1.363699
       7A     -1.066023     8A     -0.971071     9A     -0.873721
      10A     -0.784756    11A     -0.692515    12A     -0.641344
      13A     -0.624702    14A     -0.578510    15A     -0.563169
      16A     -0.536209    17A     -0.506944    18A     -0.487023
      19A     -0.469384    20A     -0.453976    21A     -0.428401

  @DF-RHF Final Energy:  -232.23664896344678

   => Energetics <=

    Nuclear Repulsion Energy =            191.4764679990644254
    One-Electron Energy =                -694.4696611677350120
    Two-Electron Energy =                 270.7565442052239177
    DFT Exchange-Correlation Energy =       0.0000000000000000
    Empirical Dispersion Energy =           0.0000000000000000
    PCM Polarization Energy =               0.0000000000000000
    EFP Energy =                            0.0000000000000000
    Total Energy =                       -232.2366489634466689
    Molecular point group: c1
  Basis Set: CC-PVTZ
  Basis Set:

  -Total Gradient:
     Atom            X                  Y                   Z
    ------   -----------------  -----------------  -----------------
       1        0.000659943768    -0.000071059234     0.001347309979
       2       -0.001057187621    -0.000204581548    -0.001593657108
       3        0.001018442617     0.000980894688    -0.000053207704
       4       -0.000590728290    -0.000689361441     0.000294624736
       5        0.000003995105     0.000001018008     0.000001050787
       6        0.000003358101     0.000055366780    -0.000014052265
       7        0.000023088583    -0.000009247412     0.000045639199
       8        0.000024512120     0.000038580128     0.000009096174
       9        0.000012613110    -0.000035239445     0.000007705934
      10       -0.000052058950    -0.000027698046    -0.000015869168
      11       -0.000003793234    -0.000001452058     0.000019936458
      12        0.000009648866    -0.000016995616    -0.000000547767
      13       -0.000038128082    -0.000017211504     0.000009321575
      14       -0.000026942278     0.000005890488    -0.000059741587
      15        0.000013236189    -0.000008903787     0.000002390757

  **** Optimization is complete! (in 9 steps) ****
    Final optimized geometry and variables:
    Molecular point group: c1

    Geometry (in Angstrom), charge = 0, multiplicity = 1:

    H            2.560625971411    -0.080717734297    -0.028775513386
    O            1.785586620768    -0.481969773254     0.316796079046
    C            0.894754309086     0.500902961593     0.781937364547
    C           -0.073844732038     0.970296718013    -0.294487662322
    H            1.439728516296     1.352703446404     1.178158715898
    H            0.356023836327     0.060249715746     1.610207055419
    C           -0.930154852571    -0.132910653813    -0.918018982341
    H            0.495648120980     1.459849932669    -1.080715664321
    H           -0.716760894316     1.732994545396     0.139828279080
    C           -1.921144254515    -0.785197487860     0.042812592436
    H           -0.279352788409    -0.891981765128    -1.335529870105
    H           -1.479771914331     0.295430055703    -1.750494490591
    H           -2.544642421887    -1.501740009003    -0.479433067900
    H           -1.418464919915    -1.316779571544     0.841645149271
    H           -2.576088650689    -0.046364746137     0.494278190107

  Mulliken Charges: (a.u.)
   Center  Symbol    Alpha    Beta     Spin     Total
       1     H     0.39392  0.39392  0.00000  0.21215
       2     O     4.20470  4.20470  0.00000 -0.40940
       3     C     2.98320  2.98320  0.00000  0.03360
       4     C     3.09538  3.09538  0.00000 -0.19075
       5     H     0.45889  0.45889  0.00000  0.08221
       6     H     0.45829  0.45829  0.00000  0.08341
       7     C     3.08428  3.08428  0.00000 -0.16855
       8     H     0.45498  0.45498  0.00000  0.09004
       9     H     0.45649  0.45649  0.00000  0.08701
      10     C     3.15455  3.15455  0.00000 -0.30911
      11     H     0.44906  0.44906  0.00000  0.10189
      12     H     0.45082  0.45082  0.00000  0.09835
      13     H     0.44693  0.44693  0.00000  0.10614
      14     H     0.45145  0.45145  0.00000  0.09710
      15     H     0.45705  0.45705  0.00000  0.08590

   Total alpha = 21.00000, Total beta = 21.00000, Total charge = -0.00000

*** Psi4 exiting successfully. Buy a developer a beer!
