  ==> Input File <==

--------------------------------------------------------------------------
set {
	reference rhf
	basis cc-pvtz
}

set_num_threads( 4 )
memory 2 gb

molecule MOL {
0 1

H	 -1.123413	 4.002574	 0.283071
O	 -1.122172	 3.071697	 0.407651
C	 0.056734	 2.515718	 -0.114923
C	 0.027642	 1.012027	 0.090274
H	 0.925897	 2.926223	 0.392826
H	 0.153999	 2.755977	 -1.170042
C	 -1.138737	 0.285728	 -0.581921
H	 -0.006130	 0.820388	 1.157813
H	 0.969446	 0.607256	 -0.272190
C	 -1.933983	 -0.631436	 0.343653
H	 -0.763151	 -0.285569	 -1.422081
H	 -1.808359	 1.035291	 -0.992333
H	 -2.789188	 -1.049673	 -0.174718
H	 -1.335629	 -1.461368	 0.700418
H	 -2.305435	 -0.092167	 1.209725

	symmetry c1
}
set optking {
	frozen_dihedral = ("
		8 4 7 11
	")
}

ee = optimize('scf')
oeprop('DIPOLE', 'QUADRUPOLE', 'MULLIKEN_CHARGES')
f=open( 'psi4out.xyz', 'w' )
f.write( "15  " )
f.write( str(ee) + "\n" )
f.write( MOL.save_string_xyz() )
f.close()
--------------------------------------------------------------------------

    Molecular point group: c1
  Charge       = 0
  Multiplicity = 1
  Basis Set: CC-PVTZ
  Basis Set:
  @DF-RHF Final Energy:  -232.23376223066560
    Total Energy =                       -232.2337622306656613
    Molecular point group: c1
  Basis Set: CC-PVTZ
  Basis Set:
  Basis Set: CC-PVTZ
  Basis Set:
  @DF-RHF Final Energy:  -232.23440989449705
    Total Energy =                       -232.2344098944972757
  Basis Set: CC-PVTZ
  Basis Set:
  Basis Set: CC-PVTZ
  Basis Set:
  @DF-RHF Final Energy:  -232.23447415558411
    Total Energy =                       -232.2344741555843370
  Basis Set: CC-PVTZ
  Basis Set:
  Basis Set: CC-PVTZ
  Basis Set:
  @DF-RHF Final Energy:  -232.23447646374169
    Total Energy =                       -232.2344764637418848
  Basis Set: CC-PVTZ
  Basis Set:
  Basis Set: CC-PVTZ
  Basis Set:
  @DF-RHF Final Energy:  -232.23447791321115
    Total Energy =                       -232.2344779132112649
  Basis Set: CC-PVTZ
  Basis Set:
  Charge       = 0
  Multiplicity = 1
  Basis Set: CC-PVTZ
  Basis Set:

    Orbital Energies (a.u.)
    -----------------------

    Doubly Occupied:

       1A    -20.546857     2A    -11.266410     3A    -11.210259
       4A    -11.207627     5A    -11.200466     6A     -1.364753
       7A     -1.063143     8A     -0.974455     9A     -0.856330
      10A     -0.787303    11A     -0.708810    12A     -0.638552
      13A     -0.607811    14A     -0.595957    15A     -0.547436
      16A     -0.530573    17A     -0.511215    18A     -0.475846
      19A     -0.462097    20A     -0.456779    21A     -0.433449

  @DF-RHF Final Energy:  -232.23447799061918

   => Energetics <=

    Nuclear Repulsion Energy =            190.0027605491583529
    One-Electron Energy =                -691.5822217811128212
    Two-Electron Energy =                 269.3449832413351714
    DFT Exchange-Correlation Energy =       0.0000000000000000
    Empirical Dispersion Energy =           0.0000000000000000
    PCM Polarization Energy =               0.0000000000000000
    EFP Energy =                            0.0000000000000000
    Total Energy =                       -232.2344779906193253
    Molecular point group: c1
  Basis Set: CC-PVTZ
  Basis Set:

  -Total Gradient:
     Atom            X                  Y                   Z
    ------   -----------------  -----------------  -----------------
       1       -0.000001522507     0.000003697942     0.000004790348
       2        0.000001035021     0.000009629255    -0.000002354130
       3       -0.000005169688    -0.000013127310    -0.000001549825
       4       -0.001391096219     0.001739198429     0.000632606020
       5       -0.000002888526    -0.000002395181    -0.000007602926
       6        0.000000894111     0.000002579241     0.000001962660
       7       -0.000021393951     0.001605288241    -0.001617210643
       8        0.001165392916    -0.001698160717    -0.000256307328
       9        0.000000603413    -0.000006040547    -0.000007487322
      10       -0.000003872798    -0.000005281848     0.000010267192
      11        0.000244871264    -0.001637094948     0.001238052300
      12        0.000008963229    -0.000005009775     0.000006403365
      13        0.000007174817     0.000006135041     0.000002654703
      14        0.000000689463    -0.000002301883    -0.000007502983
      15       -0.000003680549     0.000002884058     0.000003278571

  **** Optimization is complete! (in 6 steps) ****
    Final optimized geometry and variables:
    Molecular point group: c1

    Geometry (in Angstrom), charge = 0, multiplicity = 1:

    H           -0.268994118741     2.700184761015     0.234856344850
    O           -0.247103697863     1.778409683167     0.413152394755
    C            0.893450818808     1.199117943357    -0.165829518818
    C            0.848288547912    -0.298753320321     0.059044286662
    H            1.794607908459     1.610098270923     0.282146744952
    H            0.928169279108     1.412825914299    -1.232432486472
    C           -0.327121209330    -1.003460715918    -0.645469298392
    H            0.811617139623    -0.485907272230     1.126858717347
    H            1.790875196108    -0.714149684034    -0.284225346458
    C           -1.101787054338    -1.942863909837     0.274724157631
    H            0.046829273963    -1.577331342081    -1.487019362470
    H           -1.009435467521    -0.262937633785    -1.043708917863
    H           -1.906580210790    -2.437787819127    -0.257379060907
    H           -0.454842098578    -2.711960677129     0.684795305742
    H           -1.535358248757    -1.396791503738     1.104952080798

  Mulliken Charges: (a.u.)
   Center  Symbol    Alpha    Beta     Spin     Total
       1     H     0.39530  0.39530  0.00000  0.20940
       2     O     4.19975  4.19975  0.00000 -0.39949
       3     C     2.97480  2.97480  0.00000  0.05041
       4     C     3.09183  3.09183  0.00000 -0.18367
       5     H     0.46443  0.46443  0.00000  0.07114
       6     H     0.47260  0.47260  0.00000  0.05480
       7     C     3.08266  3.08266  0.00000 -0.16531
       8     H     0.45302  0.45302  0.00000  0.09396
       9     H     0.45141  0.45141  0.00000  0.09719
      10     C     3.14841  3.14841  0.00000 -0.29682
      11     H     0.45435  0.45435  0.00000  0.09130
      12     H     0.45194  0.45194  0.00000  0.09613
      13     H     0.45170  0.45170  0.00000  0.09660
      14     H     0.45701  0.45701  0.00000  0.08597
      15     H     0.45080  0.45080  0.00000  0.09840

   Total alpha = 21.00000, Total beta = 21.00000, Total charge = -0.00000
