  ==> Input File <==

--------------------------------------------------------------------------
set {
	reference rhf
	basis cc-pvtz
}

set_num_threads( 4 )
memory 2 gb

molecule MOL {
0 1

H	 0.616325	 -0.921299	 2.584501
O	 0.490302	 -0.696621	 1.681344
C	 0.237312	 0.679014	 1.556281
C	 0.027642	 1.012027	 0.090274
H	 1.078985	 1.254196	 1.933797
H	 -0.634880	 0.958804	 2.140628
C	 -1.138737	 0.285728	 -0.581921
H	 0.943573	 0.775133	 -0.441194
H	 -0.114008	 2.086987	 0.008965
C	 -1.933983	 -0.631436	 0.343653
H	 -0.763151	 -0.285569	 -1.422081
H	 -1.808359	 1.035291	 -0.992333
H	 -2.789188	 -1.049673	 -0.174718
H	 -1.335629	 -1.461368	 0.700418
H	 -2.305435	 -0.092167	 1.209725

	symmetry c1
}
set optking {
	frozen_dihedral = ("
		8 4 7 11
	")
}

ee = optimize('scf')
oeprop('DIPOLE', 'QUADRUPOLE', 'MULLIKEN_CHARGES')
f=open( 'psi4out.xyz', 'w' )
f.write( "15  " )
f.write( str(ee) + "\n" )
f.write( MOL.save_string_xyz() )
f.close()
--------------------------------------------------------------------------

    Molecular point group: c1
  Charge       = 0
  Multiplicity = 1
  Basis Set: CC-PVTZ
  Basis Set:
  @DF-RHF Final Energy:  -232.22431691756901
    Total Energy =                       -232.2243169175688990
    Molecular point group: c1
  Basis Set: CC-PVTZ
  Basis Set:
  Basis Set: CC-PVTZ
  Basis Set:
  @DF-RHF Final Energy:  -232.22789271006079
    Total Energy =                       -232.2278927100607575
  Basis Set: CC-PVTZ
  Basis Set:
  Basis Set: CC-PVTZ
  Basis Set:
  @DF-RHF Final Energy:  -232.22885496745093
    Total Energy =                       -232.2288549674511842
  Basis Set: CC-PVTZ
  Basis Set:
  Basis Set: CC-PVTZ
  Basis Set:
  @DF-RHF Final Energy:  -232.22914517037134
    Total Energy =                       -232.2291451703712255
  Basis Set: CC-PVTZ
  Basis Set:
  Basis Set: CC-PVTZ
  Basis Set:
  @DF-RHF Final Energy:  -232.22920549952579
    Total Energy =                       -232.2292054995257331
  Basis Set: CC-PVTZ
  Basis Set:
  Basis Set: CC-PVTZ
  Basis Set:
  @DF-RHF Final Energy:  -232.22921493242217
    Total Energy =                       -232.2292149324222805
  Basis Set: CC-PVTZ
  Basis Set:
  Charge       = 0
  Multiplicity = 1
  Basis Set: CC-PVTZ
  Basis Set:

    Orbital Energies (a.u.)
    -----------------------

    Doubly Occupied:

       1A    -20.546619     2A    -11.265918     3A    -11.211498
       4A    -11.210172     5A    -11.198565     6A     -1.364259
       7A     -1.060184     8A     -0.971877     9A     -0.870697
      10A     -0.771462    11A     -0.708460    12A     -0.649496
      13A     -0.610281    14A     -0.571651    15A     -0.560047
      16A     -0.532687    17A     -0.515308    18A     -0.477297
      19A     -0.459478    20A     -0.452230    21A     -0.430461

  @DF-RHF Final Energy:  -232.22921556129623

   => Energetics <=

    Nuclear Repulsion Energy =            192.8701947091812769
    One-Electron Energy =                -697.3215311558035410
    Two-Electron Energy =                 272.2221208853260919
    DFT Exchange-Correlation Energy =       0.0000000000000000
    Empirical Dispersion Energy =           0.0000000000000000
    PCM Polarization Energy =               0.0000000000000000
    EFP Energy =                            0.0000000000000000
    Total Energy =                       -232.2292155612961437
    Molecular point group: c1
  Basis Set: CC-PVTZ
  Basis Set:

  -Total Gradient:
     Atom            X                  Y                   Z
    ------   -----------------  -----------------  -----------------
       1        0.000003782523     0.000009831566    -0.000001449526
       2       -0.000018868485    -0.000023095918    -0.000036103142
       3       -0.000004320093     0.000010377612     0.000046244818
       4       -0.000345697778     0.002534769659    -0.001967459301
       5       -0.000016785339     0.000021676440    -0.000031555321
       6       -0.000002817752    -0.000003082910     0.000010497198
       7        0.000348905151    -0.002577444546     0.001959484978
       8        0.000287384150    -0.001749849413     0.001342420216
       9       -0.000006438660    -0.000023370834     0.000014187521
      10        0.000023796308     0.000011258171     0.000030794257
      11       -0.000244457606     0.001773271872    -0.001331406922
      12       -0.000011243386     0.000000030035    -0.000005171198
      13       -0.000000508679    -0.000008524949    -0.000003088899
      14       -0.000013750434     0.000017717053    -0.000018489758
      15        0.000001020081     0.000006436160    -0.000008904920

  **** Optimization is complete! (in 7 steps) ****
    Final optimized geometry and variables:
    Molecular point group: c1

    Geometry (in Angstrom), charge = 0, multiplicity = 1:

    H            1.308413447223    -0.955601360879     1.941121802707
    O            1.164537363688    -0.748500811845     1.036227390910
    C            0.688570739121     0.567908319689     0.911784068389
    C            0.440016593727     0.873298808951    -0.555130755131
    H            1.430537385074     1.267704177394     1.287991214677
    H           -0.213835980838     0.705082940903     1.500187232052
    C           -0.758132259643     0.169955222867    -1.246264756380
    H            1.356272217673     0.613753179236    -1.072537418552
    H            0.324049750130     1.948166904985    -0.642694005500
    C           -1.651460601497    -0.719859999535    -0.384042547720
    H           -0.384583106873    -0.411427279703    -2.081007946340
    H           -1.384289976366     0.934726193940    -1.694897091409
    H           -2.437210497975    -1.149300225069    -0.995403859454
    H           -1.095059900469    -1.528349749427     0.068200592249
    H           -2.133633015016    -0.158088134051     0.408538685393

  Mulliken Charges: (a.u.)
   Center  Symbol    Alpha    Beta     Spin     Total
       1     H     0.39444  0.39444  0.00000  0.21112
       2     O     4.20218  4.20218  0.00000 -0.40437
       3     C     2.97981  2.97981  0.00000  0.04038
       4     C     3.09777  3.09777  0.00000 -0.19554
       5     H     0.45887  0.45887  0.00000  0.08227
       6     H     0.46842  0.46842  0.00000  0.06315
       7     C     3.08327  3.08327  0.00000 -0.16654
       8     H     0.45022  0.45022  0.00000  0.09957
       9     H     0.45110  0.45110  0.00000  0.09780
      10     C     3.15821  3.15821  0.00000 -0.31642
      11     H     0.45181  0.45181  0.00000  0.09638
      12     H     0.45426  0.45426  0.00000  0.09149
      13     H     0.44722  0.44722  0.00000  0.10556
      14     H     0.44430  0.44430  0.00000  0.11140
      15     H     0.45812  0.45812  0.00000  0.08376

   Total alpha = 21.00000, Total beta = 21.00000, Total charge =  0.00000
