                              Psi4 1.0.54 Driver

  ==> Input File <==

--------------------------------------------------------------------------
set {
	reference rhf
	basis cc-pvtz
}

set_num_threads( 4 )
memory 2 gb

molecule MOL {
0 1

O	 -2.071633	 -1.227563	 -0.223463
C	 -1.652164	 -0.152425	 0.058082
C	 -0.327811	 0.006324	 0.778296
C	 -2.402515	 1.108629	 -0.298924
C	 0.843231	 -0.001575	 -0.211665
H	 -0.319484	 0.928173	 1.350354
H	 -0.227804	 -0.823091	 1.466705
C	 1.225522	 1.398359	 -0.683117
H	 0.591325	 -0.612772	 -1.074611
H	 1.696535	 -0.472942	 0.263783
C	 2.397906	 1.396490	 -1.658143
H	 0.365619	 1.867840	 -1.152881
H	 1.474142	 2.009334	 0.179691
H	 2.166353	 0.821533	 -2.548560
H	 3.282165	 0.961401	 -1.205205
H	 2.647649	 2.403572	 -1.970897
H	 -3.240910	 0.874416	 -0.936711
H	 -1.747554	 1.818823	 -0.790984
H	 -2.760419	 1.579708	 0.610998

	symmetry c1
}
set optking {
	frozen_dihedral = ("
		9 5 3 2
	")
}

ee,wfn = optimize('scf', return_wfn=True)
oeprop( wfn, 'DIPOLE', 'QUADRUPOLE', 'MULLIKEN_CHARGES')
f=open( 'psi4out.xyz', 'w' )
f.write( "19  " )
f.write( str(ee) + "\n" )
f.write( MOL.save_string_xyz() )
f.close()
--------------------------------------------------------------------------

    Molecular point group: c1
  Charge       = 0
  Multiplicity = 1
  Basis Set: CC-PVTZ
  Basis Set:
  @DF-RHF Final Energy:  -309.17220250453011
    Total Energy =                       -309.1722025045302189
    Molecular point group: c1
  Basis Set: CC-PVTZ
  Basis Set:
  Basis Set: CC-PVTZ
  Basis Set:
  @DF-RHF Final Energy:  -309.17303636209431
    Total Energy =                       -309.1730363620944217
  Basis Set: CC-PVTZ
  Basis Set:
  Basis Set: CC-PVTZ
  Basis Set:
  @DF-RHF Final Energy:  -309.17144454563481
    Total Energy =                       -309.1714445456345857
  Basis Set: CC-PVTZ
  Basis Set:
  Basis Set: CC-PVTZ
  Basis Set:
  @DF-RHF Final Energy:  -309.17348683613807
    Total Energy =                       -309.1734868361380109
  Basis Set: CC-PVTZ
  Basis Set:
  @DF-RHF Final Energy:  -309.17360805247722
    Total Energy =                       -309.1736080524773911
  @DF-RHF Final Energy:  -309.17403696458950
    Total Energy =                       -309.1740369645896180
  @DF-RHF Final Energy:  -309.17438277062485
    Total Energy =                       -309.1743827706249022
  @DF-RHF Final Energy:  -309.17480764446532
    Total Energy =                       -309.1748076444656022
  @DF-RHF Final Energy:  -309.17528444970372
    Total Energy =                       -309.1752844497037813
  @DF-RHF Final Energy:  -309.17533350009614
    Total Energy =                       -309.1753335000960874
  @DF-RHF Final Energy:  -309.17615995488126
    Total Energy =                       -309.1761599548810295
  @DF-RHF Final Energy:  -309.17648381072308
    Total Energy =                       -309.1764838107231981
  @DF-RHF Final Energy:  -309.17524283136549
    Total Energy =                       -309.1752428313654946
  @DF-RHF Final Energy:  -309.17685829464256
    Total Energy =                       -309.1768582946422157
  @DF-RHF Final Energy:  -309.17692861798912
    Total Energy =                       -309.1769286179894607
  Basis Set: CC-PVTZ
  Basis Set:
  @DF-RHF Final Energy:  -309.17710056958276
    Total Energy =                       -309.1771005695828762
  Basis Set: CC-PVTZ
  Basis Set:
  Basis Set: CC-PVTZ
  Basis Set:
  @DF-RHF Final Energy:  -309.17710511182639
    Total Energy =                       -309.1771051118265632
  Basis Set: CC-PVTZ
  Basis Set:
  Basis Set: CC-PVTZ
  Basis Set:
  @DF-RHF Final Energy:  -309.17710645074197
    Total Energy =                       -309.1771064507423716
  Basis Set: CC-PVTZ
  Basis Set:
  Charge       = 0
  Multiplicity = 1
  Basis Set: CC-PVTZ
  Basis Set:

    Orbital Energies (a.u.)
    -----------------------

    Doubly Occupied:

       1A    -20.539946     2A    -11.322120     3A    -11.230757
       4A    -11.227378     5A    -11.214526     6A    -11.213763
       7A    -11.205363     8A     -1.400380     9A     -1.085073
      10A     -1.030219    11A     -0.983242    12A     -0.885938
      13A     -0.802138    14A     -0.730702    15A     -0.669337
      16A     -0.632609    17A     -0.627999    18A     -0.615765
      19A     -0.580515    20A     -0.571855    21A     -0.560236
      22A     -0.523391    23A     -0.517321    24A     -0.498046
      25A     -0.475932    26A     -0.468105    27A     -0.459121
      28A     -0.404435

  @DF-RHF Final Energy:  -309.17710659233296

   => Energetics <=

    Nuclear Repulsion Energy =            305.7122649279385769
    One-Electron Energy =               -1024.8263295179071974
    Two-Electron Energy =                 409.9369579976357727
    DFT Exchange-Correlation Energy =       0.0000000000000000
    Empirical Dispersion Energy =           0.0000000000000000
    PCM Polarization Energy =               0.0000000000000000
    EFP Energy =                            0.0000000000000000
    Total Energy =                       -309.1771065923328479
    Molecular point group: c1
  Basis Set: CC-PVTZ
  Basis Set:

  -Total Gradient:
     Atom            X                  Y                   Z
    ------   -----------------  -----------------  -----------------
       1       -0.000014880945     0.000033810894     0.000036293946
       2        0.000406793772    -0.002276166439     0.001085906053
       3       -0.000850409686     0.003602463175    -0.002188860932
       4        0.000031069180    -0.000029191844     0.000029343185
       5        0.001795935952    -0.003195678579     0.003638645195
       6       -0.000005178152     0.000011974732     0.000003198411
       7       -0.000010111846    -0.000003692024     0.000006716423
       8        0.000000734486     0.000004689375    -0.000010490780
       9       -0.001336032940     0.001823449893    -0.002570914981
      10       -0.000000761386    -0.000005006674     0.000005685255
      11       -0.000008750117     0.000007285381    -0.000000463289
      12       -0.000001937644     0.000002580276    -0.000007347660
      13        0.000000700555     0.000002212966    -0.000000454161
      14       -0.000002117571    -0.000000570242    -0.000000608768
      15        0.000007082505    -0.000001683345     0.000006519001
      16        0.000002500280     0.000004155241    -0.000004201370
      17       -0.000010149211     0.000007026386    -0.000004487745
      18       -0.000000674509    -0.000002638735    -0.000017489992
      19       -0.000003812727     0.000014979565    -0.000006987791

  **** Optimization is complete! (in 19 steps) ****
    Final optimized geometry and variables:
    Molecular point group: c1

    Geometry (in Angstrom), charge = 0, multiplicity = 1:

    O           -1.301678070955    -1.151852899040    -0.598520751903
    C           -1.347136290462    -0.507956761028     0.397926824422
    C           -0.107013412311     0.053072249200     1.069692171059
    C           -2.662586207673    -0.206212892538     1.079189704807
    C            1.189017927082    -0.116593436625     0.278510034871
    H           -0.290648242048     1.094858953730     1.316517294849
    H           -0.039596637702    -0.459655095751     2.026752708656
    C            1.476493538834     1.058964190427    -0.655046513833
    H            1.115064546546    -1.014479881078    -0.320474807631
    H            2.018762513019    -0.240601887467     0.965926165354
    C            2.744394536170     0.864693327444    -1.478740320122
    H            0.631888175536     1.197218296080    -1.323540699249
    H            1.562393980415     1.972078037546    -0.071224596144
    H            2.670702425376    -0.018444554007    -2.103794573322
    H            3.612646798747     0.745183221654    -0.838721012466
    H            2.925899235240     1.714743235301    -2.126319166053
    H           -3.453465809199    -0.780641972516     0.621887108729
    H           -2.883504727544     0.851385366149     0.978856257227
    H           -2.609121407863    -0.425731231643     2.139142111595

  Mulliken Charges: (a.u.)
   Center  Symbol    Alpha    Beta     Spin     Total
       1     O     4.17290  4.17290  0.00000 -0.34580
       2     C     2.85904  2.85904  0.00000  0.28192
       3     C     3.12132  3.12132  0.00000 -0.24263
       4     C     3.15082  3.15082  0.00000 -0.30164
       5     C     3.09457  3.09457  0.00000 -0.18915
       6     H     0.44416  0.44416  0.00000  0.11167
       7     H     0.43601  0.43601  0.00000  0.12798
       8     C     3.08143  3.08143  0.00000 -0.16286
       9     H     0.44102  0.44102  0.00000  0.11797
      10     H     0.44675  0.44675  0.00000  0.10650
      11     C     3.15152  3.15152  0.00000 -0.30304
      12     H     0.45092  0.45092  0.00000  0.09815
      13     H     0.45781  0.45781  0.00000  0.08438
      14     H     0.45131  0.45131  0.00000  0.09737
      15     H     0.45651  0.45651  0.00000  0.08697
      16     H     0.44879  0.44879  0.00000  0.10242
      17     H     0.43545  0.43545  0.00000  0.12910
      18     H     0.44886  0.44886  0.00000  0.10229
      19     H     0.45080  0.45080  0.00000  0.09840

   Total alpha = 28.00000, Total beta = 28.00000, Total charge = -0.00000

*** Psi4 exiting successfully. Buy a developer a beer!
