  ==> Input File <==

--------------------------------------------------------------------------
set {
	reference rhf
	basis cc-pvtz
}

set_num_threads( 4 )
memory 2 gb

molecule MOL {
0 1

H	 -0.994236	 0.466084	 -0.929271
N	 -0.712187	 0.000026	 -0.093397
C	 0.734067	 -0.000020	 0.038424
H	 -1.065988	 -0.931559	 -0.142578
H	 1.140372	 -0.872115	 -0.458226
H	 1.140363	 0.872301	 -0.457869
H	 1.095085	 -0.000244	 1.065614

	symmetry c1
}
set optking {
	frozen_dihedral = ("
		1 2 3 7
	")
}

ee = optimize('scf')
oeprop('DIPOLE', 'QUADRUPOLE', 'MULLIKEN_CHARGES')
f=open( 'psi4out.xyz', 'w' )
f.write( "7  " )
f.write( str(ee) + "\n" )
f.write( MOL.save_string_xyz() )
f.close()
--------------------------------------------------------------------------

    Molecular point group: c1
  Charge       = 0
  Multiplicity = 1
  Basis Set: CC-PVTZ
  Basis Set:
  @DF-RHF Final Energy:   -95.25069069403746
    Total Energy =                        -95.2506906940374023
    Molecular point group: c1
  Basis Set: CC-PVTZ
  Basis Set:
  Basis Set: CC-PVTZ
  Basis Set:
  @DF-RHF Final Energy:   -95.25212437431807
    Total Energy =                        -95.2521243743180577
  Basis Set: CC-PVTZ
  Basis Set:
  Basis Set: CC-PVTZ
  Basis Set:
  @DF-RHF Final Energy:   -95.25226680282563
    Total Energy =                        -95.2522668028256874
  Basis Set: CC-PVTZ
  Basis Set:
  Basis Set: CC-PVTZ
  Basis Set:
  @DF-RHF Final Energy:   -95.25227242280894
    Total Energy =                        -95.2522724228089430
  Basis Set: CC-PVTZ
  Basis Set:
  Charge       = 0
  Multiplicity = 1
  Basis Set: CC-PVTZ
  Basis Set:

    Orbital Energies (a.u.)
    -----------------------

    Doubly Occupied:

       1A    -15.526472     2A    -11.235343     3A     -1.170020
       4A     -0.897399     5A     -0.667301     6A     -0.601669
       7A     -0.561434     8A     -0.516459     9A     -0.383145

  @DF-RHF Final Energy:   -95.25227301357825

   => Energetics <=

    Nuclear Repulsion Energy =             42.3685955494508519
    One-Electron Energy =                -212.1232534500222755
    Two-Electron Energy =                  74.5023848869931840
    DFT Exchange-Correlation Energy =       0.0000000000000000
    Empirical Dispersion Energy =           0.0000000000000000
    PCM Polarization Energy =               0.0000000000000000
    EFP Energy =                            0.0000000000000000
    Total Energy =                        -95.2522730135782467
    Molecular point group: c1
  Basis Set: CC-PVTZ
  Basis Set:

  -Total Gradient:
     Atom            X                  Y                   Z
    ------   -----------------  -----------------  -----------------
       1       -0.000070207057     0.002452740357     0.001393695623
       2        0.000011437229    -0.002430777606    -0.001760160668
       3        0.000041061966    -0.002659052290     0.000408000439
       4       -0.000001555700     0.000017195230    -0.000002417055
       5       -0.000020113841     0.000033110118     0.000006588102
       6        0.000004158105     0.000003293846     0.000003676949
       7        0.000035219299     0.002583490345    -0.000049383389

  **** Optimization is complete! (in 5 steps) ****
    Final optimized geometry and variables:
    Molecular point group: c1

    Geometry (in Angstrom), charge = 0, multiplicity = 1:

    H           -1.014821415469     0.480910189585    -0.864026964805
    N           -0.716750960723     0.023878848516    -0.031351041447
    C            0.731836194212     0.001096799409     0.080759063494
    H           -1.111958145657    -0.890039869071    -0.013379950162
    H            1.204601591358    -0.846617276958    -0.408845193888
    H            1.138542771695     0.901695460050    -0.362569276191
    H            1.028575912519     0.009211008439     1.122839402503

  Mulliken Charges: (a.u.)
   Center  Symbol    Alpha    Beta     Spin     Total
       1     H     0.42615  0.42615  0.00000  0.14770
       2     N     3.69032  3.69032  0.00000 -0.38064
       3     C     3.06867  3.06867  0.00000 -0.13734
       4     H     0.42733  0.42733  0.00000  0.14533
       5     H     0.46994  0.46994  0.00000  0.06012
       6     H     0.45882  0.45882  0.00000  0.08236
       7     H     0.45877  0.45877  0.00000  0.08246

   Total alpha =  9.00000, Total beta =  9.00000, Total charge =  0.00000
