                              Psi4 1.0.54 Driver

  ==> Input File <==

--------------------------------------------------------------------------
set {
	reference rhf
	basis cc-pvtz
}

set_num_threads( 4 )
memory 2 gb

molecule MOL {
0 1

H	 1.376092	 0.202003	 -1.904879
C	 1.153803	 1.021656	 -1.208884
C	 0.692262	 0.592428	 0.156232
O	 1.280341	 2.144171	 -1.557571
C	 -0.554654	 -0.292621	 0.086567
H	 0.514401	 1.477838	 0.752262
H	 1.506049	 0.034005	 0.614263
C	 -1.846385	 0.513195	 -0.016346
H	 -0.473986	 -0.956115	 -0.769708
H	 -0.597929	 -0.929215	 0.966651
C	 -3.089953	 -0.365049	 -0.098564
H	 -1.798267	 1.154820	 -0.891143
H	 -1.925398	 1.173265	 0.842889
H	 -3.055079	 -1.012299	 -0.968245
H	 -3.988403	 0.236438	 -0.170014
H	 -3.183055	 -0.995885	 0.779079

	symmetry c1
}
set optking {
	frozen_dihedral = ("
		6 3 5 9
	")
}

ee,wfn = optimize('scf', return_wfn=True)
oeprop( wfn, 'DIPOLE', 'QUADRUPOLE', 'MULLIKEN_CHARGES')
f=open( 'psi4out.xyz', 'w' )
f.write( "16  " )
f.write( str(ee) + "\n" )
f.write( MOL.save_string_xyz() )
f.close()
--------------------------------------------------------------------------

    Molecular point group: c1
  Charge       = 0
  Multiplicity = 1
  Basis Set: CC-PVTZ
  Basis Set:
  @DF-RHF Final Energy:  -270.11764313504824
    Total Energy =                       -270.1176431350480129
    Molecular point group: c1
  Basis Set: CC-PVTZ
  Basis Set:
  Basis Set: CC-PVTZ
  Basis Set:
  @DF-RHF Final Energy:  -270.11774618390467
    Total Energy =                       -270.1177461839046714
  Basis Set: CC-PVTZ
  Basis Set:
  Basis Set: CC-PVTZ
  Basis Set:
  @DF-RHF Final Energy:  -270.11711406599142
    Total Energy =                       -270.1171140659914727
  Basis Set: CC-PVTZ
  Basis Set:
  Basis Set: CC-PVTZ
  Basis Set:
  @DF-RHF Final Energy:  -270.11777433649240
    Total Energy =                       -270.1177743364925163
  Basis Set: CC-PVTZ
  Basis Set:
  Basis Set: CC-PVTZ
  Basis Set:
  @DF-RHF Final Energy:  -270.11778009851912
    Total Energy =                       -270.1177800985191197
  Basis Set: CC-PVTZ
  Basis Set:
  Charge       = 0
  Multiplicity = 1
  Basis Set: CC-PVTZ
  Basis Set:

    Orbital Energies (a.u.)
    -----------------------

    Doubly Occupied:

       1A    -20.552515     2A    -11.321560     3A    -11.234506
       4A    -11.233887     5A    -11.224095     6A    -11.214830
       7A     -1.407444     8A     -1.096604     9A     -1.017727
      10A     -0.905314    11A     -0.816591    12A     -0.791961
      13A     -0.670960    14A     -0.659080    15A     -0.615360
      16A     -0.611071    17A     -0.591223    18A     -0.542482
      19A     -0.528023    20A     -0.526617    21A     -0.487092
      22A     -0.481192    23A     -0.468311    24A     -0.412882

  @DF-RHF Final Energy:  -270.11778041495779

   => Energetics <=

    Nuclear Repulsion Energy =            233.3743871131317746
    One-Electron Energy =                -828.1616824327231825
    Two-Electron Energy =                 324.6695149046334450
    DFT Exchange-Correlation Energy =       0.0000000000000000
    Empirical Dispersion Energy =           0.0000000000000000
    PCM Polarization Energy =               0.0000000000000000
    EFP Energy =                            0.0000000000000000
    Total Energy =                       -270.1177804149579629
    Molecular point group: c1
  Basis Set: CC-PVTZ
  Basis Set:

  -Total Gradient:
     Atom            X                  Y                   Z
    ------   -----------------  -----------------  -----------------
       1        0.000003332711     0.000034544681     0.000018209976
       2        0.000000856832    -0.000055029944    -0.000017902689
       3        0.000873912085    -0.001279192116     0.002469430434
       4       -0.000015438012     0.000009522936    -0.000015230348
       5        0.001313900778    -0.002011038365     0.001278109952
       6       -0.000908243523     0.001395348108    -0.002246313707
       7       -0.000035709990    -0.000025432403     0.000007396378
       8        0.000016889878     0.000019101018     0.000005883936
       9       -0.001252293522     0.001919073458    -0.001516275329
      10       -0.000000202854     0.000001521167     0.000005516184
      11        0.000006184790    -0.000003671249     0.000007066173
      12        0.000006293606    -0.000007634931     0.000004612035
      13       -0.000010137137     0.000002625903     0.000002845394
      14        0.000000792552     0.000000840328    -0.000000989018
      15        0.000000287721     0.000001571089     0.000000363830
      16       -0.000000425919    -0.000002149682    -0.000002723206

  **** Optimization is complete! (in 6 steps) ****
    Final optimized geometry and variables:
    Molecular point group: c1

    Geometry (in Angstrom), charge = 0, multiplicity = 1:

    H            1.714959418255    -0.378072057097    -1.510710404510
    C            1.533865132677     0.426348905600    -0.785176668345
    C            1.120065403289    -0.036837947251     0.586601348459
    O            1.667989442189     1.555478730088    -1.108217860813
    C           -0.140045764605    -0.912342452679     0.539202920531
    H            0.968706600740     0.843652665141     1.197021431195
    H            1.951751739432    -0.605854744927     0.992888199700
    C           -1.430524086015    -0.097684205423     0.460303004892
    H           -0.091143532308    -1.568306661620    -0.326817262518
    H           -0.168786747324    -1.551740671031     1.413887443376
    C           -2.676464670018    -0.970910833509     0.363533290918
    H           -1.388308935429     0.569074826623    -0.395959614394
    H           -1.501718416943     0.539645482575     1.336537008438
    H           -2.652761200490    -1.591490168600    -0.526020142534
    H           -3.574386892716    -0.366110964260     0.320030680336
    H           -2.761698690060    -1.628530842151     1.222292202474

  Mulliken Charges: (a.u.)
   Center  Symbol    Alpha    Beta     Spin     Total
       1     H     0.46586  0.46586  0.00000  0.06827
       2     C     2.90461  2.90461  0.00000  0.19079
       3     C     3.08738  3.08738  0.00000 -0.17475
       4     O     4.16504  4.16504  0.00000 -0.33007
       5     C     3.10947  3.10947  0.00000 -0.21895
       6     H     0.44425  0.44425  0.00000  0.11151
       7     H     0.44026  0.44026  0.00000  0.11949
       8     C     3.08250  3.08250  0.00000 -0.16499
       9     H     0.45321  0.45321  0.00000  0.09358
      10     H     0.44338  0.44338  0.00000  0.11324
      11     C     3.14949  3.14949  0.00000 -0.29899
      12     H     0.44808  0.44808  0.00000  0.10385
      13     H     0.45124  0.45124  0.00000  0.09752
      14     H     0.45460  0.45460  0.00000  0.09081
      15     H     0.44588  0.44588  0.00000  0.10824
      16     H     0.45477  0.45477  0.00000  0.09046

   Total alpha = 24.00000, Total beta = 24.00000, Total charge =  0.00000

*** Psi4 exiting successfully. Buy a developer a beer!
