  ==> Input File <==

--------------------------------------------------------------------------
set {
	reference rhf
	basis 6-31G*
}

set_num_threads( 4 )
memory 2 gb

molecule MOL {
0 1

H	 2.844651	 -0.422309	 -0.156993
O	 2.016064	 -0.864478	 0.000222
C	 1.050492	 0.053836	 0.000068
C	 -0.318135	 -0.576402	 0.000164
O	 1.285279	 1.218255	 -0.000078
C	 -1.454360	 0.441875	 -0.000474
H	 -0.374042	 -1.230163	 -0.866135
H	 -0.374274	 -1.229227	 0.867154
C	 -2.826123	 -0.230780	 0.000056
H	 -1.357605	 1.085198	 -0.868380
H	 -1.357504	 1.086451	 0.866496
H	 -2.959731	 -0.858053	 -0.876869
H	 -3.619374	 0.509403	 -0.000080
H	 -2.959371	 -0.857318	 0.877556

	symmetry c1
}
set optking {
	frozen_dihedral = ("
		1 2 3 5
	")
}

ee = optimize('scf')
oeprop('DIPOLE', 'QUADRUPOLE', 'MULLIKEN_CHARGES')
f=open( 'psi4out.xyz', 'w' )
f.write( "14  " )
f.write( str(ee) + "\n" )
f.write( MOL.save_string_xyz() )
f.close()
--------------------------------------------------------------------------

    Molecular point group: c1
  Charge       = 0
  Multiplicity = 1
  Basis Set: 6-31G*
  Basis Set:
  @DF-RHF Final Energy:  -305.88021985558612
    Total Energy =                       -305.8802198555862901
    Molecular point group: c1
  Basis Set: 6-31G*
  Basis Set:
  Basis Set: 6-31G*
  Basis Set:
  @DF-RHF Final Energy:  -305.87874804642723
    Total Energy =                       -305.8787480464272903
  Basis Set: 6-31G*
  Basis Set:
  Basis Set: 6-31G*
  Basis Set:
  @DF-RHF Final Energy:  -305.88027654330472
    Total Energy =                       -305.8802765433048307
  Basis Set: 6-31G*
  Basis Set:
  Basis Set: 6-31G*
  Basis Set:
  @DF-RHF Final Energy:  -305.88028268651885
    Total Energy =                       -305.8802826865189672
  Basis Set: 6-31G*
  Basis Set:
  Basis Set: 6-31G*
  Basis Set:
  @DF-RHF Final Energy:  -305.88028449419494
    Total Energy =                       -305.8802844941949957
  Basis Set: 6-31G*
  Basis Set:
  Charge       = 0
  Multiplicity = 1
  Basis Set: 6-31G*
  Basis Set:

    Orbital Energies (a.u.)
    -----------------------

    Doubly Occupied:

       1A    -20.612679     2A    -20.552460     3A    -11.381799
       4A    -11.241321     5A    -11.225610     6A    -11.217116
       7A     -1.474686     8A     -1.366387     9A     -1.083138
      10A     -0.979627    11A     -0.857216    12A     -0.791327
      13A     -0.700214    14A     -0.688709    15A     -0.667095
      16A     -0.616390    17A     -0.592667    18A     -0.572894
      19A     -0.545442    20A     -0.505152    21A     -0.491597
      22A     -0.482460    23A     -0.479133    24A     -0.444719

  @DF-RHF Final Energy:  -305.88028531628515

   => Energetics <=

    Nuclear Repulsion Energy =            239.9429088379317818
    One-Electron Energy =                -892.5067097626183568
    Two-Electron Energy =                 346.6835156084012510
    DFT Exchange-Correlation Energy =       0.0000000000000000
    Empirical Dispersion Energy =           0.0000000000000000
    PCM Polarization Energy =               0.0000000000000000
    EFP Energy =                            0.0000000000000000
    Total Energy =                       -305.8802853162853239
    Molecular point group: c1
  Basis Set: 6-31G*
  Basis Set:

  -Total Gradient:
     Atom            X                  Y                   Z
    ------   -----------------  -----------------  -----------------
       1       -0.000345901517    -0.000607987154    -0.003863686633
       2        0.000420186439     0.000764699876     0.006453020843
       3        0.000038274992    -0.000282805442    -0.006261536054
       4       -0.000031289493    -0.000012609086     0.000068910799
       5       -0.000089834486     0.000136627948     0.003624136197
       6       -0.000001483910    -0.000007530460    -0.000012961254
       7       -0.000001458952    -0.000014718995    -0.000003230150
       8        0.000001368568     0.000020027388    -0.000000747614
       9        0.000005704183    -0.000001923854     0.000005025241
      10       -0.000002214734     0.000002349158    -0.000007204256
      11        0.000002032305     0.000003647085     0.000000199625
      12       -0.000004931687     0.000003511105    -0.000005428801
      13        0.000005026725     0.000001150729     0.000007213430
      14        0.000004521563    -0.000004438296    -0.000003711371

  **** Optimization is complete! (in 6 steps) ****
    Final optimized geometry and variables:
    Molecular point group: c1

    Geometry (in Angstrom), charge = 0, multiplicity = 1:

    H            2.850592465846    -0.426913101961    -0.099497768851
    O            2.016389387929    -0.863338808140     0.042521335473
    C            1.050623019717     0.054252508910    -0.015232935472
    C           -0.317893389186    -0.576129505744    -0.006229856833
    O            1.284718129748     1.218336225219    -0.040396348842
    C           -1.454411702885     0.441650198721     0.008858600748
    H           -0.381103036645    -1.223845552304    -0.876832240662
    H           -0.366193380448    -1.235184065017     0.856290175030
    C           -2.825939210671    -0.231445488491     0.013862622209
    H           -1.363782120914     1.091910371320    -0.854433366963
    H           -1.351773342849     1.079302863908     0.880394883266
    H           -2.966157892952    -0.850626045339    -0.867784825272
    H           -3.619366406366     0.508437102787     0.026648865418
    H           -2.952269294314    -0.866119675658     0.886505279949

  Mulliken Charges: (a.u.)
   Center  Symbol    Alpha    Beta     Spin     Total
       1     H     0.26769  0.26769  0.00000  0.46462
       2     O     4.35156  4.35156  0.00000 -0.70311
       3     C     2.62368  2.62368  0.00000  0.75263
       4     C     3.20937  3.20937  0.00000 -0.41875
       5     O     4.27820  4.27820  0.00000 -0.55640
       6     C     3.15243  3.15243  0.00000 -0.30486
       7     H     0.39938  0.39938  0.00000  0.20123
       8     H     0.39837  0.39837  0.00000  0.20325
       9     C     3.24292  3.24292  0.00000 -0.48584
      10     H     0.40990  0.40990  0.00000  0.18020
      11     H     0.41034  0.41034  0.00000  0.17931
      12     H     0.42093  0.42093  0.00000  0.15815
      13     H     0.41446  0.41446  0.00000  0.17109
      14     H     0.42076  0.42076  0.00000  0.15848

   Total alpha = 24.00000, Total beta = 24.00000, Total charge =  0.00000
