  ==> Input File <==

--------------------------------------------------------------------------
set {
	reference rhf
	basis 6-31G*
}

set_num_threads( 1 )
memory 2 gb

molecule MOL {
0 1

H	 2.509209	 -1.823959	 -0.481484
O	 2.826016	 -1.159218	 0.122261
C	 2.077727	 -0.067559	 -0.035091
C	 0.624473	 -0.343591	 0.253101
O	 2.542965	 0.974826	 -0.363729
C	 -0.265902	 0.883932	 0.072916
H	 0.324016	 -1.163849	 -0.390541
H	 0.565024	 -0.726111	 1.268924
C	 -1.728698	 0.646073	 0.462102
H	 -0.209144	 1.219470	 -0.958188
H	 0.135059	 1.692851	 0.673903
C	 -2.482460	 -0.343073	 -0.431425
H	 -2.245265	 1.602650	 0.432430
H	 -1.779332	 0.308348	 1.496285
C	 -3.960546	 -0.461025	 -0.060175
H	 -2.395034	 -0.026811	 -1.468912
H	 -2.024850	 -1.327147	 -0.371646
H	 -4.472726	 -1.168004	 -0.705284
H	 -4.465146	 0.496508	 -0.151489
H	 -4.081218	 -0.800940	 0.964585

	symmetry c1
}
set optking {
	frozen_dihedral = ("
		16 12 9 6,
		7 4 6 10,
		12 9 6 10,
		5 3 4 7
	")
}

ee = energy('scf')
oeprop('DIPOLE', 'QUADRUPOLE', 'MULLIKEN_CHARGES')
f=open( 'psi4out.xyz', 'w' )
f.write( "20  " )
f.write( str(ee) + "\n" )
f.write( MOL.save_string_xyz() )
f.close()
--------------------------------------------------------------------------

    Molecular point group: c1

    Geometry (in Angstrom), charge = 0, multiplicity = 1:

       Center              X                  Y                   Z               Mass
    ------------   -----------------  -----------------  -----------------  -----------------
           H          2.519803316331    -1.816182890182    -0.477916520106     1.007825032070
           O          2.836610316331    -1.151441890182     0.125828479894    15.994914619560
           C          2.088321316331    -0.059782890182    -0.031523520106    12.000000000000
           C          0.635067316331    -0.335814890182     0.256668479894    12.000000000000
           O          2.553559316331     0.982602109818    -0.360161520106    15.994914619560
           C         -0.255307683669     0.891708109818     0.076483479894    12.000000000000
           H          0.334610316331    -1.156072890182    -0.386973520106     1.007825032070
           H          0.575618316331    -0.718334890182     1.272491479894     1.007825032070
           C         -1.718103683669     0.653849109818     0.465669479894    12.000000000000
           H         -0.198549683669     1.227246109818    -0.954620520106     1.007825032070
           H          0.145653316331     1.700627109818     0.677470479894     1.007825032070
           C         -2.471865683669    -0.335296890182    -0.427857520106    12.000000000000
           H         -2.234670683669     1.610426109818     0.435997479894     1.007825032070
           H         -1.768737683669     0.316124109818     1.499852479894     1.007825032070
           C         -3.949951683669    -0.453248890182    -0.056607520106    12.000000000000
           H         -2.384439683669    -0.019034890182    -1.465344520106     1.007825032070
           H         -2.014255683669    -1.319370890182    -0.368078520106     1.007825032070
           H         -4.462131683669    -1.160227890182    -0.701716520106     1.007825032070
           H         -4.454551683669     0.504284109818    -0.147921520106     1.007825032070
           H         -4.070623683669    -0.793163890182     0.968152479894     1.007825032070

  Charge       = 0
  Multiplicity = 1
  Basis Set: 6-31G*
  Basis Set:

    Orbital Energies (a.u.)
    -----------------------

    Doubly Occupied:

       1A    -20.603008     2A    -20.557574     3A    -11.380099
       4A    -11.245888     5A    -11.226203     6A    -11.224716
       7A    -11.223435     8A    -11.215786     9A     -1.468792
      10A     -1.370331    11A     -1.099676    12A     -1.043339
      13A     -0.960561    14A     -0.865874    15A     -0.824023
      16A     -0.789052    17A     -0.718135    18A     -0.674894
      19A     -0.664776    20A     -0.638120    21A     -0.617926
      22A     -0.589363    23A     -0.567360    24A     -0.562844
      25A     -0.531135    26A     -0.516137    27A     -0.496543
      28A     -0.491821    29A     -0.473314    30A     -0.467070
      31A     -0.461281    32A     -0.442295

  @DF-RHF Final Energy:  -383.92733920199879

   => Energetics <=

    Nuclear Repulsion Energy =            376.3730680304741441
    One-Electron Energy =               -1268.5780602969348365
    Two-Electron Energy =                 508.2776530644621289
    DFT Exchange-Correlation Energy =       0.0000000000000000
    Empirical Dispersion Energy =           0.0000000000000000
    PCM Polarization Energy =               0.0000000000000000
    EFP Energy =                            0.0000000000000000
    Total Energy =                       -383.9273392019986204

  Mulliken Charges: (a.u.)
   Center  Symbol    Alpha    Beta     Spin     Total
       1     H     0.26811  0.26811  0.00000  0.46379
       2     O     4.35360  4.35360  0.00000 -0.70720
       3     C     2.62531  2.62531  0.00000  0.74939
       4     C     3.21955  3.21955  0.00000 -0.43909
       5     O     4.25531  4.25531  0.00000 -0.51063
       6     C     3.15466  3.15466  0.00000 -0.30932
       7     H     0.41316  0.41316  0.00000  0.17368
       8     H     0.39644  0.39644  0.00000  0.20711
       9     C     3.15574  3.15574  0.00000 -0.31148
      10     H     0.41262  0.41262  0.00000  0.17475
      11     H     0.40549  0.40549  0.00000  0.18902
      12     C     3.15458  3.15458  0.00000 -0.30916
      13     H     0.41711  0.41711  0.00000  0.16577
      14     H     0.42334  0.42334  0.00000  0.15332
      15     C     3.23921  3.23921  0.00000 -0.47841
      16     H     0.42151  0.42151  0.00000  0.15698
      17     H     0.42516  0.42516  0.00000  0.14968
      18     H     0.41834  0.41834  0.00000  0.16332
      19     H     0.41980  0.41980  0.00000  0.16039
      20     H     0.42095  0.42095  0.00000  0.15809

   Total alpha = 32.00000, Total beta = 32.00000, Total charge = -0.00000
