  ==> Input File <==

--------------------------------------------------------------------------
set {
	reference rhf
	basis 6-31G*
}

set_num_threads( 1 )
memory 2 gb

molecule MOL {
0 1

H	 -1.836216	 1.387520	 -0.000064
C	 -1.301823	 0.443321	 -0.000031
O	 -0.003969	 0.658512	 0.000451
O	 -1.829879	 -0.616434	 -0.000857
C	 0.678865	 0.547850	 1.248921
C	 2.142415	 0.835654	 0.992970
H	 0.527948	 -0.448289	 1.641666
H	 0.246751	 1.251885	 1.946709
H	 2.556288	 0.125852	 0.285917
H	 2.699861	 0.761219	 1.920842
H	 2.273900	 1.834235	 0.592424

	symmetry c1
}
set optking {
	frozen_dihedral = ("
		7 5 3 2
	")
}

ee = energy('scf')
oeprop('DIPOLE', 'QUADRUPOLE', 'MULLIKEN_CHARGES')
f=open( 'psi4out.xyz', 'w' )
f.write( "11  " )
f.write( str(ee) + "\n" )
f.write( MOL.save_string_xyz() )
f.close()
--------------------------------------------------------------------------

    Molecular point group: c1

    Geometry (in Angstrom), charge = 0, multiplicity = 1:

       Center              X                  Y                   Z               Mass
    ------------   -----------------  -----------------  -----------------  -----------------
           H         -1.774360125797     1.015464433989    -0.450290261407     1.007825032070
           C         -1.239967125797     0.071265433989    -0.450257261407    12.000000000000
           O          0.057886874203     0.286456433989    -0.449775261407    15.994914619560
           O         -1.768023125797    -0.988489566011    -0.451083261407    15.994914619560
           C          0.740720874203     0.175794433989     0.798694738593    12.000000000000
           C          2.204270874203     0.463598433989     0.542743738593    12.000000000000
           H          0.589803874203    -0.820344566011     1.191439738593     1.007825032070
           H          0.308606874203     0.879829433989     1.496482738593     1.007825032070
           H          2.618143874203    -0.246203566011    -0.164309261407     1.007825032070
           H          2.761716874203     0.389163433989     1.470615738593     1.007825032070
           H          2.335755874203     1.462179433989     0.142197738593     1.007825032070

  Charge       = 0
  Multiplicity = 1
  Basis Set: 6-31G*
  Basis Set:

    Orbital Energies (a.u.)
    -----------------------

    Doubly Occupied:

       1A    -20.593365     2A    -20.567943     3A    -11.379141
       4A    -11.303471     5A    -11.230375     6A     -1.470363
       7A     -1.377435     8A     -1.053543     9A     -0.894308
      10A     -0.825905    11A     -0.742234    12A     -0.688915
      13A     -0.650431    14A     -0.637717    15A     -0.563795
      16A     -0.542152    17A     -0.536267    18A     -0.500804
      19A     -0.466689    20A     -0.451383

  @DF-RHF Final Energy:  -266.80894279155848

   => Energetics <=

    Nuclear Repulsion Energy =            177.6123642003312852
    One-Electron Energy =                -715.8900958286516243
    Two-Electron Energy =                 271.4687888367627693
    DFT Exchange-Correlation Energy =       0.0000000000000000
    Empirical Dispersion Energy =           0.0000000000000000
    PCM Polarization Energy =               0.0000000000000000
    EFP Energy =                            0.0000000000000000
    Total Energy =                       -266.8089427915575698

  Mulliken Charges: (a.u.)
   Center  Symbol    Alpha    Beta     Spin     Total
       1     H     0.42617  0.42617  0.00000  0.14766
       2     C     2.73013  2.73013  0.00000  0.53973
       3     O     4.29841  4.29841  0.00000 -0.59682
       4     O     4.23617  4.23617  0.00000 -0.47234
       5     C     3.00512  3.00512  0.00000 -0.01025
       6     C     3.24789  3.24789  0.00000 -0.49578
       7     H     0.40660  0.40660  0.00000  0.18679
       8     H     0.41904  0.41904  0.00000  0.16192
       9     H     0.40540  0.40540  0.00000  0.18920
      10     H     0.41574  0.41574  0.00000  0.16852
      11     H     0.40932  0.40932  0.00000  0.18137

   Total alpha = 20.00000, Total beta = 20.00000, Total charge =  0.00000
