  ==> Input File <==

--------------------------------------------------------------------------
set {
	reference rhf
	basis 6-31G*
}

set_num_threads( 1 )
memory 2 gb

molecule MOL {
0 1

O	 1.846825	 1.296220	 0.000415
C	 1.705091	 0.115954	 0.001797
C	 0.381791	 -0.609817	 0.001258
O	 2.721346	 -0.737485	 -0.000216
C	 -0.823008	 0.326187	 0.001381
H	 0.371250	 -1.265087	 -0.865474
H	 0.370908	 -1.265746	 0.867490
C	 -0.762748	 1.349947	 -1.133232
H	 -0.878417	 0.837564	 0.957212
H	 -1.732247	 -0.261228	 -0.079469
C	 -1.963330	 2.297711	 -1.147559
H	 0.152935	 1.933359	 -1.048673
H	 -0.704925	 0.830971	 -2.088848
C	 -1.903165	 3.319605	 -2.282180
H	 -2.021001	 2.818833	 -0.194539
H	 -2.878757	 1.716460	 -1.232866
H	 -1.014895	 3.940228	 -2.204595
H	 -2.767419	 3.976299	 -2.265797
H	 -1.879002	 2.829026	 -3.251230
C	 4.024888	 -0.184556	 -0.001949
H	 4.179030	 0.422472	 -0.882452
H	 4.701782	 -1.024608	 -0.003642
H	 4.181981	 0.421185	 0.878906

	symmetry c1
}
set optking {
	frozen_dihedral = ("
		15 11 8 12,
		9 5 8 12,
		1 2 3 6,
		1 2 4 20
	")
}

ee = energy('scf')
oeprop('DIPOLE', 'QUADRUPOLE', 'MULLIKEN_CHARGES')
f=open( 'psi4out.xyz', 'w' )
f.write( "23  " )
f.write( str(ee) + "\n" )
f.write( MOL.save_string_xyz() )
f.close()
--------------------------------------------------------------------------

    Molecular point group: c1

    Geometry (in Angstrom), charge = 0, multiplicity = 1:

       Center              X                  Y                   Z               Mass
    ------------   -----------------  -----------------  -----------------  -----------------
           O          1.223735236778     0.494129221382     0.509455987796    15.994914619560
           C          1.082001236778    -0.686136778618     0.510837987796    12.000000000000
           C         -0.241298763222    -1.411907778618     0.510298987796    12.000000000000
           O          2.098256236778    -1.539575778618     0.508824987796    15.994914619560
           C         -1.446097763222    -0.475903778618     0.510421987796    12.000000000000
           H         -0.251839763222    -2.067177778618    -0.356433012204     1.007825032070
           H         -0.252181763222    -2.067836778618     1.376530987796     1.007825032070
           C         -1.385837763222     0.547856221382    -0.624191012204    12.000000000000
           H         -1.501506763222     0.035473221382     1.466252987796     1.007825032070
           H         -2.355336763222    -1.063318778618     0.429571987796     1.007825032070
           C         -2.586419763222     1.495620221382    -0.638518012204    12.000000000000
           H         -0.470154763222     1.131268221382    -0.539632012204     1.007825032070
           H         -1.328014763222     0.028880221382    -1.579807012204     1.007825032070
           C         -2.526254763222     2.517514221382    -1.773139012204    12.000000000000
           H         -2.644090763222     2.016742221382     0.314501987796     1.007825032070
           H         -3.501846763222     0.914369221382    -0.723825012204     1.007825032070
           H         -1.637984763222     3.138137221382    -1.695554012204     1.007825032070
           H         -3.390508763222     3.174208221382    -1.756756012204     1.007825032070
           H         -2.502091763222     2.026935221382    -2.742189012204     1.007825032070
           C          3.401798236778    -0.986646778618     0.507091987796    12.000000000000
           H          3.555940236778    -0.379618778618    -0.373411012204     1.007825032070
           H          4.078692236778    -1.826698778618     0.505398987796     1.007825032070
           H          3.558891236778    -0.380905778618     1.387946987796     1.007825032070

  Charge       = 0
  Multiplicity = 1
  Basis Set: 6-31G*
  Basis Set:

    Orbital Energies (a.u.)
    -----------------------

    Doubly Occupied:

       1A    -20.605893     2A    -20.547494     3A    -11.375193
       4A    -11.282395     5A    -11.236349     6A    -11.219021
       7A    -11.207408     8A    -11.201981     9A    -11.199861
      10A     -1.472224    11A     -1.366808    12A     -1.088687
      13A     -1.038663    14A     -0.985689    15A     -0.926827
      16A     -0.841881    17A     -0.789054    18A     -0.769605
      19A     -0.701001    20A     -0.682584    21A     -0.674459
      22A     -0.638034    23A     -0.611528    24A     -0.598580
      25A     -0.564488    26A     -0.554268    27A     -0.550786
      28A     -0.531819    29A     -0.520044    30A     -0.503814
      31A     -0.490861    32A     -0.469503    33A     -0.459241
      34A     -0.457189    35A     -0.445639    36A     -0.422895

  @DF-RHF Final Energy:  -422.97014927854337

   => Energetics <=

    Nuclear Repulsion Energy =            467.9811112078191968
    One-Electron Energy =               -1503.8388166338834253
    Two-Electron Energy =                 612.8875561475167615
    DFT Exchange-Correlation Energy =       0.0000000000000000
    Empirical Dispersion Energy =           0.0000000000000000
    PCM Polarization Energy =               0.0000000000000000
    EFP Energy =                            0.0000000000000000
    Total Energy =                       -422.9701492785475239

  Mulliken Charges: (a.u.)
   Center  Symbol    Alpha    Beta     Spin     Total
       1     O     4.28662  4.28662  0.00000 -0.57324
       2     C     2.60382  2.60382  0.00000  0.79235
       3     C     3.21014  3.21014  0.00000 -0.42027
       4     O     4.30700  4.30700  0.00000 -0.61399
       5     C     3.15388  3.15388  0.00000 -0.30775
       6     H     0.39982  0.39982  0.00000  0.20036
       7     H     0.39790  0.39790  0.00000  0.20421
       8     C     3.16734  3.16734  0.00000 -0.33468
       9     H     0.41512  0.41512  0.00000  0.16977
      10     H     0.41791  0.41791  0.00000  0.16417
      11     C     3.15039  3.15039  0.00000 -0.30078
      12     H     0.38728  0.38728  0.00000  0.22544
      13     H     0.43065  0.43065  0.00000  0.13871
      14     C     3.23908  3.23908  0.00000 -0.47816
      15     H     0.42292  0.42292  0.00000  0.15417
      16     H     0.42747  0.42747  0.00000  0.14506
      17     H     0.41978  0.41978  0.00000  0.16044
      18     H     0.42100  0.42100  0.00000  0.15799
      19     H     0.42339  0.42339  0.00000  0.15322
      20     C     3.09257  3.09257  0.00000 -0.18515
      21     H     0.40904  0.40904  0.00000  0.18193
      22     H     0.40799  0.40799  0.00000  0.18401
      23     H     0.40889  0.40889  0.00000  0.18222

   Total alpha = 36.00000, Total beta = 36.00000, Total charge =  0.00000
