  ==> Input File <==

--------------------------------------------------------------------------
set {
	reference rhf
	basis 6-31G*
}

set_num_threads( 4 )
memory 2 gb

molecule MOL {
0 1

H	 -1.747972	 1.071763	 -0.489293
N	 -1.852125	 0.165761	 -0.074816
C	 -0.563778	 -0.502042	 0.037919
H	 -2.467390	 -0.355957	 -0.669809
C	 0.575259	 0.508231	 -0.048326
H	 -0.482092	 -1.204004	 -0.786564
H	 -0.460411	 -1.085169	 0.956626
C	 1.954651	 -0.143624	 0.035137
H	 0.475158	 1.060484	 -0.977307
H	 0.469181	 1.234488	 0.755973
H	 2.103292	 -0.853109	 -0.774172
H	 2.742821	 0.599562	 -0.030094
H	 2.083613	 -0.679371	 0.971560

	symmetry c1
}
set optking {
	frozen_dihedral = ("
		1 2 3 6
	")
}

ee = optimize('scf')
oeprop('DIPOLE', 'QUADRUPOLE', 'MULLIKEN_CHARGES')
f=open( 'psi4out.xyz', 'w' )
f.write( "13  " )
f.write( str(ee) + "\n" )
f.write( MOL.save_string_xyz() )
f.close()
--------------------------------------------------------------------------

    Molecular point group: c1
  Charge       = 0
  Multiplicity = 1
  Basis Set: 6-31G*
  Basis Set:
  @DF-RHF Final Energy:  -173.27721720022649
    Total Energy =                       -173.2772172002265165
    Molecular point group: c1
  Basis Set: 6-31G*
  Basis Set:
  Basis Set: 6-31G*
  Basis Set:
  @DF-RHF Final Energy:  -173.27889068346568
    Total Energy =                       -173.2788906834656473
  Basis Set: 6-31G*
  Basis Set:
  Basis Set: 6-31G*
  Basis Set:
  @DF-RHF Final Energy:  -173.27912218010022
    Total Energy =                       -173.2791221801001598
  Basis Set: 6-31G*
  Basis Set:
  Basis Set: 6-31G*
  Basis Set:
  @DF-RHF Final Energy:  -173.27912880213512
    Total Energy =                       -173.2791288021350056
  Basis Set: 6-31G*
  Basis Set:
  Basis Set: 6-31G*
  Basis Set:
  @DF-RHF Final Energy:  -173.27913016963831
    Total Energy =                       -173.2791301696382789
  Basis Set: 6-31G*
  Basis Set:
  Charge       = 0
  Multiplicity = 1
  Basis Set: 6-31G*
  Basis Set:

    Orbital Energies (a.u.)
    -----------------------

    Doubly Occupied:

       1A    -15.528716     2A    -11.239435     3A    -11.218455
       4A    -11.212283     5A     -1.173582     6A     -1.037765
       7A     -0.899649     8A     -0.806352     9A     -0.652356
      10A     -0.638317    11A     -0.604255    12A     -0.556337
      13A     -0.545004    14A     -0.496192    15A     -0.479654
      16A     -0.471188    17A     -0.374297

  @DF-RHF Final Energy:  -173.27913048116579

   => Energetics <=

    Nuclear Repulsion Energy =            131.8269180008732633
    One-Electron Energy =                -494.3444258003082723
    Two-Electron Energy =                 189.2383773182693290
    DFT Exchange-Correlation Energy =       0.0000000000000000
    Empirical Dispersion Energy =           0.0000000000000000
    PCM Polarization Energy =               0.0000000000000000
    EFP Energy =                            0.0000000000000000
    Total Energy =                       -173.2791304811656801
    Molecular point group: c1
  Basis Set: 6-31G*
  Basis Set:

  -Total Gradient:
     Atom            X                  Y                   Z
    ------   -----------------  -----------------  -----------------
       1        0.000598899586     0.001220593724     0.002830589869
       2       -0.001032840807    -0.002146822263    -0.003082413280
       3        0.001541874280     0.002995893377    -0.001462065176
       4        0.000005734043     0.000003577253     0.000007294565
       5       -0.000027907009    -0.000011973946     0.000003513477
       6       -0.001108859251    -0.002069932320     0.001687827405
       7       -0.000006308269    -0.000012191545     0.000014064678
       8        0.000019035723     0.000015631638    -0.000008186489
       9        0.000015448863     0.000000068907     0.000009730738
      10        0.000003471089     0.000003487098    -0.000001986838
      11       -0.000008081017    -0.000000751786    -0.000002953693
      12        0.000001342979    -0.000005371911    -0.000000582455
      13       -0.000001810208     0.000007791775     0.000005167199

  **** Optimization is complete! (in 6 steps) ****
    Final optimized geometry and variables:
    Molecular point group: c1

    Geometry (in Angstrom), charge = 0, multiplicity = 1:

    H           -1.810217304624     1.065949189331    -0.422815457032
    N           -1.866314210583     0.156821875147    -0.009743031003
    C           -0.566819559503    -0.504926332314     0.011410730586
    H           -2.552889019669    -0.371045229271    -0.508208889188
    C            0.577809078105     0.501049331566    -0.039375921104
    H           -0.460849237690    -1.225757586837    -0.800104232153
    H           -0.487213387992    -1.080244592692     0.930650260393
    C            1.951377567668    -0.154166019752     0.092814930134
    H            0.526973963412     1.053673814897    -0.975957649524
    H            0.437949771841     1.225828105675     0.758864479244
    H            2.124683726060    -0.869891946031    -0.705801842468
    H            2.743063967735     0.586733562307     0.049513468892
    H            2.044152162800    -0.682392210672     1.037078207475

  Mulliken Charges: (a.u.)
   Center  Symbol    Alpha    Beta     Spin     Total
       1     H     0.33239  0.33239  0.00000  0.33523
       2     N     3.93197  3.93197  0.00000 -0.86394
       3     C     3.04470  3.04470  0.00000 -0.08940
       4     H     0.33138  0.33138  0.00000  0.33724
       5     C     3.16591  3.16591  0.00000 -0.33182
       6     H     0.43268  0.43268  0.00000  0.13465
       7     H     0.42141  0.42141  0.00000  0.15718
       8     C     3.24239  3.24239  0.00000 -0.48478
       9     H     0.42507  0.42507  0.00000  0.14985
      10     H     0.41481  0.41481  0.00000  0.17039
      11     H     0.42106  0.42106  0.00000  0.15789
      12     H     0.41743  0.41743  0.00000  0.16514
      13     H     0.41881  0.41881  0.00000  0.16238

   Total alpha = 17.00000, Total beta = 17.00000, Total charge =  0.00000
