  ==> Input File <==

--------------------------------------------------------------------------
set {
	reference rhf
	basis 6-31G*
}

set_num_threads( 4 )
memory 2 gb

molecule MOL {
0 1

O	 3.225979	 0.970355	 -0.599647
C	 2.701189	 0.057885	 -0.047330
C	 1.245376	 -0.013843	 0.345420
O	 3.347903	 -1.046386	 0.304773
C	 0.455112	 1.231400	 -0.050772
H	 0.838542	 -0.913825	 -0.103701
H	 1.208210	 -0.175333	 1.419774
C	 -0.998893	 1.219485	 0.433193
H	 0.482531	 1.345121	 -1.130325
H	 0.957290	 2.103070	 0.354729
C	 -1.883438	 0.145884	 -0.207175
H	 -1.431207	 2.195402	 0.224832
H	 -1.019646	 1.105716	 1.516076
C	 -3.347647	 0.245583	 0.225435
H	 -1.822183	 0.231698	 -1.291012
H	 -1.510341	 -0.844814	 0.042401
C	 -4.239992	 -0.825570	 -0.404234
H	 -3.732888	 1.230466	 -0.033079
H	 -3.408585	 0.170602	 1.310038
C	 -3.450814	 -1.882455	 -1.176175
H	 -4.825002	 -1.309977	 0.374711
H	 -4.955775	 -0.351050	 -1.072266
H	 -4.110543	 -2.627245	 -1.610516
H	 -2.749831	 -2.399864	 -0.527249
H	 -2.881176	 -1.433373	 -1.984947
C	 4.728119	 -1.109107	 -0.004993
H	 4.882018	 -1.033965	 -1.071845
H	 5.068212	 -2.067527	 0.355250
H	 5.265056	 -0.311663	 0.488280

	symmetry c1
}
set optking {
	frozen_dihedral = ("
		21 17 14 11
	")
}

ee = optimize('scf')
oeprop('DIPOLE', 'QUADRUPOLE', 'MULLIKEN_CHARGES')
f=open( 'psi4out.xyz', 'w' )
f.write( "29  " )
f.write( str(ee) + "\n" )
f.write( MOL.save_string_xyz() )
f.close()
--------------------------------------------------------------------------

    Molecular point group: c1
  Charge       = 0
  Multiplicity = 1
  Basis Set: 6-31G*
  Basis Set:
  @DF-RHF Final Energy:  -501.03016849218523
    Total Energy =                       -501.0301684921848846
    Molecular point group: c1
  Basis Set: 6-31G*
  Basis Set:
  Basis Set: 6-31G*
  Basis Set:
  @DF-RHF Final Energy:  -501.03016849415064
    Total Energy =                       -501.0301684941506437
  Basis Set: 6-31G*
  Basis Set:
  Basis Set: 6-31G*
  Basis Set:
  @DF-RHF Final Energy:  -501.03386485896897
    Total Energy =                       -501.0338648589697641
  Basis Set: 6-31G*
  Basis Set:
  Basis Set: 6-31G*
  Basis Set:
  @DF-RHF Final Energy:  -501.03438323629257
    Total Energy =                       -501.0343832362917738
  Basis Set: 6-31G*
  Basis Set:
  @DF-RHF Final Energy:  -501.03442905151007
    Total Energy =                       -501.0344290515095054
  @DF-RHF Final Energy:  -501.03429905079497
    Total Energy =                       -501.0342990507957666
  @DF-RHF Final Energy:  -501.03444963516188
    Total Energy =                       -501.0344496351614225
  @DF-RHF Final Energy:  -501.03443660871176
    Total Energy =                       -501.0344366087113031
  Basis Set: 6-31G*
  Basis Set:
  @DF-RHF Final Energy:  -501.03445366225208
    Total Energy =                       -501.0344536622513942
  Basis Set: 6-31G*
  Basis Set:
  Basis Set: 6-31G*
  Basis Set:
  @DF-RHF Final Energy:  -501.03445077306174
    Total Energy =                       -501.0344507730610530
  Basis Set: 6-31G*
  Basis Set:
  Basis Set: 6-31G*
  Basis Set:
  @DF-RHF Final Energy:  -501.03445453974189
    Total Energy =                       -501.0344545397418869
  Basis Set: 6-31G*
  Basis Set:
  Charge       = 0
  Multiplicity = 1
  Basis Set: 6-31G*
  Basis Set:

    Orbital Energies (a.u.)
    -----------------------

    Doubly Occupied:

       1A    -20.603327     2A    -20.545149     3A    -11.371958
       4A    -11.280623     5A    -11.234690     6A    -11.218951
       7A    -11.217380     8A    -11.216553     9A    -11.215556
      10A    -11.214865    11A    -11.209073    12A     -1.469021
      13A     -1.362463    14A     -1.096964    15A     -1.063249
      16A     -1.017197    17A     -0.975582    18A     -0.927828
      19A     -0.873516    20A     -0.804579    21A     -0.773373
      22A     -0.763102    23A     -0.700545    24A     -0.682203
      25A     -0.672111    26A     -0.648491    27A     -0.628855
      28A     -0.602214    29A     -0.597129    30A     -0.590335
      31A     -0.556808    32A     -0.549425    33A     -0.540668
      34A     -0.524051    35A     -0.521792    36A     -0.507587
      37A     -0.501599    38A     -0.477004    39A     -0.473272
      40A     -0.456763    41A     -0.453444    42A     -0.447248
      43A     -0.442612    44A     -0.435705

  @DF-RHF Final Energy:  -501.03445452938126

   => Energetics <=

    Nuclear Repulsion Energy =            618.0815143636441462
    One-Electron Energy =               -1907.3022213296858354
    Two-Electron Energy =                 788.1862524366599700
    DFT Exchange-Correlation Energy =       0.0000000000000000
    Empirical Dispersion Energy =           0.0000000000000000
    PCM Polarization Energy =               0.0000000000000000
    EFP Energy =                            0.0000000000000000
    Total Energy =                       -501.0344545293817191
    Molecular point group: c1
  Basis Set: 6-31G*
  Basis Set:

  -Total Gradient:
     Atom            X                  Y                   Z
    ------   -----------------  -----------------  -----------------
       1        0.000000440670     0.000000476538     0.000002986730
       2       -0.000001245499    -0.000004639640    -0.000009357782
       3       -0.000002421832     0.000000236600     0.000001294074
       4        0.000000328607     0.000001561960     0.000002160045
       5        0.000001314797     0.000004585889    -0.000001989374
       6        0.000000482127    -0.000001956006     0.000000687353
       7       -0.000000705563     0.000000904492    -0.000000384139
       8       -0.000002865129     0.000002953334    -0.000004653182
       9        0.000003020888     0.000003915135    -0.000000844399
      10        0.000001131153    -0.000003323994     0.000001192046
      11        0.000384082456    -0.001272674406     0.001572956253
      12       -0.000007069620    -0.000003503279    -0.000000615788
      13        0.000000280592     0.000000431922    -0.000000343650
      14       -0.000136434085     0.001414227948    -0.002212692238
      15        0.000006347613     0.000002209134     0.000008185126
      16        0.000001292965    -0.000005993468    -0.000000385922
      17       -0.002127723420     0.001803921918     0.000392845049
      18       -0.000000300690     0.000003334116     0.000002207575
      19        0.000000867642    -0.000000503553    -0.000001427471
      20       -0.000001931022     0.000001796455    -0.000006222129
      21        0.001881486819    -0.001942008770     0.000251229467
      22       -0.000000788484     0.000000516414     0.000000025589
      23        0.000001633155    -0.000002864002     0.000001471919
      24        0.000005086730     0.000002601949     0.000001094755
      25       -0.000006525012    -0.000005775213     0.000000978318
      26       -0.000000083824    -0.000000827949    -0.000001188044
      27        0.000000120286     0.000000051988     0.000000308940
      28        0.000000234846     0.000000159074     0.000000251785
      29       -0.000000057173     0.000000185412     0.000000229095

  **** Optimization is complete! (in 12 steps) ****
    Final optimized geometry and variables:
    Molecular point group: c1

    Geometry (in Angstrom), charge = 0, multiplicity = 1:

    O            3.046056683764     1.122387261801    -0.442037988194
    C            2.524573892924     0.195408200068     0.088835962521
    C            1.064523661444     0.100751231476     0.460455219989
    O            3.179389745727    -0.906695528546     0.432691071725
    C            0.264941840588     1.342624970167     0.072369063521
    H            0.674666271370    -0.797000450576    -0.007759601746
    H            1.014795753410    -0.077519786027     1.531652984609
    C           -1.194854391273     1.307769313915     0.537684523843
    H            0.304878454704     1.472651999987    -1.004939784081
    H            0.752014698447     2.213778571046     0.496981039938
    C           -2.058326953859     0.232405676979    -0.129337256817
    H           -1.634987401354     2.281947278552     0.337838406065
    H           -1.227510652962     1.178676206442     1.618627012562
    C           -3.524790726121     0.328066050995     0.306904575367
    H           -1.981070975727     0.340048277481    -1.209208462923
    H           -1.670803356785    -0.752691927103     0.110662567099
    C           -4.514100696000    -0.708999610272    -0.294404338331
    H           -3.884853169785     1.328439064461     0.082701930923
    H           -3.550195827453     0.246564064768     1.390935500527
    C           -3.906132026632    -1.858625503849    -1.105275592086
    H           -5.082572058447    -1.155202061012     0.516185202938
    H           -5.233842671260    -0.194738598368    -0.923966144167
    H           -4.695008651701    -2.512789190803    -1.464081998911
    H           -3.230885503082    -2.463053267456    -0.507987224687
    H           -3.357802269737    -1.504848273318    -1.971750629995
    C            4.564299366820    -0.948698533031     0.140896550635
    H            4.731694022046    -0.855203685008    -0.922471076700
    H            4.910691612640    -1.908628819733     0.490956265167
    H            5.085142537213    -0.152901616950     0.653701211553

  Mulliken Charges: (a.u.)
   Center  Symbol    Alpha    Beta     Spin     Total
       1     O     4.28597  4.28597  0.00000 -0.57194
       2     C     2.60478  2.60478  0.00000  0.79044
       3     C     3.20978  3.20978  0.00000 -0.41956
       4     O     4.30748  4.30748  0.00000 -0.61495
       5     C     3.15351  3.15351  0.00000 -0.30701
       6     H     0.39888  0.39888  0.00000  0.20223
       7     H     0.40129  0.40129  0.00000  0.19741
       8     C     3.15673  3.15673  0.00000 -0.31346
       9     H     0.41319  0.41319  0.00000  0.17362
      10     H     0.40876  0.40876  0.00000  0.18249
      11     C     3.15717  3.15717  0.00000 -0.31434
      12     H     0.41836  0.41836  0.00000  0.16328
      13     H     0.42404  0.42404  0.00000  0.15192
      14     C     3.15616  3.15616  0.00000 -0.31231
      15     H     0.42198  0.42198  0.00000  0.15605
      16     H     0.42156  0.42156  0.00000  0.15687
      17     C     3.15489  3.15489  0.00000 -0.30979
      18     H     0.42038  0.42038  0.00000  0.15923
      19     H     0.42208  0.42208  0.00000  0.15585
      20     C     3.24220  3.24220  0.00000 -0.48440
      21     H     0.42029  0.42029  0.00000  0.15942
      22     H     0.42010  0.42010  0.00000  0.15979
      23     H     0.41910  0.41910  0.00000  0.16180
      24     H     0.42183  0.42183  0.00000  0.15634
      25     H     0.42034  0.42034  0.00000  0.15931
      26     C     3.09241  3.09241  0.00000 -0.18481
      27     H     0.40908  0.40908  0.00000  0.18184
      28     H     0.40852  0.40852  0.00000  0.18296
      29     H     0.40913  0.40913  0.00000  0.18174

   Total alpha = 44.00000, Total beta = 44.00000, Total charge =  0.00000
