  ==> Input File <==

--------------------------------------------------------------------------
set {
	reference rhf
	basis 6-31G*
}

set_num_threads( 4 )
memory 2 gb

molecule MOL {
0 1

H	 1.148083	 -1.049780	 0.784252
O	 1.319262	 -0.618148	 -0.041729
C	 0.709265	 0.639550	 -0.033818
C	 -0.645309	 0.664368	 0.624280
H	 0.615129	 0.936511	 -1.072161
H	 1.351941	 1.378364	 0.443828
C	 -1.317443	 -0.396456	 1.023847
H	 -1.067840	 1.648130	 0.759052
H	 -0.935480	 -1.392132	 0.889078
H	 -2.282671	 -0.304785	 1.488505

	symmetry c1
}
set optking {
	frozen_dihedral = ("
		5 3 2 1
	")
}

ee = optimize('scf')
oeprop('DIPOLE', 'QUADRUPOLE', 'MULLIKEN_CHARGES')
f=open( 'psi4out.xyz', 'w' )
f.write( "10  " )
f.write( str(ee) + "\n" )
f.write( MOL.save_string_xyz() )
f.close()
--------------------------------------------------------------------------

    Molecular point group: c1
  Charge       = 0
  Multiplicity = 1
  Basis Set: 6-31G*
  Basis Set:
  @DF-RHF Final Energy:  -191.91576994794738
    Total Energy =                       -191.9157699479472967
    Molecular point group: c1
  Basis Set: 6-31G*
  Basis Set:
  Basis Set: 6-31G*
  Basis Set:
  @DF-RHF Final Energy:  -191.91596372751087
    Total Energy =                       -191.9159637275108707
  Basis Set: 6-31G*
  Basis Set:
  Basis Set: 6-31G*
  Basis Set:
  @DF-RHF Final Energy:  -191.91606316741502
    Total Energy =                       -191.9160631674150750
  Basis Set: 6-31G*
  Basis Set:
  Basis Set: 6-31G*
  Basis Set:
  @DF-RHF Final Energy:  -191.91606632778726
    Total Energy =                       -191.9160663277872345
  Basis Set: 6-31G*
  Basis Set:
  Charge       = 0
  Multiplicity = 1
  Basis Set: 6-31G*
  Basis Set:

    Orbital Energies (a.u.)
    -----------------------

    Doubly Occupied:

       1A    -20.558643     2A    -11.278301     3A    -11.236797
       4A    -11.225153     5A     -1.368057     6A     -1.061790
       7A     -0.931219     8A     -0.773080     9A     -0.684158
      10A     -0.662952    11A     -0.621013    12A     -0.569954
      13A     -0.549521    14A     -0.483975    15A     -0.451532
      16A     -0.369030

  @DF-RHF Final Energy:  -191.91606705266872

   => Energetics <=

    Nuclear Repulsion Energy =            119.4498005165866630
    One-Electron Energy =                -497.0813815337060646
    Two-Electron Energy =                 185.7155139644506221
    DFT Exchange-Correlation Energy =       0.0000000000000000
    Empirical Dispersion Energy =           0.0000000000000000
    PCM Polarization Energy =               0.0000000000000000
    EFP Energy =                            0.0000000000000000
    Total Energy =                       -191.9160670526687795
    Molecular point group: c1
  Basis Set: 6-31G*
  Basis Set:

  -Total Gradient:
     Atom            X                  Y                   Z
    ------   -----------------  -----------------  -----------------
       1       -0.002638501857    -0.001385753585    -0.001014372134
       2        0.002714608993     0.001387739190     0.001256290967
       3        0.002385788498     0.001169264185    -0.000257821877
       4       -0.000072112060    -0.000035067600    -0.000031460830
       5       -0.002405196605    -0.001197751601     0.000061071919
       6        0.000008641128    -0.000003997322    -0.000035819251
       7        0.000039841996     0.000045554661    -0.000009277797
       8       -0.000033753562     0.000020705640     0.000018902106
       9        0.000006184422     0.000001973860    -0.000007145036
      10       -0.000005500950    -0.000002667426     0.000019631933

  **** Optimization is complete! (in 5 steps) ****
    Final optimized geometry and variables:
    Molecular point group: c1

    Geometry (in Angstrom), charge = 0, multiplicity = 1:

    H            1.124504288769    -1.045112805304     0.455002782231
    O            1.254525409194    -0.650432401027    -0.396277170832
    C            0.620169882941     0.594889051857    -0.425503452125
    C           -0.722545054670     0.623034963474     0.259111254986
    H            0.478333933646     0.843144334319    -1.471735643363
    H            1.258975299306     1.362222277277     0.008017393774
    C           -1.425280714129    -0.434682357313     0.613815221645
    H           -1.114929371056     1.609349940310     0.450748311004
    H           -1.088538334141    -1.437757422595     0.420294545161
    H           -2.379037526560    -0.334936352512     1.099489581613

  Mulliken Charges: (a.u.)
   Center  Symbol    Alpha    Beta     Spin     Total
       1     H     0.28060  0.28060  0.00000  0.43880
       2     O     4.37007  4.37007  0.00000 -0.74014
       3     C     2.99278  2.99278  0.00000  0.01444
       4     C     3.09695  3.09695  0.00000 -0.19389
       5     H     0.40909  0.40909  0.00000  0.18181
       6     H     0.42443  0.42443  0.00000  0.15115
       7     C     3.20099  3.20099  0.00000 -0.40199
       8     H     0.40771  0.40771  0.00000  0.18459
       9     H     0.40865  0.40865  0.00000  0.18269
      10     H     0.40873  0.40873  0.00000  0.18254

   Total alpha = 16.00000, Total beta = 16.00000, Total charge =  0.00000
