  ==> Input File <==

--------------------------------------------------------------------------
set {
	reference rhf
	basis cc-pvtz
}

set_num_threads( 4 )
memory 2 gb

molecule MOL {
0 1

H	 2.190573	 -0.629143	 -0.208718
O	 1.355408	 -0.529451	 0.208662
C	 0.700177	 0.619554	 -0.266242
C	 -0.713111	 0.588314	 0.266177
H	 0.678680	 0.627133	 -1.351786
H	 1.199747	 1.521489	 0.077736
O	 -1.421673	 -0.521378	 -0.196983
H	 -1.244794	 1.469161	 -0.069059
H	 -0.685100	 0.604721	 1.352683
H	 -0.900713	 -1.291554	 -0.050512

	symmetry c1
}
set optking {
	frozen_dihedral = ("
		10 7 4 3
	")
}

ee = optimize('scf')
oeprop('DIPOLE', 'QUADRUPOLE', 'MULLIKEN_CHARGES')
f=open( 'psi4out.xyz', 'w' )
f.write( "10  " )
f.write( str(ee) + "\n" )
f.write( MOL.save_string_xyz() )
f.close()
--------------------------------------------------------------------------

    Molecular point group: c1
  Charge       = 0
  Multiplicity = 1
  Basis Set: CC-PVTZ
  Basis Set:
  @DF-RHF Final Energy:  -229.02883940193908
    Total Energy =                       -229.0288394019390239
    Molecular point group: c1
  Basis Set: CC-PVTZ
  Basis Set:
  Basis Set: CC-PVTZ
  Basis Set:
  @DF-RHF Final Energy:  -229.02884281334718
    Total Energy =                       -229.0288428133471825
  Basis Set: CC-PVTZ
  Basis Set:
  Charge       = 0
  Multiplicity = 1
  Basis Set: CC-PVTZ
  Basis Set:

    Orbital Energies (a.u.)
    -----------------------

    Doubly Occupied:

       1A    -20.561854     2A    -20.542136     3A    -11.274777
       4A    -11.266756     5A     -1.386189     6A     -1.355814
       7A     -1.003998     8A     -0.845601     9A     -0.730547
      10A     -0.680744    11A     -0.653523    12A     -0.606908
      13A     -0.577632    14A     -0.536082    15A     -0.491826
      16A     -0.457089    17A     -0.436315

  @DF-RHF Final Energy:  -229.02884856100403

   => Energetics <=

    Nuclear Repulsion Energy =            134.6285650489556645
    One-Electron Energy =                -580.4992446779504007
    Two-Electron Energy =                 216.8418310679907108
    DFT Exchange-Correlation Energy =       0.0000000000000000
    Empirical Dispersion Energy =           0.0000000000000000
    PCM Polarization Energy =               0.0000000000000000
    EFP Energy =                            0.0000000000000000
    Total Energy =                       -229.0288485610039970
    Molecular point group: c1
  Basis Set: CC-PVTZ
  Basis Set:

  -Total Gradient:
     Atom            X                  Y                   Z
    ------   -----------------  -----------------  -----------------
       1       -0.000001878051     0.000007568186    -0.000009456213
       2        0.000011010610     0.000028281043     0.000016787214
       3        0.000112221471    -0.000256670405     0.000332960026
       4       -0.000096477680     0.000368500887    -0.000625470929
       5        0.000021661795     0.000008952196    -0.000020033929
       6        0.000009338551    -0.000038945786     0.000008243599
       7       -0.000334493152    -0.000195730294     0.000928262989
       8       -0.000003597877    -0.000017786244    -0.000003107340
       9       -0.000031001947    -0.000010495190     0.000010701840
      10        0.000313216278     0.000106325605    -0.000638887258

  **** Optimization is complete! (in 3 steps) ****
    Final optimized geometry and variables:
    Molecular point group: c1

    Geometry (in Angstrom), charge = 0, multiplicity = 1:

    H            2.188125832634    -0.629860013254    -0.210748611711
    O            1.350501891870    -0.533101746700     0.202459623855
    C            0.700636699887     0.622724315535    -0.262851780423
    C           -0.714424697468     0.591306247902     0.265868076862
    H            0.683273272900     0.640690880837    -1.348517810455
    H            1.202394995415     1.519504052600     0.090878937920
    O           -1.418516251250    -0.523993175854    -0.190484134447
    H           -1.247404275411     1.469651092626    -0.073963382715
    H           -0.687858489855     0.612638299177     1.352456884239
    H           -0.894922770422    -1.291014711789    -0.036080249549

  Mulliken Charges: (a.u.)
   Center  Symbol    Alpha    Beta     Spin     Total
       1     H     0.39065  0.39065  0.00000  0.21870
       2     O     4.20713  4.20713  0.00000 -0.41426
       3     C     2.97478  2.97478  0.00000  0.05043
       4     C     2.96172  2.96172  0.00000  0.07656
       5     H     0.46905  0.46905  0.00000  0.06190
       6     H     0.47125  0.47125  0.00000  0.05750
       7     O     4.20998  4.20998  0.00000 -0.41996
       8     H     0.45924  0.45924  0.00000  0.08152
       9     H     0.47102  0.47102  0.00000  0.05795
      10     H     0.38517  0.38517  0.00000  0.22965

   Total alpha = 17.00000, Total beta = 17.00000, Total charge = -0.00000
