  ==> Input File <==

--------------------------------------------------------------------------
set {
	reference rhf
	basis 6-31G*
}

set_num_threads( 1 )
memory 2 gb

molecule MOL {
0 1

H	 -3.161837	 0.500524	 -0.000234
C	 -2.367097	 -0.232926	 -0.000000
O	 -1.158440	 0.455814	 -0.000122
H	 -2.468853	 -0.861886	 -0.882833
H	 -2.468942	 -0.861421	 0.883154
C	 -0.029776	 -0.365156	 0.000148
C	 0.898300	 0.077778	 1.117800
H	 0.479903	 -0.302943	 -0.962274
H	 -0.322922	 -1.406283	 0.141667
C	 2.167682	 -0.769452	 1.193644
H	 1.152932	 1.121374	 0.960531
H	 0.355801	 0.025721	 2.056780
H	 2.738596	 -0.711655	 0.271072
H	 2.810865	 -0.431995	 1.999425
H	 1.935777	 -1.815368	 1.374429

	symmetry c1
}
set optking {
	frozen_dihedral = ("
		6 3 2 4,
		11 7 6 8
	")
}

ee = energy('scf')
oeprop('DIPOLE', 'QUADRUPOLE', 'MULLIKEN_CHARGES')
f=open( 'psi4out.xyz', 'w' )
f.write( "15  " )
f.write( str(ee) + "\n" )
f.write( MOL.save_string_xyz() )
f.close()
--------------------------------------------------------------------------

    Molecular point group: c1

    Geometry (in Angstrom), charge = 0, multiplicity = 1:

       Center              X                  Y                   Z               Mass
    ------------   -----------------  -----------------  -----------------  -----------------
           H         -3.034391463053     0.675586310597    -0.454171418097     1.007825032070
           C         -2.239651463053    -0.057863689403    -0.453937418097    12.000000000000
           O         -1.030994463053     0.630876310597    -0.454059418097    15.994914619560
           H         -2.341407463053    -0.686823689403    -1.336770418097     1.007825032070
           H         -2.341496463053    -0.686358689403     0.429216581903     1.007825032070
           C          0.097669536947    -0.190093689403    -0.453789418097    12.000000000000
           C          1.025745536947     0.252840310597     0.663862581903    12.000000000000
           H          0.607348536947    -0.127880689403    -1.416211418097     1.007825032070
           H         -0.195476463053    -1.231220689403    -0.312270418097     1.007825032070
           C          2.295127536947    -0.594389689403     0.739706581903    12.000000000000
           H          1.280377536947     1.296436310597     0.506593581903     1.007825032070
           H          0.483246536947     0.200783310597     1.602842581903     1.007825032070
           H          2.866041536947    -0.536592689403    -0.182865418097     1.007825032070
           H          2.938310536947    -0.256932689403     1.545487581903     1.007825032070
           H          2.063222536947    -1.640305689403     0.920491581903     1.007825032070

  Charge       = 0
  Multiplicity = 1
  Basis Set: 6-31G*
  Basis Set:

    Orbital Energies (a.u.)
    -----------------------

    Doubly Occupied:

       1A    -20.551193     2A    -11.265617     3A    -11.265049
       4A    -11.213079     5A    -11.212163     6A     -1.377921
       7A     -1.056188     8A     -0.955639     9A     -0.879137
      10A     -0.808822    11A     -0.672494    12A     -0.652984
      13A     -0.635309    14A     -0.601704    15A     -0.568154
      16A     -0.538092    17A     -0.503876    18A     -0.492168
      19A     -0.481613    20A     -0.463945    21A     -0.405534

  @DF-RHF Final Energy:  -232.13545013207704

   => Energetics <=

    Nuclear Repulsion Energy =            190.5550321529480584
    One-Electron Energy =                -692.1796437349069038
    Two-Electron Energy =                 269.4891614498815784
    DFT Exchange-Correlation Energy =       0.0000000000000000
    Empirical Dispersion Energy =           0.0000000000000000
    PCM Polarization Energy =               0.0000000000000000
    EFP Energy =                            0.0000000000000000
    Total Energy =                       -232.1354501320772670

  Mulliken Charges: (a.u.)
   Center  Symbol    Alpha    Beta     Spin     Total
       1     H     0.41299  0.41299  0.00000  0.17401
       2     C     3.08097  3.08097  0.00000 -0.16194
       3     O     4.30544  4.30544  0.00000 -0.61087
       4     H     0.42956  0.42956  0.00000  0.14089
       5     H     0.43022  0.43022  0.00000  0.13955
       6     C     2.98622  2.98622  0.00000  0.02755
       7     C     3.15657  3.15657  0.00000 -0.31314
       8     H     0.42559  0.42559  0.00000  0.14883
       9     H     0.43250  0.43250  0.00000  0.13501
      10     C     3.24899  3.24899  0.00000 -0.49798
      11     H     0.41383  0.41383  0.00000  0.17233
      12     H     0.41891  0.41891  0.00000  0.16217
      13     H     0.42049  0.42049  0.00000  0.15901
      14     H     0.41588  0.41588  0.00000  0.16824
      15     H     0.42184  0.42184  0.00000  0.15633

   Total alpha = 21.00000, Total beta = 21.00000, Total charge =  0.00000
