  ==> Input File <==

--------------------------------------------------------------------------
set {
	reference rhf
	basis 6-31G*
}

set_num_threads( 4 )
memory 2 gb

molecule MOL {
0 1

H	 -0.000158	 1.970498	 0.756846
O	 -0.000074	 1.880206	 -0.189275
C	 -0.000015	 0.544847	 -0.545111
C	 -1.201467	 0.244934	 -1.435365
C	 0.077147	 -0.325359	 0.705004
H	 0.890504	 0.358419	 -1.126766
F	 -1.139696	 0.981194	 -2.524241
F	 -1.248976	 -1.018794	 -1.800183
F	 -2.332452	 0.537771	 -0.813499
F	 1.183178	 -0.054732	 1.364543
F	 0.077186	 -1.610168	 0.419269
F	 -0.943704	 -0.081927	 1.511343

	symmetry c1
}
set optking {
	frozen_dihedral = ("
		6 3 2 1
	")
}

ee = optimize('scf')
oeprop('DIPOLE', 'QUADRUPOLE', 'MULLIKEN_CHARGES')
f=open( 'psi4out.xyz', 'w' )
f.write( "12  " )
f.write( str(ee) + "\n" )
f.write( MOL.save_string_xyz() )
f.close()
--------------------------------------------------------------------------

    Molecular point group: c1
  Charge       = 0
  Multiplicity = 1
  Basis Set: 6-31G*
  Basis Set:
  @DF-RHF Final Energy:  -786.27238438956704
    Total Energy =                       -786.2723843895663549
    Molecular point group: c1
  Basis Set: 6-31G*
  Basis Set:
  Basis Set: 6-31G*
  Basis Set:
  @DF-RHF Final Energy:  -786.27333552312234
    Total Energy =                       -786.2733355231221140
  Basis Set: 6-31G*
  Basis Set:
  Basis Set: 6-31G*
  Basis Set:
  @DF-RHF Final Energy:  -786.27355673841191
    Total Energy =                       -786.2735567384117985
  Basis Set: 6-31G*
  Basis Set:
  Basis Set: 6-31G*
  Basis Set:
  @DF-RHF Final Energy:  -786.27358054556191
    Total Energy =                       -786.2735805455619129
  Basis Set: 6-31G*
  Basis Set:
  Basis Set: 6-31G*
  Basis Set:
  @DF-RHF Final Energy:  -786.27358672228866
    Total Energy =                       -786.2735867222891102
  Basis Set: 6-31G*
  Basis Set:
  Basis Set: 6-31G*
  Basis Set:
  @DF-RHF Final Energy:  -786.27358811834756
    Total Energy =                       -786.2735881183473339
  Basis Set: 6-31G*
  Basis Set:
  Charge       = 0
  Multiplicity = 1
  Basis Set: 6-31G*
  Basis Set:

    Orbital Energies (a.u.)
    -----------------------

    Doubly Occupied:

       1A    -26.369065     2A    -26.368410     3A    -26.368000
       4A    -26.354930     5A    -26.352617     6A    -26.351413
       7A    -20.614226     8A    -11.533836     9A    -11.519472
      10A    -11.349467    11A     -1.770166    12A     -1.753777
      13A     -1.667720    14A     -1.664121    15A     -1.650749
      16A     -1.649484    17A     -1.431859    18A     -1.103865
      19A     -0.998180    20A     -0.937330    21A     -0.869046
      22A     -0.862697    23A     -0.856401    24A     -0.840991
      25A     -0.830430    26A     -0.801031    27A     -0.747394
      28A     -0.733565    29A     -0.718926    30A     -0.716552
      31A     -0.701669    32A     -0.689858    33A     -0.685391
      34A     -0.670056    35A     -0.668083    36A     -0.664937
      37A     -0.652935    38A     -0.650478    39A     -0.615777
      40A     -0.547460    41A     -0.503152

  @DF-RHF Final Energy:  -786.27358845546416

   => Energetics <=

    Nuclear Repulsion Energy =            670.6363007644528125
    One-Electron Energy =               -2428.1487492145224678
    Two-Electron Energy =                 971.2388599946058321
    DFT Exchange-Correlation Energy =       0.0000000000000000
    Empirical Dispersion Energy =           0.0000000000000000
    PCM Polarization Energy =               0.0000000000000000
    EFP Energy =                            0.0000000000000000
    Total Energy =                       -786.2735884554639370
    Molecular point group: c1
  Basis Set: 6-31G*
  Basis Set:

  -Total Gradient:
     Atom            X                  Y                   Z
    ------   -----------------  -----------------  -----------------
       1        0.001089226384     0.000001121121    -0.000013193394
       2       -0.001252031290    -0.000034898927     0.000237995815
       3       -0.000297264607     0.000204212164    -0.001023885648
       4        0.000018480268     0.000070414747     0.000018709717
       5       -0.000036821999    -0.000054979551    -0.000044981501
       6        0.000465839170    -0.000191114344     0.000782520126
       7       -0.000009538765    -0.000007674216     0.000006048527
       8       -0.000000498541    -0.000032971805    -0.000006887225
       9       -0.000005255401    -0.000008541018    -0.000017131543
      10        0.000022425932    -0.000003609891     0.000009720603
      11        0.000013922379     0.000057388053     0.000025281673
      12       -0.000008483530     0.000000653662     0.000025802835

  **** Optimization is complete! (in 7 steps) ****
    Final optimized geometry and variables:
    Molecular point group: c1

    Geometry (in Angstrom), charge = 0, multiplicity = 1:

    H            0.590889312625     1.940863924165     1.029012798696
    O            0.588371203165     1.792275256449     0.093275728409
    C            0.585791972293     0.444266405049    -0.228652937669
    C           -0.632196785135     0.174142099599    -1.104077694015
    C            0.638766866700    -0.423139339282     1.022109665448
    H            1.464414652788     0.198369539240    -0.811870889674
    F           -0.585988803035     0.944753294201    -2.169694174696
    F           -0.651305091744    -1.081743114488    -1.512307424468
    F           -1.759832233886     0.415773606490    -0.470110511731
    F            1.727807677847    -0.114937323295     1.708659376112
    F            0.684489393146    -1.702807284827     0.734563233313
    F           -0.393709947484    -0.206790772511     1.815039118764

  Mulliken Charges: (a.u.)
   Center  Symbol    Alpha    Beta     Spin     Total
       1     H     0.26304  0.26304  0.00000  0.47393
       2     O     4.37142  4.37142  0.00000 -0.74284
       3     C     3.02155  3.02155  0.00000 -0.04309
       4     C     2.43873  2.43873  0.00000  1.12254
       5     C     2.46677  2.46677  0.00000  1.06646
       6     H     0.38293  0.38293  0.00000  0.23413
       7     F     4.67593  4.67593  0.00000 -0.35186
       8     F     4.67870  4.67870  0.00000 -0.35740
       9     F     4.67481  4.67481  0.00000 -0.34961
      10     F     4.68093  4.68093  0.00000 -0.36186
      11     F     4.67023  4.67023  0.00000 -0.34046
      12     F     4.67497  4.67497  0.00000 -0.34994

   Total alpha = 41.00000, Total beta = 41.00000, Total charge =  0.00000
