  ==> Input File <==

--------------------------------------------------------------------------
set {
	reference rhf
	basis 6-31G*
}

set_num_threads( 1 )
memory 2 gb

molecule MOL {
0 1

H	 2.176868	 -0.646004	 -0.217325
O	 1.337496	 -0.537251	 0.205931
C	 0.702312	 0.627605	 -0.264544
C	 -0.714990	 0.596302	 0.266387
H	 0.682322	 0.642550	 -1.350929
H	 1.215941	 1.520383	 0.085680
O	 -1.405996	 -0.526611	 -0.195820
H	 -1.257453	 1.468809	 -0.075599
H	 -0.688972	 0.618407	 1.353696
H	 -1.930872	 -0.858150	 0.521538

	symmetry c1
}
set optking {
	frozen_dihedral = ("
		5 3 4 7
	")
}

ee = energy('scf')
oeprop('DIPOLE', 'QUADRUPOLE', 'MULLIKEN_CHARGES')
f=open( 'psi4out.xyz', 'w' )
f.write( "10  " )
f.write( str(ee) + "\n" )
f.write( MOL.save_string_xyz() )
f.close()
--------------------------------------------------------------------------

    Molecular point group: c1

    Geometry (in Angstrom), charge = 0, multiplicity = 1:

       Center              X                  Y                   Z               Mass
    ------------   -----------------  -----------------  -----------------  -----------------
           H          2.193767742438    -0.653064080261    -0.225439260586     1.007825032070
           O          1.354395742438    -0.544311080261     0.197816739414    15.994914619560
           C          0.719211742438     0.620544919739    -0.272658260586    12.000000000000
           C         -0.698090257562     0.589241919739     0.258272739414    12.000000000000
           H          0.699221742438     0.635489919739    -1.359043260586     1.007825032070
           H          1.232840742438     1.513322919739     0.077565739414     1.007825032070
           O         -1.389096257562    -0.533671080261    -0.203934260586    15.994914619560
           H         -1.240553257562     1.461748919739    -0.083713260586     1.007825032070
           H         -0.672072257562     0.611346919739     1.345581739414     1.007825032070
           H         -1.913972257562    -0.865210080261     0.513423739414     1.007825032070

  Charge       = 0
  Multiplicity = 1
  Basis Set: 6-31G*
  Basis Set:

    Orbital Energies (a.u.)
    -----------------------

    Doubly Occupied:

       1A    -20.551841     2A    -20.549766     3A    -11.270971
       4A    -11.268641     5A     -1.370163     6A     -1.347348
       7A     -0.999667     8A     -0.831572     9A     -0.711777
      10A     -0.706924    11A     -0.610354    12A     -0.595758
      13A     -0.591840    14A     -0.522307    15A     -0.475977
      16A     -0.441631    17A     -0.434710

  @DF-RHF Final Energy:  -228.91747015557777

   => Energetics <=

    Nuclear Repulsion Energy =            133.8223658725713960
    One-Electron Energy =                -578.9172780112987766
    Two-Electron Energy =                 216.1774419831496630
    DFT Exchange-Correlation Energy =       0.0000000000000000
    Empirical Dispersion Energy =           0.0000000000000000
    PCM Polarization Energy =               0.0000000000000000
    EFP Energy =                            0.0000000000000000
    Total Energy =                       -228.9174701555777460

  Mulliken Charges: (a.u.)
   Center  Symbol    Alpha    Beta     Spin     Total
       1     H     0.28021  0.28021  0.00000  0.43958
       2     O     4.36776  4.36776  0.00000 -0.73553
       3     C     3.00169  3.00169  0.00000 -0.00339
       4     C     3.00138  3.00138  0.00000 -0.00276
       5     H     0.42352  0.42352  0.00000  0.15296
       6     H     0.43010  0.43010  0.00000  0.13981
       7     O     4.36442  4.36442  0.00000 -0.72885
       8     H     0.42738  0.42738  0.00000  0.14523
       9     H     0.42528  0.42528  0.00000  0.14944
      10     H     0.27825  0.27825  0.00000  0.44350

   Total alpha = 17.00000, Total beta = 17.00000, Total charge = -0.00000
