  ==> Input File <==

--------------------------------------------------------------------------
set {
	reference rhf
	basis 6-31G*
}

set_num_threads( 4 )
memory 2 gb

molecule MOL {
0 1

H	 -2.170361	 0.886772	 0.499823
C	 -2.018058	 0.004411	 -0.114509
O	 -0.774054	 0.001095	 -0.743181
H	 -2.760482	 0.006993	 -0.901357
H	 -2.175404	 -0.877752	 0.498861
C	 0.406953	 0.000033	 0.038965
C	 1.527284	 -0.003667	 -0.998752
C	 0.498933	 1.262172	 0.902524
C	 0.494271	 -1.259566	 0.906664
H	 1.452513	 0.873252	 -1.631882
H	 1.448863	 -0.881882	 -1.629595
H	 2.502020	 -0.005104	 -0.521731
H	 0.364280	 2.147110	 0.289513
H	 1.472180	 1.321775	 1.378800
H	 -0.247853	 1.275162	 1.689097
H	 0.356778	 -2.146106	 0.296587
H	 1.467182	 -1.320941	 1.383330
H	 -0.252763	 -1.267328	 1.693119

	symmetry c1
}
set optking {
	frozen_dihedral = ("
		2 3 6 7
	")
}

ee = optimize('scf')
oeprop('DIPOLE', 'QUADRUPOLE', 'MULLIKEN_CHARGES')
f=open( 'psi4out.xyz', 'w' )
f.write( "18  " )
f.write( str(ee) + "\n" )
f.write( MOL.save_string_xyz() )
f.close()
--------------------------------------------------------------------------

    Molecular point group: c1
  Charge       = 0
  Multiplicity = 1
  Basis Set: 6-31G*
  Basis Set:
  @DF-RHF Final Energy:  -271.17549561120626
    Total Energy =                       -271.1754956112064860
    Molecular point group: c1
  Basis Set: 6-31G*
  Basis Set:
  Charge       = 0
  Multiplicity = 1
  Basis Set: 6-31G*
  Basis Set:

    Orbital Energies (a.u.)
    -----------------------

    Doubly Occupied:

       1A    -20.546933     2A    -11.281266     3A    -11.260502
       4A    -11.208669     5A    -11.208650     6A    -11.203205
       7A     -1.370123     8A     -1.073056     9A     -0.945735
      10A     -0.939782    11A     -0.912432    12A     -0.752336
      13A     -0.655180    14A     -0.644286    15A     -0.637281
      16A     -0.593028    17A     -0.575000    18A     -0.552653
      19A     -0.534133    20A     -0.523704    21A     -0.514570
      22A     -0.486931    23A     -0.486567    24A     -0.438841
      25A     -0.404710

  @DF-RHF Final Energy:  -271.17549502947963

   => Energetics <=

    Nuclear Repulsion Energy =            272.2837074522617513
    One-Electron Energy =                -907.4192608271320069
    Two-Electron Energy =                 363.9600583453908484
    DFT Exchange-Correlation Energy =       0.0000000000000000
    Empirical Dispersion Energy =           0.0000000000000000
    PCM Polarization Energy =               0.0000000000000000
    EFP Energy =                            0.0000000000000000
    Total Energy =                       -271.1754950294794071
    Molecular point group: c1
  Basis Set: 6-31G*
  Basis Set:

  -Total Gradient:
     Atom            X                  Y                   Z
    ------   -----------------  -----------------  -----------------
       1       -0.000026298562    -0.000021428195    -0.000018230732
       2       -0.000011528838     0.000027699743     0.000003669784
       3       -0.000019472928    -0.000019117275    -0.000021272319
       4        0.000011875712     0.000001812415    -0.000005473146
       5       -0.000007315087     0.000000209844    -0.000009276196
       6       -0.000015532725    -0.000002122278     0.000017669875
       7        0.000007115842     0.000013254766     0.000028658162
       8        0.000027099485    -0.000009209262    -0.000006652955
       9        0.000007396975     0.000011350369    -0.000009444767
      10       -0.000000912622    -0.000005482743     0.000002352090
      11       -0.000002498108    -0.000001439245     0.000010571373
      12        0.000010257092     0.000005524041     0.000003462561
      13       -0.000031984083     0.000002519790     0.000014278119
      14        0.000010505773     0.000011207736    -0.000015524181
      15        0.000042307254    -0.000016588673     0.000005093176
      16       -0.000025099726    -0.000004176783     0.000011665514
      17        0.000006953640    -0.000006574122    -0.000013004711
      18        0.000017130910     0.000012559873     0.000001458354

  **** Optimization is complete! (in 2 steps) ****
    Final optimized geometry and variables:
    Molecular point group: c1

    Geometry (in Angstrom), charge = 0, multiplicity = 1:

    H           -2.171467804009     0.886879480738     0.497550590175
    C           -2.018103342509     0.003755787535    -0.115392768311
    O           -0.773832865764     0.000421593287    -0.743486622566
    H           -2.759965500132     0.004670115732    -0.902761354049
    H           -2.175232084612    -0.877657272035     0.499099280392
    C            0.406888267935    -0.000739237476     0.039143614903
    C            1.527639760638    -0.004427824955    -0.998084941049
    C            0.498963685838     1.261198561944     0.902972401819
    C            0.493774790095    -1.260483330169     0.906646922762
    H            1.452720484863     0.872140167645    -1.631650887253
    H            1.449827344599    -0.883005998593    -1.628514765610
    H            2.502197871402    -0.005176752643    -0.520690932967
    H            0.359040730536     2.146093450377     0.291087685845
    H            1.474113233987     1.323398969005     1.374972926069
    H           -0.244354101667     1.271529911795     1.692862938130
    H            0.352389259383    -2.146711728630     0.297028099017
    H            1.467863574871    -1.324174524650     1.380641146003
    H           -0.251093888312    -1.266389143936     1.695132240584

  Mulliken Charges: (a.u.)
   Center  Symbol    Alpha    Beta     Spin     Total
       1     H     0.42942  0.42942  0.00000  0.14115
       2     C     3.07972  3.07972  0.00000 -0.15945
       3     O     4.31843  4.31843  0.00000 -0.63686
       4     H     0.41284  0.41284  0.00000  0.17433
       5     H     0.42942  0.42942  0.00000  0.14115
       6     C     2.84217  2.84217  0.00000  0.31566
       7     C     3.23302  3.23302  0.00000 -0.46604
       8     C     3.24767  3.24767  0.00000 -0.49534
       9     C     3.24763  3.24763  0.00000 -0.49527
      10     H     0.41411  0.41411  0.00000  0.17178
      11     H     0.41413  0.41413  0.00000  0.17175
      12     H     0.42514  0.42514  0.00000  0.14973
      13     H     0.41327  0.41327  0.00000  0.17347
      14     H     0.41962  0.41962  0.00000  0.16077
      15     H     0.42025  0.42025  0.00000  0.15949
      16     H     0.41328  0.41328  0.00000  0.17343
      17     H     0.41963  0.41963  0.00000  0.16075
      18     H     0.42025  0.42025  0.00000  0.15950

   Total alpha = 25.00000, Total beta = 25.00000, Total charge = -0.00000
