  ==> Input File <==

--------------------------------------------------------------------------
set {
	reference rhf
	basis 6-31G*
}

set_num_threads( 4 )
memory 2 gb

molecule MOL {
0 1

H	 2.373141	 -0.771187	 0.517524
C	 1.641063	 0.012824	 0.624495
O	 0.464886	 -0.454746	 -0.000158
H	 2.006588	 0.912103	 0.143128
H	 1.472994	 0.204508	 1.677620
C	 -0.590998	 0.343045	 0.000118
O	 -1.699443	 -0.054298	 0.000227
H	 -0.340329	 1.404368	 0.000207

	symmetry c1
}
set optking {
	frozen_dihedral = ("
		2 3 6 7
	")
}

ee = optimize('scf')
oeprop('DIPOLE', 'QUADRUPOLE', 'MULLIKEN_CHARGES')
f=open( 'psi4out.xyz', 'w' )
f.write( "8  " )
f.write( str(ee) + "\n" )
f.write( MOL.save_string_xyz() )
f.close()
--------------------------------------------------------------------------

    Molecular point group: c1
  Charge       = 0
  Multiplicity = 1
  Basis Set: 6-31G*
  Basis Set:
  @DF-RHF Final Energy:  -227.77657686020274
    Total Energy =                       -227.7765768602027094
    Molecular point group: c1
  Basis Set: 6-31G*
  Basis Set:
  Basis Set: 6-31G*
  Basis Set:
  @DF-RHF Final Energy:  -227.77654375270646
    Total Energy =                       -227.7765437527064876
  Basis Set: 6-31G*
  Basis Set:
  Basis Set: 6-31G*
  Basis Set:
  @DF-RHF Final Energy:  -227.77668635453847
    Total Energy =                       -227.7766863545385831
  Basis Set: 6-31G*
  Basis Set:
  Basis Set: 6-31G*
  Basis Set:
  @DF-RHF Final Energy:  -227.77679937262033
    Total Energy =                       -227.7767993726203883
  Basis Set: 6-31G*
  Basis Set:
  Basis Set: 6-31G*
  Basis Set:
  @DF-RHF Final Energy:  -227.77680099124021
    Total Energy =                       -227.7768009912401794
  Basis Set: 6-31G*
  Basis Set:
  Charge       = 0
  Multiplicity = 1
  Basis Set: 6-31G*
  Basis Set:

    Orbital Energies (a.u.)
    -----------------------

    Doubly Occupied:

       1A    -20.613450     2A    -20.561456     3A    -11.382760
       4A    -11.304394     5A     -1.475496     6A     -1.383804
       7A     -0.992516     8A     -0.847748     9A     -0.738378
      10A     -0.684737    11A     -0.681092    12A     -0.611075
      13A     -0.570285    14A     -0.533363    15A     -0.464611
      16A     -0.454245

  @DF-RHF Final Energy:  -227.77680118419954

   => Energetics <=

    Nuclear Repulsion Energy =            121.2365550791379860
    One-Electron Energy =                -551.4278921726693170
    Two-Electron Energy =                 202.4145359093315335
    DFT Exchange-Correlation Energy =       0.0000000000000000
    Empirical Dispersion Energy =           0.0000000000000000
    PCM Polarization Energy =               0.0000000000000000
    EFP Energy =                            0.0000000000000000
    Total Energy =                       -227.7768011841997975
    Molecular point group: c1
  Basis Set: 6-31G*
  Basis Set:

  -Total Gradient:
     Atom            X                  Y                   Z
    ------   -----------------  -----------------  -----------------
       1        0.000006326767     0.000005564031    -0.000002617153
       2       -0.001103569942    -0.000993285255     0.003318871222
       3        0.001738212837     0.001774598812    -0.002689723381
       4       -0.000007006485    -0.000010133460    -0.000004269665
       5       -0.000015086630    -0.000000075821    -0.000005277203
       6       -0.000664717357    -0.001367340757    -0.005189718685
       7        0.000034917467     0.000613302489     0.004579519180
       8        0.000010923346    -0.000022630039    -0.000006784315

  **** Optimization is complete! (in 6 steps) ****
    Final optimized geometry and variables:
    Molecular point group: c1

    Geometry (in Angstrom), charge = 0, multiplicity = 1:

    H            2.440181993750    -0.683155384088     0.239490813355
    C            1.669214754400     0.038893697252     0.455515550604
    O            0.475874699709    -0.460560441116    -0.106880305081
    H            1.941407383120     0.993911396336     0.018365573567
    H            1.564800565623     0.147147946781     1.527695717776
    C           -0.549669096003     0.374855756543    -0.213263282306
    O           -1.674667514397     0.032097078463    -0.165760171673
    H           -0.250916388994     1.415676670159    -0.343006145158

  Mulliken Charges: (a.u.)
   Center  Symbol    Alpha    Beta     Spin     Total
       1     H     0.39796  0.39796  0.00000  0.20409
       2     C     3.09813  3.09813  0.00000 -0.19627
       3     O     4.27983  4.27983  0.00000 -0.55966
       4     H     0.41756  0.41756  0.00000  0.16489
       5     H     0.40962  0.40962  0.00000  0.18077
       6     C     2.72447  2.72447  0.00000  0.55105
       7     O     4.24098  4.24098  0.00000 -0.48196
       8     H     0.43145  0.43145  0.00000  0.13709

   Total alpha = 16.00000, Total beta = 16.00000, Total charge =  0.00000
