  ==> Input File <==

--------------------------------------------------------------------------
set {
	reference rhf
	basis cc-pvtz
}

set_num_threads( 4 )
memory 2 gb

molecule MOL {
0 1

H	 -3.941973	 0.934228	 -0.390224
C	 -3.240162	 0.342701	 0.161016
C	 -2.105997	 -0.000418	 -0.398703
H	 -3.485368	 0.047206	 1.162193
O	 -1.189946	 -0.765863	 0.237511
H	 -1.846458	 0.297311	 -1.398265
C	 0.026572	 -0.995256	 -0.379403
C	 1.057223	 0.049888	 -0.004615
H	 -0.054361	 -1.010670	 -1.459674
H	 0.397526	 -1.952058	 -0.044198
F	 1.683810	 0.457384	 -1.090163
F	 0.505615	 1.104004	 0.557591
F	 1.955775	 -0.419750	 0.826350

	symmetry c1
}
set optking {
	frozen_dihedral = ("
		11 8 7 9
	")
}

ee = optimize('scf')
oeprop('DIPOLE', 'QUADRUPOLE', 'MULLIKEN_CHARGES')
f=open( 'psi4out.xyz', 'w' )
f.write( "13  " )
f.write( str(ee) + "\n" )
f.write( MOL.save_string_xyz() )
f.close()
--------------------------------------------------------------------------

    Molecular point group: c1
  Charge       = 0
  Multiplicity = 1
  Basis Set: CC-PVTZ
  Basis Set:
  @DF-RHF Final Energy:  -527.73534443448693
    Total Energy =                       -527.7353444344871605
    Molecular point group: c1
  Basis Set: CC-PVTZ
  Basis Set:
  Basis Set: CC-PVTZ
  Basis Set:
  @DF-RHF Final Energy:  -527.73590541014391
    Total Energy =                       -527.7359054101441416
  Basis Set: CC-PVTZ
  Basis Set:
  Basis Set: CC-PVTZ
  Basis Set:
  @DF-RHF Final Energy:  -527.73609516327929
    Total Energy =                       -527.7360951632797423
  Basis Set: CC-PVTZ
  Basis Set:
  Basis Set: CC-PVTZ
  Basis Set:
  @DF-RHF Final Energy:  -527.73611234888949
    Total Energy =                       -527.7361123488894918
  Basis Set: CC-PVTZ
  Basis Set:
  Basis Set: CC-PVTZ
  Basis Set:
  @DF-RHF Final Energy:  -527.73611808079113
    Total Energy =                       -527.7361180807913570
  Basis Set: CC-PVTZ
  Basis Set:
  Basis Set: CC-PVTZ
  Basis Set:
  @DF-RHF Final Energy:  -527.73612194997179
    Total Energy =                       -527.7361219499716753
  Basis Set: CC-PVTZ
  Basis Set:
  Basis Set: CC-PVTZ
  Basis Set:
  @DF-RHF Final Energy:  -527.73612322362328
    Total Energy =                       -527.7361232236229398
  Basis Set: CC-PVTZ
  Basis Set:
  Charge       = 0
  Multiplicity = 1
  Basis Set: CC-PVTZ
  Basis Set:

    Orbital Energies (a.u.)
    -----------------------

    Doubly Occupied:

       1A    -26.340010     2A    -26.339530     3A    -26.339351
       4A    -20.603639     5A    -11.499612     6A    -11.319686
       7A    -11.298447     8A    -11.214257     9A     -1.750705
      10A     -1.646127    11A     -1.645181    12A     -1.444532
      13A     -1.084569    14A     -1.019197    15A     -0.932584
      16A     -0.844164    17A     -0.837935    18A     -0.828223
      19A     -0.795786    20A     -0.732050    21A     -0.723161
      22A     -0.701923    23A     -0.680371    24A     -0.668000
      25A     -0.662220    26A     -0.650012    27A     -0.634251
      28A     -0.587325    29A     -0.564869    30A     -0.529564
      31A     -0.516039    32A     -0.357020

  @DF-RHF Final Energy:  -527.73612374761512

   => Energetics <=

    Nuclear Repulsion Energy =            412.8305699239907653
    One-Electron Energy =               -1549.5526988951150997
    Two-Electron Energy =                 608.9860052235098919
    DFT Exchange-Correlation Energy =       0.0000000000000000
    Empirical Dispersion Energy =           0.0000000000000000
    PCM Polarization Energy =               0.0000000000000000
    EFP Energy =                            0.0000000000000000
    Total Energy =                       -527.7361237476143287
    Molecular point group: c1
  Basis Set: CC-PVTZ
  Basis Set:

  -Total Gradient:
     Atom            X                  Y                   Z
    ------   -----------------  -----------------  -----------------
       1       -0.000002794974    -0.000007690398    -0.000003696035
       2        0.000009451784     0.000004813212     0.000003819277
       3        0.000071698130     0.000030103721     0.000027396589
       4        0.000002147042     0.000000297623     0.000001837240
       5       -0.000093882312    -0.000052572968     0.000025988133
       6       -0.000003583844    -0.000010377308    -0.000012529583
       7       -0.003233777351     0.003321426875    -0.000115477089
       8        0.002796062663    -0.002951970216     0.000476958227
       9        0.002257059186    -0.002237866084    -0.000016234109
      10       -0.000031296916     0.000001415752     0.000003120053
      11       -0.001750543751     0.001917717771    -0.000462017295
      12       -0.000015799017    -0.000027182052     0.000027304954
      13       -0.000004740640     0.000011884074     0.000043529639

  **** Optimization is complete! (in 8 steps) ****
    Final optimized geometry and variables:
    Molecular point group: c1

    Geometry (in Angstrom), charge = 0, multiplicity = 1:

    H           -3.931247115183     0.958168323829    -0.356606453157
    C           -3.263682823679     0.308177723144     0.170817847101
    C           -2.091034532961     0.031456783584    -0.344375485792
    H           -3.573052331174    -0.097349830901     1.114079443698
    O           -1.209639470423    -0.792400641564     0.266840526672
    H           -1.769230100816     0.438425138678    -1.286157991496
    C            0.007715506228    -1.015390939188    -0.345518827977
    C            1.062983406461     0.052324417894    -0.018693712557
    H           -0.073241046572    -1.087877074545    -1.422506239900
    H            0.382787686546    -1.957630764234     0.022046558133
    F            1.709893727074     0.412631655183    -1.111274005677
    F            0.532168554866     1.135718258338     0.493251422601
    F            1.957786873666    -0.394805939152     0.835377218757

  Mulliken Charges: (a.u.)
   Center  Symbol    Alpha    Beta     Spin     Total
       1     H     0.42545  0.42545  0.00000  0.14911
       2     C     3.19637  3.19637  0.00000 -0.39274
       3     C     2.95651  2.95651  0.00000  0.08698
       4     H     0.42507  0.42507  0.00000  0.14985
       5     O     4.13951  4.13951  0.00000 -0.27903
       6     H     0.43465  0.43465  0.00000  0.13069
       7     C     3.03491  3.03491  0.00000 -0.06983
       8     C     2.67150  2.67150  0.00000  0.65700
       9     H     0.45447  0.45447  0.00000  0.09106
      10     H     0.43601  0.43601  0.00000  0.12798
      11     F     4.61280  4.61280  0.00000 -0.22560
      12     F     4.60385  4.60385  0.00000 -0.20770
      13     F     4.60889  4.60889  0.00000 -0.21778

   Total alpha = 32.00000, Total beta = 32.00000, Total charge = -0.00000
