  ==> Input File <==

--------------------------------------------------------------------------
set {
	reference rhf
	basis cc-pvtz
}

set_num_threads( 4 )
memory 2 gb

molecule MOL {
0 1

O	 0.089062	 1.238038	 -0.222788
C	 0.029490	 0.077183	 0.000078
C	 -1.232113	 -0.748027	 0.000015
O	 1.088505	 -0.662175	 0.284804
C	 -2.501422	 0.088592	 -0.000052
H	 -1.188777	 -1.400384	 -0.865133
H	 -1.188857	 -1.400312	 0.865225
H	 -2.548170	 0.725504	 -0.873205
H	 -3.371613	 -0.556398	 -0.000040
H	 -2.548215	 0.725571	 0.873047
C	 2.343298	 -0.012571	 0.318740
H	 2.572977	 0.423379	 -0.642213
H	 3.066045	 -0.773517	 0.564553
H	 2.350069	 0.764333	 1.068819

	symmetry c1
}
set optking {
	frozen_dihedral = ("
		4 2 3 6
	")
}

ee = optimize('scf')
oeprop('DIPOLE', 'QUADRUPOLE', 'MULLIKEN_CHARGES')
f=open( 'psi4out.xyz', 'w' )
f.write( "14  " )
f.write( str(ee) + "\n" )
f.write( MOL.save_string_xyz() )
f.close()
--------------------------------------------------------------------------

    Molecular point group: c1
  Charge       = 0
  Multiplicity = 1
  Basis Set: CC-PVTZ
  Basis Set:
  @DF-RHF Final Energy:  -305.98749037447317
    Total Energy =                       -305.9874903744732251
    Molecular point group: c1
  Basis Set: CC-PVTZ
  Basis Set:
  Basis Set: CC-PVTZ
  Basis Set:
  @DF-RHF Final Energy:  -305.98748644845040
    Total Energy =                       -305.9874864484507953
  Basis Set: CC-PVTZ
  Basis Set:
  Basis Set: CC-PVTZ
  Basis Set:
  @DF-RHF Final Energy:  -305.98741377600493
    Total Energy =                       -305.9874137760048711
  Basis Set: CC-PVTZ
  Basis Set:
  Basis Set: CC-PVTZ
  Basis Set:
  @DF-RHF Final Energy:  -305.98756091500479
    Total Energy =                       -305.9875609150052469
  Basis Set: CC-PVTZ
  Basis Set:
  Charge       = 0
  Multiplicity = 1
  Basis Set: CC-PVTZ
  Basis Set:

    Orbital Energies (a.u.)
    -----------------------

    Doubly Occupied:

       1A    -20.597485     2A    -20.534727     3A    -11.365240
       4A    -11.279153     5A    -11.237162     6A    -11.215113
       7A     -1.473196     8A     -1.366686     9A     -1.065390
      10A     -0.981269    11A     -0.878950    12A     -0.771275
      13A     -0.702784    14A     -0.686049    15A     -0.675565
      16A     -0.621765    17A     -0.604101    18A     -0.547182
      19A     -0.538563    20A     -0.521988    21A     -0.516032
      22A     -0.497329    23A     -0.461389    24A     -0.442429

  @DF-RHF Final Energy:  -305.98756155064768

   => Energetics <=

    Nuclear Repulsion Energy =            247.5705544291582498
    One-Electron Energy =                -907.9545894260993464
    Two-Electron Energy =                 354.3964734462934985
    DFT Exchange-Correlation Energy =       0.0000000000000000
    Empirical Dispersion Energy =           0.0000000000000000
    PCM Polarization Energy =               0.0000000000000000
    EFP Energy =                            0.0000000000000000
    Total Energy =                       -305.9875615506475697
    Molecular point group: c1
  Basis Set: CC-PVTZ
  Basis Set:

  -Total Gradient:
     Atom            X                  Y                   Z
    ------   -----------------  -----------------  -----------------
       1       -0.000004298540    -0.000021399839     0.000008792592
       2        0.000021765447     0.000003699665    -0.000785903734
       3        0.000341098341    -0.000524842992     0.000577074231
       4       -0.000059893852     0.000085387115     0.000565360360
       5        0.000009205522     0.000001060298     0.000015088521
       6       -0.000293872883     0.000451111633    -0.000349997531
       7        0.000002707848     0.000007620770    -0.000001812182
       8        0.000001274455    -0.000000411360    -0.000002740687
       9        0.000000908794    -0.000000887399     0.000000179869
      10       -0.000005380170     0.000003972253     0.000000127417
      11       -0.000014978450    -0.000009975853    -0.000040393786
      12        0.000015065282     0.000007201374     0.000004064533
      13       -0.000000481073     0.000000337571     0.000005271690
      14       -0.000013120717    -0.000002873239     0.000004888707

  **** Optimization is complete! (in 5 steps) ****
    Final optimized geometry and variables:
    Molecular point group: c1

    Geometry (in Angstrom), charge = 0, multiplicity = 1:

    O            0.088998633911     1.232310879987    -0.273048086512
    C            0.032559172292     0.071085384911    -0.050835577233
    C           -1.227617003762    -0.756450749077    -0.058834660292
    O            1.094423176720    -0.666924259387     0.226146080597
    C           -2.496859913684     0.081120024002    -0.084795582675
    H           -1.171820379567    -1.395806258224    -0.934451201843
    H           -1.200310688017    -1.416256998379     0.799194601394
    H           -2.520137978879     0.724329022535    -0.953445647410
    H           -3.366969437051    -0.563410198740    -0.110205846503
    H           -2.566476384466     0.711085152751     0.792699162522
    C            2.350787196281    -0.019358370827     0.231591102457
    H            2.564787826878     0.406281047911    -0.737604100365
    H            3.076183662691    -0.779263263660     0.472754068877
    H            2.371592143563     0.765088089207     0.973383457489

  Mulliken Charges: (a.u.)
   Center  Symbol    Alpha    Beta     Spin     Total
       1     O     4.19689  4.19689  0.00000 -0.39378
       2     C     2.80339  2.80339  0.00000  0.39322
       3     C     3.09336  3.09336  0.00000 -0.18671
       4     O     4.14669  4.14669  0.00000 -0.29337
       5     C     3.14021  3.14021  0.00000 -0.28043
       6     H     0.44323  0.44323  0.00000  0.11355
       7     H     0.43960  0.43960  0.00000  0.12081
       8     H     0.44576  0.44576  0.00000  0.10848
       9     H     0.45030  0.45030  0.00000  0.09940
      10     H     0.45063  0.45063  0.00000  0.09874
      11     C     3.03587  3.03587  0.00000 -0.07175
      12     H     0.45445  0.45445  0.00000  0.09110
      13     H     0.44542  0.44542  0.00000  0.10915
      14     H     0.45421  0.45421  0.00000  0.09159

   Total alpha = 24.00000, Total beta = 24.00000, Total charge =  0.00000
