  ==> Input File <==

--------------------------------------------------------------------------
set {
	reference rhf
	basis 6-31G*
}

set_num_threads( 4 )
memory 2 gb

molecule MOL {
0 1

H	 3.296388	 -0.449977	 0.010500
C	 2.237234	 -0.263939	 0.008243
C	 1.739548	 0.883993	 -0.596255
C	 1.377952	 -1.169657	 0.607649
H	 2.412932	 1.582242	 -1.059428
C	 0.379887	 1.125991	 -0.600960
H	 1.766596	 -2.056497	 1.074251
C	 0.014119	 -0.925735	 0.602258
H	 -0.024792	 2.007013	 -1.062683
C	 -0.488460	 0.219100	 0.000000
H	 -0.658899	 -1.626033	 1.066560
C	 -1.949954	 0.470334	 0.000000
O	 -2.781584	 -0.381627	 0.000000
H	 -2.238022	 1.526388	 0.000000

	symmetry c1
}
set optking {
	frozen_dihedral = ("
		8 10 12 14
	")
}

ee = optimize('scf')
oeprop('DIPOLE', 'QUADRUPOLE', 'MULLIKEN_CHARGES')
f=open( 'psi4out.xyz', 'w' )
f.write( "14  " )
f.write( str(ee) + "\n" )
f.write( MOL.save_string_xyz() )
f.close()
--------------------------------------------------------------------------

    Molecular point group: c1
  Charge       = 0
  Multiplicity = 1
  Basis Set: 6-31G*
  Basis Set:
  @DF-RHF Final Energy:  -343.42948955430677
    Total Energy =                       -343.4294895543067696
    Molecular point group: c1
  Basis Set: 6-31G*
  Basis Set:
  Basis Set: 6-31G*
  Basis Set:
  @DF-RHF Final Energy:  -343.42673802505374
    Total Energy =                       -343.4267380250535098
  Basis Set: 6-31G*
  Basis Set:
  Basis Set: 6-31G*
  Basis Set:
  @DF-RHF Final Energy:  -343.43001981405394
    Total Energy =                       -343.4300198140539351
  Basis Set: 6-31G*
  Basis Set:
  Basis Set: 6-31G*
  Basis Set:
  @DF-RHF Final Energy:  -343.43012209159076
    Total Energy =                       -343.4301220915907606
  Basis Set: 6-31G*
  Basis Set:
  Basis Set: 6-31G*
  Basis Set:
  @DF-RHF Final Energy:  -343.43012491708640
    Total Energy =                       -343.4301249170863457
  Basis Set: 6-31G*
  Basis Set:
  Charge       = 0
  Multiplicity = 1
  Basis Set: 6-31G*
  Basis Set:

    Orbital Energies (a.u.)
    -----------------------

    Doubly Occupied:

       1A    -20.563738     2A    -11.331907     3A    -11.253084
       4A    -11.250008     5A    -11.247900     6A    -11.246588
       7A    -11.244975     8A    -11.243178     9A     -1.404080
      10A     -1.170860    11A     -1.046845    12A     -1.031157
      13A     -0.888875    14A     -0.843393    15A     -0.791359
      16A     -0.720859    17A     -0.677532    18A     -0.651773
      19A     -0.621187    20A     -0.617565    21A     -0.602416
      22A     -0.549740    23A     -0.526512    24A     -0.506364
      25A     -0.502111    26A     -0.421905    27A     -0.349236
      28A     -0.346756

  @DF-RHF Final Energy:  -343.43012568719246

   => Energetics <=

    Nuclear Repulsion Energy =            323.0652552736245298
    One-Electron Energy =               -1105.6869552952166487
    Two-Electron Energy =                 439.1915743343999452
    DFT Exchange-Correlation Energy =       0.0000000000000000
    Empirical Dispersion Energy =           0.0000000000000000
    PCM Polarization Energy =               0.0000000000000000
    EFP Energy =                            0.0000000000000000
    Total Energy =                       -343.4301256871921737
    Molecular point group: c1
  Basis Set: 6-31G*
  Basis Set:

  -Total Gradient:
     Atom            X                  Y                   Z
    ------   -----------------  -----------------  -----------------
       1        0.000002831948     0.000013156055     0.000004811456
       2       -0.000030466034    -0.000119943095     0.000050049280
       3       -0.000111142592     0.000066027405    -0.000054084301
       4        0.000136037481     0.000052078991    -0.000023970840
       5        0.000009590162    -0.000005499606     0.000009685082
       6        0.000148044738     0.000025138615    -0.000039662025
       7       -0.000008451737    -0.000005257171    -0.000003637607
       8        0.000419372224     0.002395056795     0.003793582664
       9       -0.000002863069    -0.000007722934     0.000009290283
      10       -0.000734964696    -0.003418526230    -0.003808979764
      11       -0.000002426780    -0.000000015108     0.000009858906
      12        0.000048870748     0.000845426230    -0.005450644241
      13       -0.000006679714     0.000034362027    -0.000010258729
      14        0.000132247321     0.000125718026     0.005513959835

  **** Optimization is complete! (in 6 steps) ****
    Final optimized geometry and variables:
    Molecular point group: c1

    Geometry (in Angstrom), charge = 0, multiplicity = 1:

    H            3.303403135628    -0.424034855539     0.020535129355
    C            2.243048582561    -0.246001254533     0.002349990318
    C            1.746306225138     0.896275360077    -0.604619641694
    C            1.379497060917    -1.156477569734     0.596156162452
    H            2.417535852703     1.602738189189    -1.058175553763
    C            0.381347978944     1.130027629683    -0.612307333689
    H            1.771261369891    -2.034401431396     1.077093053481
    C            0.015666057988    -0.932255020690     0.570698193160
    H           -0.007701897407     2.026068913202    -1.065094987437
    C           -0.488656102316     0.206876543062    -0.047559269134
    H           -0.666870673783    -1.629262282646     1.020002811815
    C           -1.948267324859     0.482985828427    -0.019450494913
    O           -2.787000679467    -0.354416250844     0.088869763647
    H           -2.223052315178     1.542094842583    -0.038689139831

  Mulliken Charges: (a.u.)
   Center  Symbol    Alpha    Beta     Spin     Total
       1     H     0.39444  0.39444  0.00000  0.21113
       2     C     3.09231  3.09231  0.00000 -0.18461
       3     C     3.10361  3.10361  0.00000 -0.20721
       4     C     3.10345  3.10345  0.00000 -0.20690
       5     H     0.39480  0.39480  0.00000  0.21039
       6     C     3.10212  3.10212  0.00000 -0.20424
       7     H     0.39415  0.39415  0.00000  0.21171
       8     C     3.09075  3.09075  0.00000 -0.18150
       9     H     0.39312  0.39312  0.00000  0.21377
      10     C     3.04810  3.04810  0.00000 -0.09619
      11     H     0.37943  0.37943  0.00000  0.24115
      12     C     2.83703  2.83703  0.00000  0.32593
      13     O     4.24379  4.24379  0.00000 -0.48758
      14     H     0.42292  0.42292  0.00000  0.15415

   Total alpha = 28.00000, Total beta = 28.00000, Total charge =  0.00000
