  ==> Input File <==

--------------------------------------------------------------------------
set {
	reference rhf
	basis 6-31G*
}

set_num_threads( 4 )
memory 2 gb

molecule MOL {
0 1

H	 -2.844648	 -1.392987	 0.643253
O	 -2.019023	 -1.064414	 0.317434
C	 -2.026376	 0.340750	 0.341611
C	 -0.673256	 0.843270	 -0.132153
H	 -2.809464	 0.727084	 -0.308355
H	 -2.226363	 0.704610	 1.348718
C	 0.486613	 -0.083066	 0.235839
H	 -0.715586	 0.970948	 -1.210718
H	 -0.508072	 1.829858	 0.297090
C	 1.840406	 0.433480	 -0.254303
H	 0.300215	 -1.068318	 -0.178947
H	 0.519509	 -0.203625	 1.318070
C	 3.000220	 -0.489290	 0.118523
H	 1.809207	 0.553576	 -1.335192
H	 2.021860	 1.424500	 0.157276
H	 2.864959	 -1.479103	 -0.307933
H	 3.946603	 -0.099227	 -0.243630
H	 3.080049	 -0.602997	 1.196117

	symmetry c1
}
set optking {
	frozen_dihedral = ("
		2 3 4 8
	")
}

ee = optimize('scf')
oeprop('DIPOLE', 'QUADRUPOLE', 'MULLIKEN_CHARGES')
f=open( 'psi4out.xyz', 'w' )
f.write( "18  " )
f.write( str(ee) + "\n" )
f.write( MOL.save_string_xyz() )
f.close()
--------------------------------------------------------------------------

    Molecular point group: c1
  Charge       = 0
  Multiplicity = 1
  Basis Set: 6-31G*
  Basis Set:
  @DF-RHF Final Energy:  -271.17515505317863
    Total Energy =                       -271.1751550531787416
    Molecular point group: c1
  Basis Set: 6-31G*
  Basis Set:
  Basis Set: 6-31G*
  Basis Set:
  @DF-RHF Final Energy:  -271.17574930400474
    Total Energy =                       -271.1757493040046256
  Basis Set: 6-31G*
  Basis Set:
  Basis Set: 6-31G*
  Basis Set:
  @DF-RHF Final Energy:  -271.17610998853320
    Total Energy =                       -271.1761099885330850
  Basis Set: 6-31G*
  Basis Set:
  Basis Set: 6-31G*
  Basis Set:
  @DF-RHF Final Energy:  -271.17612285868739
    Total Energy =                       -271.1761228586876769
  Basis Set: 6-31G*
  Basis Set:
  Basis Set: 6-31G*
  Basis Set:
  @DF-RHF Final Energy:  -271.17612423025378
    Total Energy =                       -271.1761242302538903
  Basis Set: 6-31G*
  Basis Set:
  Basis Set: 6-31G*
  Basis Set:
  @DF-RHF Final Energy:  -271.17612603716202
    Total Energy =                       -271.1761260371620779
  Basis Set: 6-31G*
  Basis Set:
  Charge       = 0
  Multiplicity = 1
  Basis Set: 6-31G*
  Basis Set:

    Orbital Energies (a.u.)
    -----------------------

    Doubly Occupied:

       1A    -20.552731     2A    -11.268683     3A    -11.212651
       4A    -11.209471     5A    -11.204479     6A    -11.203326
       7A     -1.359582     8A     -1.072737     9A     -1.006725
      10A     -0.913278    11A     -0.817294    12A     -0.782437
      13A     -0.699343    14A     -0.651511    15A     -0.618475
      16A     -0.580057    17A     -0.572406    18A     -0.552665
      19A     -0.519149    20A     -0.501831    21A     -0.489570
      22A     -0.464852    23A     -0.456630    24A     -0.443660
      25A     -0.428352

  @DF-RHF Final Energy:  -271.17612593053434

   => Energetics <=

    Nuclear Repulsion Energy =            249.6391454885250312
    One-Electron Energy =                -862.4667533056896218
    Two-Electron Energy =                 341.6514818866299947
    DFT Exchange-Correlation Energy =       0.0000000000000000
    Empirical Dispersion Energy =           0.0000000000000000
    PCM Polarization Energy =               0.0000000000000000
    EFP Energy =                            0.0000000000000000
    Total Energy =                       -271.1761259305345675
    Molecular point group: c1
  Basis Set: 6-31G*
  Basis Set:

  -Total Gradient:
     Atom            X                  Y                   Z
    ------   -----------------  -----------------  -----------------
       1        0.000001314437     0.000005911143     0.000003155931
       2        0.001835473774    -0.000148770180     0.004470535735
       3       -0.002733337272     0.001708731669    -0.005636653645
       4        0.002581964463    -0.007577364766     0.000274312855
       5        0.000017088931    -0.000010124878    -0.000025351075
       6       -0.000014854229     0.000025526595    -0.000004350571
       7        0.000007638773     0.000010029404     0.000062233002
       8       -0.001683591015     0.006020276731     0.000863948228
       9       -0.000010102184    -0.000024635868     0.000023595845
      10       -0.000005345428    -0.000005077345    -0.000024357290
      11        0.000000405423     0.000008019077    -0.000003754552
      12        0.000000929818    -0.000018687014    -0.000005527473
      13       -0.000000594661     0.000007657873     0.000015397608
      14        0.000003498485    -0.000000998063    -0.000008119994
      15       -0.000000288132    -0.000002145011    -0.000006318247
      16        0.000001812073     0.000005147394    -0.000006293008
      17        0.000000659957     0.000004823442     0.000007301063
      18       -0.000002673212    -0.000008320200     0.000000245588

  **** Optimization is complete! (in 7 steps) ****
    Final optimized geometry and variables:
    Molecular point group: c1

    Geometry (in Angstrom), charge = 0, multiplicity = 1:

    H           -3.005823158351    -1.292101666555     0.536018901995
    O           -2.153933231430    -1.021989749050     0.224379159733
    C           -2.073981409997     0.381141205923     0.240429871868
    C           -0.712233627404     0.832563424876    -0.287288270323
    H           -2.867980222673     0.822957279093    -0.357454865218
    H           -2.199312154091     0.737529090641     1.261881785102
    C            0.455808478013    -0.073600487312     0.098261208322
    H           -0.761434486067     0.974196082787    -1.364186525286
    H           -0.534567989587     1.830402561412     0.112043882838
    C            1.804674061468     0.482524227748    -0.361826391152
    H            0.302818033877    -1.060015716174    -0.324098834743
    H            0.467762534090    -0.203837254916     1.178725313267
    C            2.978112222229    -0.422717194350     0.011572105100
    H            1.788140493406     0.622705804765    -1.440871680954
    H            1.959380638757     1.469071321599     0.070832732601
    H            2.871724300584    -1.406143046541    -0.437281184713
    H            3.921719442567    -0.004793420193    -0.326028744759
    H            3.041990776393    -0.557388897630     1.087732455764

  Mulliken Charges: (a.u.)
   Center  Symbol    Alpha    Beta     Spin     Total
       1     H     0.28059  0.28059  0.00000  0.43881
       2     O     4.36999  4.36999  0.00000 -0.73997
       3     C     2.99321  2.99321  0.00000  0.01359
       4     C     3.16831  3.16831  0.00000 -0.33661
       5     H     0.42921  0.42921  0.00000  0.14157
       6     H     0.43232  0.43232  0.00000  0.13537
       7     C     3.14662  3.14662  0.00000 -0.29324
       8     H     0.41886  0.41886  0.00000  0.16228
       9     H     0.42390  0.42390  0.00000  0.15220
      10     C     3.15282  3.15282  0.00000 -0.30565
      11     H     0.40781  0.40781  0.00000  0.18438
      12     H     0.42410  0.42410  0.00000  0.15181
      13     C     3.23868  3.23868  0.00000 -0.47735
      14     H     0.42391  0.42391  0.00000  0.15218
      15     H     0.42555  0.42555  0.00000  0.14890
      16     H     0.42100  0.42100  0.00000  0.15800
      17     H     0.42085  0.42085  0.00000  0.15831
      18     H     0.42229  0.42229  0.00000  0.15543

   Total alpha = 25.00000, Total beta = 25.00000, Total charge =  0.00000
