  ==> Input File <==

--------------------------------------------------------------------------
set {
	reference rhf
	basis cc-pvtz
}

set_num_threads( 4 )
memory 2 gb

molecule MOL {
0 1

H	 -0.428436	 0.356817	 -2.440455
C	 0.062361	 1.128665	 -1.832008
C	 0.062554	 0.862911	 -0.350953
O	 0.545238	 2.073828	 -2.352249
C	 -1.339253	 0.577611	 0.196911
H	 0.521151	 1.705461	 0.150338
H	 0.693752	 -0.008113	 -0.189769
C	 -1.813142	 -0.849710	 -0.061612
H	 -2.032833	 1.276441	 -0.256032
H	 -1.357249	 0.782269	 1.263793
H	 -1.839268	 -1.063526	 -1.124230
H	 -2.810118	 -1.001930	 0.334000
H	 -1.159274	 -1.579980	 0.402282

	symmetry c1
}
set optking {
	frozen_dihedral = ("
		6 3 5 9
	")
}

ee = optimize('scf')
oeprop('DIPOLE', 'QUADRUPOLE', 'MULLIKEN_CHARGES')
f=open( 'psi4out.xyz', 'w' )
f.write( "13  " )
f.write( str(ee) + "\n" )
f.write( MOL.save_string_xyz() )
f.close()
--------------------------------------------------------------------------

    Molecular point group: c1
  Charge       = 0
  Multiplicity = 1
  Basis Set: CC-PVTZ
  Basis Set:
  @DF-RHF Final Energy:  -231.06832497026622
    Total Energy =                       -231.0683249702663602
    Molecular point group: c1
  Basis Set: CC-PVTZ
  Basis Set:
  Basis Set: CC-PVTZ
  Basis Set:
  @DF-RHF Final Energy:  -231.06830545674455
    Total Energy =                       -231.0683054567444970
  Basis Set: CC-PVTZ
  Basis Set:
  Basis Set: CC-PVTZ
  Basis Set:
  @DF-RHF Final Energy:  -231.06565308597737
    Total Energy =                       -231.0656530859772602
  Basis Set: CC-PVTZ
  Basis Set:
  Basis Set: CC-PVTZ
  Basis Set:
  @DF-RHF Final Energy:  -231.06857705411272
    Total Energy =                       -231.0685770541126374
  Basis Set: CC-PVTZ
  Basis Set:
  @DF-RHF Final Energy:  -231.06860645728548
    Total Energy =                       -231.0686064572854832
  Basis Set: CC-PVTZ
  Basis Set:
  @DF-RHF Final Energy:  -231.06861076393011
    Total Energy =                       -231.0686107639302520
  Basis Set: CC-PVTZ
  Basis Set:
  Basis Set: CC-PVTZ
  Basis Set:
  @DF-RHF Final Energy:  -231.06861509465810
    Total Energy =                       -231.0686150946581563
  Basis Set: CC-PVTZ
  Basis Set:
  Basis Set: CC-PVTZ
  Basis Set:
  @DF-RHF Final Energy:  -231.06861762379290
    Total Energy =                       -231.0686176237929317
  Basis Set: CC-PVTZ
  Basis Set:
  Charge       = 0
  Multiplicity = 1
  Basis Set: CC-PVTZ
  Basis Set:

    Orbital Energies (a.u.)
    -----------------------

    Doubly Occupied:

       1A    -20.551762     2A    -11.321572     3A    -11.237398
       4A    -11.234623     5A    -11.223909     6A     -1.406629
       7A     -1.087667     8A     -0.975262     9A     -0.851240
      10A     -0.789171    11A     -0.677057    12A     -0.652873
      13A     -0.605142    14A     -0.600054    15A     -0.583693
      16A     -0.530621    17A     -0.507136    18A     -0.494695
      19A     -0.486648    20A     -0.411968

  @DF-RHF Final Energy:  -231.06861775165211

   => Energetics <=

    Nuclear Repulsion Energy =            172.2811324460477351
    One-Electron Energy =                -654.2412607891053540
    Two-Electron Energy =                 250.8915105914055346
    DFT Exchange-Correlation Energy =       0.0000000000000000
    Empirical Dispersion Energy =           0.0000000000000000
    PCM Polarization Energy =               0.0000000000000000
    EFP Energy =                            0.0000000000000000
    Total Energy =                       -231.0686177516520559
    Molecular point group: c1
  Basis Set: CC-PVTZ
  Basis Set:

  -Total Gradient:
     Atom            X                  Y                   Z
    ------   -----------------  -----------------  -----------------
       1        0.000002005433     0.000011222666     0.000000734940
       2       -0.000009572152    -0.000051263135     0.000023971831
       3       -0.000797581827     0.000953427335    -0.001558917997
       4        0.000015081440     0.000034687669    -0.000017856158
       5        0.000430731549     0.000933587761     0.001636177197
       6        0.000589409071    -0.000925973048     0.001012977894
       7       -0.000003050622    -0.000001462211     0.000000969979
       8        0.000004464823    -0.000007423600     0.000002652787
       9       -0.000232546419    -0.000945679658    -0.001100693125
      10        0.000001874047    -0.000004757062    -0.000001761521
      11        0.000004387725     0.000006771459     0.000001649785
      12        0.000000014579     0.000003599534    -0.000005094880
      13       -0.000005217647    -0.000006737710     0.000005189268

  **** Optimization is complete! (in 9 steps) ****
    Final optimized geometry and variables:
    Molecular point group: c1

    Geometry (in Angstrom), charge = 0, multiplicity = 1:

    H           -0.012861158433    -0.304025342337    -1.574906969052
    C            0.554060287580     0.396560154033    -0.950185433691
    C            0.536873407032     0.119713575211     0.528760913775
    O            1.129296577306     1.299039953632    -1.453525890388
    C           -0.867284987925    -0.176863479866     1.076336263388
    H            0.988907749267     0.963573430296     1.031814418516
    H            1.181431473936    -0.739562077040     0.703618458440
    C           -1.336810832190    -1.610492288087     0.839010081456
    H           -1.581125512897     0.511525589860     0.633336689830
    H           -0.868521409027     0.024280676282     2.140652609942
    H           -1.367846227309    -1.858483716621    -0.215928113422
    H           -2.333142896543    -1.759699053624     1.237480398007
    H           -0.675367485629    -2.319760183181     1.324571949691

  Mulliken Charges: (a.u.)
   Center  Symbol    Alpha    Beta     Spin     Total
       1     H     0.46412  0.46412  0.00000  0.07176
       2     C     2.90410  2.90410  0.00000  0.19180
       3     C     3.08557  3.08557  0.00000 -0.17114
       4     O     4.16517  4.16517  0.00000 -0.33034
       5     C     3.10088  3.10088  0.00000 -0.20176
       6     H     0.43664  0.43664  0.00000  0.12671
       7     H     0.45156  0.45156  0.00000  0.09688
       8     C     3.14786  3.14786  0.00000 -0.29573
       9     H     0.44836  0.44836  0.00000  0.10328
      10     H     0.44300  0.44300  0.00000  0.11401
      11     H     0.45477  0.45477  0.00000  0.09045
      12     H     0.44477  0.44477  0.00000  0.11045
      13     H     0.45318  0.45318  0.00000  0.09363

   Total alpha = 20.00000, Total beta = 20.00000, Total charge =  0.00000
