  ==> Input File <==

--------------------------------------------------------------------------
set {
	reference rhf
	basis cc-pvtz
}

set_num_threads( 4 )
memory 2 gb

molecule MOL {
0 1

O	 -2.440701	 -0.934798	 -0.415053
C	 -1.922978	 0.063265	 -0.045005
C	 -2.632749	 1.372204	 0.158357
O	 -0.637375	 0.157174	 0.243149
H	 -2.187724	 2.129143	 -0.474664
H	 -3.677681	 1.257276	 -0.079438
H	 -2.516788	 1.693160	 1.185542
C	 0.162530	 -1.009518	 0.097799
C	 1.587210	 -0.664190	 0.477086
H	 0.096803	 -1.356267	 -0.924704
H	 -0.233803	 -1.785900	 0.736810
C	 2.256770	 0.342732	 -0.454344
H	 2.154716	 -1.590834	 0.479041
H	 1.598751	 -0.289614	 1.496104
C	 3.646861	 -0.100490	 -0.897982
H	 1.628914	 0.491279	 -1.328890
H	 2.324266	 1.303274	 0.043298
H	 4.097008	 0.629402	 -1.560562
H	 3.608009	 -1.047248	 -1.426690
H	 4.307603	 -0.225499	 -0.046625

	symmetry c1
}
set optking {
	frozen_dihedral = ("
		16 12 9 8
	")
}

ee = optimize('scf')
oeprop('DIPOLE', 'QUADRUPOLE', 'MULLIKEN_CHARGES')
f=open( 'psi4out.xyz', 'w' )
f.write( "20  " )
f.write( str(ee) + "\n" )
f.write( MOL.save_string_xyz() )
f.close()
--------------------------------------------------------------------------

    Molecular point group: c1
  Charge       = 0
  Multiplicity = 1
  Basis Set: CC-PVTZ
  Basis Set:
  @DF-RHF Final Energy:  -384.08266852767167
    Total Energy =                       -384.0826685276713306
    Molecular point group: c1
  Basis Set: CC-PVTZ
  Basis Set:
  Basis Set: CC-PVTZ
  Basis Set:
  @DF-RHF Final Energy:  -384.08294691904428
    Total Energy =                       -384.0829469190440477
  Basis Set: CC-PVTZ
  Basis Set:
  Basis Set: CC-PVTZ
  Basis Set:
  @DF-RHF Final Energy:  -384.08286329662008
    Total Energy =                       -384.0828632966200757
  Basis Set: CC-PVTZ
  Basis Set:
  Basis Set: CC-PVTZ
  Basis Set:
  @DF-RHF Final Energy:  -384.08302241606168
    Total Energy =                       -384.0830224160621356
  Basis Set: CC-PVTZ
  Basis Set:
  Basis Set: CC-PVTZ
  Basis Set:
  @DF-RHF Final Energy:  -384.08302280577021
    Total Energy =                       -384.0830228057701561
  Basis Set: CC-PVTZ
  Basis Set:
  Charge       = 0
  Multiplicity = 1
  Basis Set: CC-PVTZ
  Basis Set:

    Orbital Energies (a.u.)
    -----------------------

    Doubly Occupied:

       1A    -20.594076     2A    -20.532544     3A    -11.366468
       4A    -11.280314     5A    -11.231470     6A    -11.223339
       7A    -11.219410     8A    -11.212362     9A     -1.470817
      10A     -1.364967    11A     -1.085502    12A     -1.028760
      13A     -0.982460    14A     -0.881569    15A     -0.814133
      16A     -0.774571    17A     -0.692081    18A     -0.689891
      19A     -0.669570    20A     -0.628708    21A     -0.601247
      22A     -0.591971    23A     -0.573331    24A     -0.557351
      25A     -0.546106    26A     -0.531042    27A     -0.511696
      28A     -0.486298    29A     -0.476173    30A     -0.469015
      31A     -0.451816    32A     -0.441632

  @DF-RHF Final Energy:  -384.08302570652091

   => Energetics <=

    Nuclear Repulsion Energy =            385.7516411639090279
    One-Electron Energy =               -1287.7079566218737909
    Two-Electron Energy =                 517.8732897514439628
    DFT Exchange-Correlation Energy =       0.0000000000000000
    Empirical Dispersion Energy =           0.0000000000000000
    PCM Polarization Energy =               0.0000000000000000
    EFP Energy =                            0.0000000000000000
    Total Energy =                       -384.0830257065208571
    Molecular point group: c1
  Basis Set: CC-PVTZ
  Basis Set:

  -Total Gradient:
     Atom            X                  Y                   Z
    ------   -----------------  -----------------  -----------------
       1       -0.000006398176     0.000004991817    -0.000002201987
       2       -0.000004978187    -0.000021004485    -0.000001428158
       3        0.000008083126    -0.000000943192     0.000004337983
       4        0.000029105302     0.000007760354     0.000004986923
       5       -0.000000409939    -0.000000478073    -0.000001722456
       6        0.000001651393    -0.000002434513    -0.000000600637
       7        0.000000923080     0.000000870142    -0.000000893987
       8        0.000667246210    -0.001562999189    -0.001222227534
       9       -0.001267475621     0.002700066848     0.002019924669
      10        0.000007845168     0.000012389674     0.000012218647
      11       -0.000009916554    -0.000015261372     0.000006058687
      12        0.001901561288    -0.003240826251    -0.002159921681
      13       -0.000009155808     0.000001445443    -0.000003665107
      14       -0.000009939155     0.000005504910    -0.000001946977
      15        0.000006290866     0.000009061981    -0.000005102050
      16       -0.001305862251     0.002087142798     0.001347178687
      17        0.000019054685    -0.000000671685     0.000001477529
      18        0.000002021635     0.000005620099    -0.000002944495
      19       -0.000014450714     0.000009012704     0.000007017716
      20       -0.000015196347     0.000000751989    -0.000000545772

  **** Optimization is complete! (in 6 steps) ****
    Final optimized geometry and variables:
    Molecular point group: c1

    Geometry (in Angstrom), charge = 0, multiplicity = 1:

    O           -2.437298852257    -0.831972630745    -0.302242561052
    C           -1.911069263288     0.163466485902     0.062895568502
    C           -2.606627114163     1.482441980500     0.247267758919
    O           -0.626679551414     0.244520433421     0.360010086315
    H           -2.146199546509     2.227649575978    -0.388558460008
    H           -3.650733232054     1.378077325649     0.001054053823
    H           -2.495810429458     1.811393495680     1.272432758686
    C            0.160592520471    -0.933147705413     0.231677318579
    C            1.590305609564    -0.590532066677     0.589490135073
    H            0.086111966963    -1.297305888174    -0.783947348947
    H           -0.237825396112    -1.693851734962     0.888314607218
    C            2.251324726834     0.431348421901    -0.354101356588
    H            2.144200203125    -1.524392873568     0.563890341753
    H            1.626885508578    -0.241753307730     1.615081145736
    C            3.652027321659     0.026739716376    -0.799681736955
    H            1.618190184509     0.592900143755    -1.220064357841
    H            2.301266029405     1.394813916609     0.140609405298
    H            4.094185579014     0.782982681335    -1.437911938473
    H            3.632678815579    -0.905852592019    -1.353848159735
    H            4.308202290949    -0.111101175363     0.053471243845

  Mulliken Charges: (a.u.)
   Center  Symbol    Alpha    Beta     Spin     Total
       1     O     4.19744  4.19744  0.00000 -0.39487
       2     C     2.80918  2.80918  0.00000  0.38163
       3     C     3.13809  3.13809  0.00000 -0.27618
       4     O     4.15412  4.15412  0.00000 -0.30824
       5     H     0.44599  0.44599  0.00000  0.10802
       6     H     0.43807  0.43807  0.00000  0.12385
       7     H     0.44573  0.44573  0.00000  0.10853
       8     C     2.99271  2.99271  0.00000  0.01457
       9     C     3.08849  3.08849  0.00000 -0.17698
      10     H     0.45138  0.45138  0.00000  0.09724
      11     H     0.44471  0.44471  0.00000  0.11057
      12     C     3.08480  3.08480  0.00000 -0.16960
      13     H     0.45251  0.45251  0.00000  0.09499
      14     H     0.44872  0.44872  0.00000  0.10256
      15     C     3.14812  3.14812  0.00000 -0.29624
      16     H     0.45251  0.45251  0.00000  0.09498
      17     H     0.44934  0.44934  0.00000  0.10131
      18     H     0.44839  0.44839  0.00000  0.10322
      19     H     0.45559  0.45559  0.00000  0.08882
      20     H     0.45411  0.45411  0.00000  0.09179

   Total alpha = 32.00000, Total beta = 32.00000, Total charge =  0.00000
