  ==> Input File <==

--------------------------------------------------------------------------
set {
	reference rhf
	basis cc-pvtz
}

set_num_threads( 4 )
memory 2 gb

molecule MOL {
0 1

H	 3.721907	 -0.933076	 -0.066039
O	 2.824271	 -1.154299	 0.131461
C	 2.076458	 -0.067370	 -0.038225
C	 0.626018	 -0.337582	 0.258241
O	 2.538288	 0.965419	 -0.381593
C	 -0.267326	 0.883135	 0.076490
H	 0.325620	 -1.161483	 -0.378003
H	 0.574537	 -0.713685	 1.275261
C	 -1.726822	 0.642622	 0.463839
H	 -0.210803	 1.217591	 -0.953497
H	 0.129920	 1.693110	 0.675679
C	 -2.480891	 -0.340606	 -0.429852
H	 -2.243098	 1.597649	 0.438609
H	 -1.776542	 0.301208	 1.495542
C	 -1.718147	 -0.680445	 -1.706256
H	 -2.673993	 -1.253127	 0.127868
H	 -3.451208	 0.064979	 -0.698070
H	 -2.272868	 -1.380192	 -2.320521
H	 -0.756617	 -1.128562	 -1.479652
H	 -1.535216	 0.208474	 -2.300826

	symmetry c1
}
set optking {
	frozen_dihedral = ("
		16 12 9 6
	")
}

ee = optimize('scf')
oeprop('DIPOLE', 'QUADRUPOLE', 'MULLIKEN_CHARGES')
f=open( 'psi4out.xyz', 'w' )
f.write( "20  " )
f.write( str(ee) + "\n" )
f.write( MOL.save_string_xyz() )
f.close()
--------------------------------------------------------------------------

    Molecular point group: c1
  Charge       = 0
  Multiplicity = 1
  Basis Set: CC-PVTZ
  Basis Set:
  @DF-RHF Final Energy:  -384.07323813645814
    Total Energy =                       -384.0732381364582579
    Molecular point group: c1
  Basis Set: CC-PVTZ
  Basis Set:
  Basis Set: CC-PVTZ
  Basis Set:
  @DF-RHF Final Energy:  -384.08298078072380
    Total Energy =                       -384.0829807807234602
  Basis Set: CC-PVTZ
  Basis Set:
  Basis Set: CC-PVTZ
  Basis Set:
  @DF-RHF Final Energy:  -384.08492695955528
    Total Energy =                       -384.0849269595552187
  Basis Set: CC-PVTZ
  Basis Set:
  Basis Set: CC-PVTZ
  Basis Set:
  @DF-RHF Final Energy:  -384.08520607185386
    Total Energy =                       -384.0852060718545999
  Basis Set: CC-PVTZ
  Basis Set:
  @DF-RHF Final Energy:  -384.08449755858538
    Total Energy =                       -384.0844975585856673
  Basis Set: CC-PVTZ
  Basis Set:
  @DF-RHF Final Energy:  -384.08544209262340
    Total Energy =                       -384.0854420926240209
  Basis Set: CC-PVTZ
  Basis Set:
  Basis Set: CC-PVTZ
  Basis Set:
  @DF-RHF Final Energy:  -384.08546949413005
    Total Energy =                       -384.0854694941294838
  Basis Set: CC-PVTZ
  Basis Set:
  Basis Set: CC-PVTZ
  Basis Set:
  @DF-RHF Final Energy:  -384.08547625052336
    Total Energy =                       -384.0854762505229019
  Basis Set: CC-PVTZ
  Basis Set:
  Charge       = 0
  Multiplicity = 1
  Basis Set: CC-PVTZ
  Basis Set:

    Orbital Energies (a.u.)
    -----------------------

    Doubly Occupied:

       1A    -20.603662     2A    -20.540280     3A    -11.373035
       4A    -11.237950     5A    -11.220216     6A    -11.219053
       7A    -11.218512     8A    -11.211721     9A     -1.477182
      10A     -1.368679    11A     -1.094571    12A     -1.037644
      13A     -0.962452    14A     -0.883129    15A     -0.813951
      16A     -0.767410    17A     -0.703126    18A     -0.691611
      19A     -0.669576    20A     -0.630409    21A     -0.622930
      22A     -0.587382    23A     -0.569261    24A     -0.562887
      25A     -0.537189    26A     -0.511066    27A     -0.509424
      28A     -0.484013    29A     -0.469301    30A     -0.460312
      31A     -0.455307    32A     -0.443025

  @DF-RHF Final Energy:  -384.08547714791541

   => Energetics <=

    Nuclear Repulsion Energy =            383.9602949697847407
    One-Electron Energy =               -1284.2190091923544060
    Two-Electron Energy =                 516.1732370746541392
    DFT Exchange-Correlation Energy =       0.0000000000000000
    Empirical Dispersion Energy =           0.0000000000000000
    PCM Polarization Energy =               0.0000000000000000
    EFP Energy =                            0.0000000000000000
    Total Energy =                       -384.0854771479155261
    Molecular point group: c1
  Basis Set: CC-PVTZ
  Basis Set:

  -Total Gradient:
     Atom            X                  Y                   Z
    ------   -----------------  -----------------  -----------------
       1       -0.000010135006     0.000011353860     0.000002690738
       2       -0.000035149714     0.000005120586     0.000024700404
       3       -0.000003529235    -0.000069024975    -0.000079865740
       4        0.000033670933     0.000009494929    -0.000001106578
       5       -0.000003397035     0.000050525359     0.000025164327
       6       -0.001438959481     0.003980800584    -0.002686246137
       7       -0.000001530229    -0.000036008618    -0.000014339500
       8       -0.000006642470     0.000010110316     0.000037289056
       9        0.000768584841    -0.005172871231     0.004599390192
      10       -0.000017016254    -0.000013912830    -0.000003842223
      11        0.000013712461     0.000017727000    -0.000006796740
      12        0.006296932967    -0.001295133251    -0.004308150046
      13        0.000032189649     0.000001579524     0.000010266536
      14        0.000036362150     0.000015783220    -0.000001384255
      15       -0.000041067104     0.000002832213     0.000013496670
      16       -0.005647849960     0.002533929339     0.002400360295
      17       -0.000001609327    -0.000025279600    -0.000002111338
      18       -0.000024591139     0.000000615108    -0.000024342520
      19        0.000062662084    -0.000039157202     0.000006998564
      20       -0.000012638133     0.000011515669     0.000007828295

  **** Optimization is complete! (in 9 steps) ****
    Final optimized geometry and variables:
    Molecular point group: c1

    Geometry (in Angstrom), charge = 0, multiplicity = 1:

    H            3.516370783010    -0.836229870010     0.289546479921
    O            2.630986578135    -1.048985248406     0.543638052484
    C            1.845764835195    -0.021564809398     0.231767186613
    C            0.412015720014    -0.280347328350     0.607949064061
    O            2.266463087975     0.958998826347    -0.277903429423
    C           -0.525370249800     0.875620248679     0.277106753762
    H            0.116799944742    -1.201195567270     0.118807255268
    H            0.397498728947    -0.497281696852     1.671346866322
    C           -1.986310243544     0.597469641989     0.643305927727
    H           -0.433787598648     1.132041839101    -0.769105785254
    H           -0.192816991425     1.748511487097     0.825722228445
    C           -2.802595004571    -0.346906690085    -0.277591744828
    H           -2.487123725616     1.559395560034     0.655159734589
    H           -2.036637492879     0.231084912307     1.663545890300
    C           -2.267525388538    -0.611975163991    -1.681773148728
    H           -2.999890131443    -1.281692687823     0.237156887590
    H           -3.788336983990     0.094404583895    -0.388244131212
    H           -2.962659847212    -1.240304466660    -2.226491486217
    H           -1.309648619580    -1.116640229877    -1.679389633729
    H           -2.153650266099     0.308285057881    -2.243187152927

  Mulliken Charges: (a.u.)
   Center  Symbol    Alpha    Beta     Spin     Total
       1     H     0.38245  0.38245  0.00000  0.23509
       2     O     4.16059  4.16059  0.00000 -0.32118
       3     C     2.80304  2.80304  0.00000  0.39391
       4     C     3.11394  3.11394  0.00000 -0.22787
       5     O     4.19122  4.19122  0.00000 -0.38244
       6     C     3.09926  3.09926  0.00000 -0.19851
       7     H     0.43713  0.43713  0.00000  0.12574
       8     H     0.43486  0.43486  0.00000  0.13028
       9     C     3.10736  3.10736  0.00000 -0.21472
      10     H     0.44226  0.44226  0.00000  0.11549
      11     H     0.43652  0.43652  0.00000  0.12696
      12     C     3.09514  3.09514  0.00000 -0.19027
      13     H     0.44375  0.44375  0.00000  0.11249
      14     H     0.45021  0.45021  0.00000  0.09959
      15     C     3.15725  3.15725  0.00000 -0.31451
      16     H     0.44892  0.44892  0.00000  0.10216
      17     H     0.44878  0.44878  0.00000  0.10243
      18     H     0.44263  0.44263  0.00000  0.11474
      19     H     0.45413  0.45413  0.00000  0.09174
      20     H     0.45056  0.45056  0.00000  0.09887

   Total alpha = 32.00000, Total beta = 32.00000, Total charge = -0.00000
