                              Psi4 1.0.54 Driver

  ==> Input File <==

--------------------------------------------------------------------------
set {
	reference rhf
	basis cc-pvtz
}

set_num_threads( 4 )
memory 2 gb

molecule MOL {
0 1

O	 -0.562652	 0.026244	 0.531820
C	 0.485107	 0.171416	 -0.000134
C	 1.606966	 -0.836201	 0.000174
O	 0.813719	 1.257779	 -0.677198
C	 2.988788	 -0.202529	 -0.000115
H	 1.465110	 -1.474645	 -0.864821
H	 1.465209	 -1.474077	 0.865596
H	 3.131767	 0.419673	 -0.873407
H	 3.750876	 -0.972315	 0.000098
H	 3.131883	 0.420264	 0.872742
C	 -0.147638	 2.300032	 -0.765454
C	 0.458674	 3.419752	 -1.578535
H	 -0.405152	 2.628103	 0.231744
H	 -1.045067	 1.914362	 -1.228275
H	 1.356844	 3.797115	 -1.106031
H	 -0.250949	 4.234060	 -1.665540
H	 0.713229	 3.079353	 -2.574377

	symmetry c1
}
set optking {
	frozen_dihedral = ("
		4 2 3 6
	")
}

ee,wfn = optimize('scf', return_wfn=True)
oeprop( wfn, 'DIPOLE', 'QUADRUPOLE', 'MULLIKEN_CHARGES')
f=open( 'psi4out.xyz', 'w' )
f.write( "17  " )
f.write( str(ee) + "\n" )
f.write( MOL.save_string_xyz() )
f.close()
--------------------------------------------------------------------------

    Molecular point group: c1
  Charge       = 0
  Multiplicity = 1
  Basis Set: CC-PVTZ
  Basis Set:
  @DF-RHF Final Energy:  -345.03780930264594
    Total Energy =                       -345.0378093026457691
    Molecular point group: c1
  Basis Set: CC-PVTZ
  Basis Set:
  Basis Set: CC-PVTZ
  Basis Set:
  @DF-RHF Final Energy:  -345.03804151984900
    Total Energy =                       -345.0380415198492301
  Basis Set: CC-PVTZ
  Basis Set:
  Basis Set: CC-PVTZ
  Basis Set:
  @DF-RHF Final Energy:  -345.03845074783084
    Total Energy =                       -345.0384507478304954
  Basis Set: CC-PVTZ
  Basis Set:
  Basis Set: CC-PVTZ
  Basis Set:
  @DF-RHF Final Energy:  -345.03848863201938
    Total Energy =                       -345.0384886320190390
  Basis Set: CC-PVTZ
  Basis Set:
  Basis Set: CC-PVTZ
  Basis Set:
  @DF-RHF Final Energy:  -345.03851155102058
    Total Energy =                       -345.0385115510206333
  Basis Set: CC-PVTZ
  Basis Set:
  Basis Set: CC-PVTZ
  Basis Set:
  @DF-RHF Final Energy:  -345.03851430904541
    Total Energy =                       -345.0385143090453539
  Basis Set: CC-PVTZ
  Basis Set:
  Charge       = 0
  Multiplicity = 1
  Basis Set: CC-PVTZ
  Basis Set:

    Orbital Energies (a.u.)
    -----------------------

    Doubly Occupied:

       1A    -20.595407     2A    -20.529761     3A    -11.363389
       4A    -11.283234     5A    -11.235846     6A    -11.221075
       7A    -11.220158     8A     -1.471100     9A     -1.363376
      10A     -1.073302    11A     -1.031131    12A     -0.906987
      13A     -0.860724    14A     -0.780123    15A     -0.693687
      16A     -0.679873    17A     -0.675816    18A     -0.627881
      19A     -0.582649    20A     -0.574160    21A     -0.553645
      22A     -0.548869    23A     -0.524402    24A     -0.513626
      25A     -0.506798    26A     -0.492416    27A     -0.455368
      28A     -0.434105

  @DF-RHF Final Energy:  -345.03851435458887

   => Energetics <=

    Nuclear Repulsion Energy =            317.9397343286186697
    One-Electron Energy =               -1100.3586789358328133
    Two-Electron Energy =                 437.3804302526253878
    DFT Exchange-Correlation Energy =       0.0000000000000000
    Empirical Dispersion Energy =           0.0000000000000000
    PCM Polarization Energy =               0.0000000000000000
    EFP Energy =                            0.0000000000000000
    Total Energy =                       -345.0385143545887559
    Molecular point group: c1
  Basis Set: CC-PVTZ
  Basis Set:

  -Total Gradient:
     Atom            X                  Y                   Z
    ------   -----------------  -----------------  -----------------
       1        0.000002482664     0.000009288378    -0.000004244634
       2       -0.000382150243    -0.000432245018    -0.000587817664
       3        0.000528921356     0.000589987685    -0.000280815862
       4        0.000204428294     0.000256788321     0.000464035045
       5        0.000010724695    -0.000008546316    -0.000005803143
       6       -0.000375691786    -0.000411056800     0.000385963186
       7        0.000005711898    -0.000003426470     0.000002337457
       8       -0.000000218869    -0.000001181563     0.000000797828
       9        0.000000516496    -0.000001540589     0.000000269253
      10       -0.000005646472    -0.000002156169     0.000001777343
      11        0.000032389257     0.000019639767     0.000055480237
      12       -0.000009171787    -0.000005425123    -0.000012900482
      13       -0.000007810403     0.000003884771    -0.000008095313
      14       -0.000003286455    -0.000012876660    -0.000009066295
      15       -0.000002064230    -0.000005045990     0.000004670001
      16       -0.000001843801     0.000001616573    -0.000002015874
      17        0.000002709382     0.000002295200    -0.000004571083

  **** Optimization is complete! (in 7 steps) ****
    Final optimized geometry and variables:
    Molecular point group: c1

    Geometry (in Angstrom), charge = 0, multiplicity = 1:

    O           -1.333041065809    -0.867781221552     0.913843807546
    C           -0.291383376849    -0.699510479836     0.375052803595
    C            0.823608083225    -1.718085189767     0.376067953606
    O            0.000935640618     0.388606873181    -0.312469668783
    C            2.239399092638    -1.154509120237     0.334229080598
    H            0.647752115598    -2.357684423048    -0.483975320875
    H            0.670762088190    -2.333125989521     1.251462400835
    H            2.415158631875    -0.590041331791    -0.570367355215
    H            2.957231053752    -1.964419099170     0.375369722194
    H            2.426439619054    -0.501042188152     1.178044770668
    C           -0.995375074321     1.397384175220    -0.409914752442
    C           -0.429060990788     2.527913940683    -1.236671209112
    H           -1.261397760228     1.726466606964     0.584454391384
    H           -1.879895603735     0.975743143800    -0.865899586320
    H            0.456467564260     2.941345737231    -0.770491477786
    H           -1.166464946599     3.316315944530    -1.330705877033
    H           -0.165306531677     2.185873810421    -2.229593279820

  Mulliken Charges: (a.u.)
   Center  Symbol    Alpha    Beta     Spin     Total
       1     O     4.20147  4.20147  0.00000 -0.40295
       2     C     2.81137  2.81137  0.00000  0.37726
       3     C     3.08712  3.08712  0.00000 -0.17424
       4     O     4.15026  4.15026  0.00000 -0.30052
       5     C     3.14415  3.14415  0.00000 -0.28830
       6     H     0.44634  0.44634  0.00000  0.10733
       7     H     0.43557  0.43557  0.00000  0.12885
       8     H     0.44697  0.44697  0.00000  0.10606
       9     H     0.44888  0.44888  0.00000  0.10225
      10     H     0.45175  0.45175  0.00000  0.09650
      11     C     2.97819  2.97819  0.00000  0.04361
      12     C     3.13404  3.13404  0.00000 -0.26808
      13     H     0.45384  0.45384  0.00000  0.09231
      14     H     0.45357  0.45357  0.00000  0.09286
      15     H     0.45124  0.45124  0.00000  0.09753
      16     H     0.45366  0.45366  0.00000  0.09269
      17     H     0.45158  0.45158  0.00000  0.09683

   Total alpha = 28.00000, Total beta = 28.00000, Total charge = -0.00000

*** Psi4 exiting successfully. Buy a developer a beer!
