  ==> Input File <==

--------------------------------------------------------------------------
set {
	reference rhf
	basis 6-31G*
}

set_num_threads( 4 )
memory 2 gb

molecule MOL {
0 1

H	 2.315787	 -1.229153	 -0.087761
O	 1.643695	 -0.649899	 -0.417073
C	 1.121703	 0.117298	 0.638436
C	 0.031547	 1.023609	 0.088541
H	 1.902745	 0.728068	 1.087684
H	 0.726277	 -0.527806	 1.419832
C	 -1.134819	 0.293262	 -0.585751
H	 0.488186	 1.698739	 -0.629769
H	 -0.341252	 1.637976	 0.906338
C	 -1.917817	 -0.639439	 0.339494
H	 -0.758119	 -0.268455	 -1.433105
H	 -1.813832	 1.041889	 -0.986690
H	 -2.777680	 -1.057197	 -0.174994
H	 -1.310268	 -1.471279	 0.680599
H	 -2.283753	 -0.111424	 1.216626

	symmetry c1
}
set optking {
	frozen_dihedral = ("
		8 4 7 11
	")
}

ee = optimize('scf')
oeprop('DIPOLE', 'QUADRUPOLE', 'MULLIKEN_CHARGES')
f=open( 'psi4out.xyz', 'w' )
f.write( "15  " )
f.write( str(ee) + "\n" )
f.write( MOL.save_string_xyz() )
f.close()
--------------------------------------------------------------------------

    Molecular point group: c1
  Charge       = 0
  Multiplicity = 1
  Basis Set: 6-31G*
  Basis Set:
  @DF-RHF Final Energy:  -232.14389490496035
    Total Energy =                       -232.1438949049602911
    Molecular point group: c1
  Basis Set: 6-31G*
  Basis Set:
  Basis Set: 6-31G*
  Basis Set:
  @DF-RHF Final Energy:  -232.14389187319262
    Total Energy =                       -232.1438918731927288
  Basis Set: 6-31G*
  Basis Set:
  Basis Set: 6-31G*
  Basis Set:
  @DF-RHF Final Energy:  -232.14389720393484
    Total Energy =                       -232.1438972039348414
  Basis Set: 6-31G*
  Basis Set:
  Charge       = 0
  Multiplicity = 1
  Basis Set: 6-31G*
  Basis Set:

    Orbital Energies (a.u.)
    -----------------------

    Doubly Occupied:

       1A    -20.553445     2A    -11.267427     3A    -11.212408
       4A    -11.208450     5A    -11.204462     6A     -1.360008
       7A     -1.063553     8A     -0.969838     9A     -0.868464
      10A     -0.773705    11A     -0.704089    12A     -0.648597
      13A     -0.607369    14A     -0.572150    15A     -0.563677
      16A     -0.531732    17A     -0.509539    18A     -0.473435
      19A     -0.466105    20A     -0.451990    21A     -0.430788

  @DF-RHF Final Energy:  -232.14389724877870

   => Energetics <=

    Nuclear Repulsion Energy =            192.0032276913716203
    One-Electron Energy =                -695.4117854974815600
    Two-Electron Energy =                 271.2646605573315242
    DFT Exchange-Correlation Energy =       0.0000000000000000
    Empirical Dispersion Energy =           0.0000000000000000
    PCM Polarization Energy =               0.0000000000000000
    EFP Energy =                            0.0000000000000000
    Total Energy =                       -232.1438972487783872
    Molecular point group: c1
  Basis Set: 6-31G*
  Basis Set:

  -Total Gradient:
     Atom            X                  Y                   Z
    ------   -----------------  -----------------  -----------------
       1        0.000005616589    -0.000003535812    -0.000000077752
       2        0.000013063599     0.000006067790     0.000001929159
       3       -0.000016148181    -0.000018977671     0.000013602799
       4       -0.000192946910     0.000274886773     0.000040025587
       5        0.000002745704    -0.000003084269    -0.000003322751
       6        0.000009711500    -0.000000120172     0.000004145492
       7        0.000074785908    -0.000283086644     0.000170790136
       8        0.000135521472    -0.000164601183    -0.000077622999
       9        0.000003006827    -0.000006426556     0.000001932478
      10       -0.000000380714     0.000005731483     0.000000231668
      11       -0.000033197473     0.000184818482    -0.000129808668
      12       -0.000004275520     0.000000520865    -0.000006139202
      13       -0.000003724697     0.000006974283    -0.000003242114
      14       -0.000003073446    -0.000002011386    -0.000012126983
      15        0.000009295340     0.000002844018    -0.000000316849

  **** Optimization is complete! (in 4 steps) ****
    Final optimized geometry and variables:
    Molecular point group: c1

    Geometry (in Angstrom), charge = 0, multiplicity = 1:

    H            2.319624682981    -1.224360956406    -0.102669885881
    O            1.645773667623    -0.646602944744    -0.431197413718
    C            1.128730419059     0.125174590213     0.623410220075
    C            0.036896129888     1.030110664334     0.074428723021
    H            1.912033396144     0.737149063417     1.067145211624
    H            0.735969197373    -0.516481236750     1.408955215281
    C           -1.128166987127     0.298388427328    -0.600768022881
    H            0.492633688548     1.705584664597    -0.644107036268
    H           -0.336585695117     1.642973290490     0.893010836095
    C           -1.912798690273    -0.634212748281     0.322987259789
    H           -0.750123708455    -0.262850629622    -1.447992070141
    H           -1.806309875288     1.047020894213    -1.003311439416
    H           -2.774920484279    -1.047295083158    -0.191518913788
    H           -1.307156003716    -1.469068712748     0.659910180553
    H           -2.275445885554    -0.107794282035     1.202432983424

  Mulliken Charges: (a.u.)
   Center  Symbol    Alpha    Beta     Spin     Total
       1     H     0.28059  0.28059  0.00000  0.43883
       2     O     4.36977  4.36977  0.00000 -0.73954
       3     C     2.99917  2.99917  0.00000  0.00165
       4     C     3.16110  3.16110  0.00000 -0.32220
       5     H     0.42924  0.42924  0.00000  0.14153
       6     H     0.43059  0.43059  0.00000  0.13881
       7     C     3.15307  3.15307  0.00000 -0.30615
       8     H     0.41450  0.41450  0.00000  0.17100
       9     H     0.42463  0.42463  0.00000  0.15074
      10     C     3.24337  3.24337  0.00000 -0.48675
      11     H     0.40755  0.40755  0.00000  0.18490
      12     H     0.42306  0.42306  0.00000  0.15388
      13     H     0.41907  0.41907  0.00000  0.16186
      14     H     0.41925  0.41925  0.00000  0.16149
      15     H     0.42503  0.42503  0.00000  0.14993

   Total alpha = 21.00000, Total beta = 21.00000, Total charge = -0.00000
