  ==> Input File <==

--------------------------------------------------------------------------
set {
	reference rhf
	basis 6-31G*
}

set_num_threads( 4 )
memory 2 gb

molecule MOL {
0 1

O	 1.837375	 1.284556	 0.174971
C	 1.705091	 0.115954	 0.001797
C	 0.395684	 -0.592691	 -0.245473
O	 2.721346	 -0.737485	 -0.000216
C	 -0.808301	 0.344306	 -0.255494
H	 0.487822	 -1.125515	 -1.187982
H	 0.291978	 -1.358909	 0.517989
C	 -2.120464	 -0.399412	 -0.508819
H	 -0.662815	 1.105323	 -1.015675
H	 -0.859582	 0.870854	 0.692360
C	 -3.338691	 0.525564	 -0.523034
H	 -2.061396	 -0.928264	 -1.458989
H	 -2.259429	 -1.162702	 0.255353
C	 -4.649601	 -0.218270	 -0.774979
H	 -3.202585	 1.287124	 -1.287653
H	 -3.399561	 1.053915	 0.425796
H	 -4.632871	 -0.729195	 -1.733567
H	 -5.494003	 0.463946	 -0.778971
H	 -4.831184	 -0.964631	 -0.006680
C	 4.024888	 -0.184556	 -0.001949
H	 4.179030	 0.422472	 -0.882452
H	 4.701782	 -1.024608	 -0.003642
H	 4.181981	 0.421185	 0.878906

	symmetry c1
}
set optking {
	frozen_dihedral = ("
		1 2 4 20
	")
}

ee = optimize('scf')
oeprop('DIPOLE', 'QUADRUPOLE', 'MULLIKEN_CHARGES')
f=open( 'psi4out.xyz', 'w' )
f.write( "23  " )
f.write( str(ee) + "\n" )
f.write( MOL.save_string_xyz() )
f.close()
--------------------------------------------------------------------------

    Molecular point group: c1
  Charge       = 0
  Multiplicity = 1
  Basis Set: 6-31G*
  Basis Set:
  @DF-RHF Final Energy:  -422.97564573324382
    Total Energy =                       -422.9756457332433683
    Molecular point group: c1
  Basis Set: 6-31G*
  Basis Set:
  Basis Set: 6-31G*
  Basis Set:
  @DF-RHF Final Energy:  -422.97392722448149
    Total Energy =                       -422.9739272244817130
  Basis Set: 6-31G*
  Basis Set:
  Basis Set: 6-31G*
  Basis Set:
  @DF-RHF Final Energy:  -422.97573287829238
    Total Energy =                       -422.9757328782923196
  Basis Set: 6-31G*
  Basis Set:
  Basis Set: 6-31G*
  Basis Set:
  @DF-RHF Final Energy:  -422.97574280302450
    Total Energy =                       -422.9757428030245592
  Basis Set: 6-31G*
  Basis Set:
  Basis Set: 6-31G*
  Basis Set:
  @DF-RHF Final Energy:  -422.97574487292906
    Total Energy =                       -422.9757448729289990
  Basis Set: 6-31G*
  Basis Set:
  Charge       = 0
  Multiplicity = 1
  Basis Set: 6-31G*
  Basis Set:

    Orbital Energies (a.u.)
    -----------------------

    Doubly Occupied:

       1A    -20.603129     2A    -20.545698     3A    -11.372337
       4A    -11.281128     5A    -11.235569     6A    -11.219296
       7A    -11.217909     8A    -11.216485     9A    -11.209660
      10A     -1.468967    11A     -1.362871    12A     -1.093214
      13A     -1.043601    14A     -0.986934    15A     -0.932256
      16A     -0.843692    17A     -0.795095    18A     -0.767219
      19A     -0.696772    20A     -0.683605    21A     -0.671499
      22A     -0.651719    23A     -0.609341    24A     -0.599608
      25A     -0.572914    26A     -0.559761    27A     -0.555779
      28A     -0.524570    29A     -0.520356    30A     -0.507747
      31A     -0.484430    32A     -0.469796    33A     -0.466291
      34A     -0.461620    35A     -0.455296    36A     -0.435294

  @DF-RHF Final Energy:  -422.97574517910590

   => Energetics <=

    Nuclear Repulsion Energy =            452.0864145336879005
    One-Electron Energy =               -1471.8814008237231974
    Two-Electron Energy =                 596.8192411109296245
    DFT Exchange-Correlation Energy =       0.0000000000000000
    Empirical Dispersion Energy =           0.0000000000000000
    PCM Polarization Energy =               0.0000000000000000
    EFP Energy =                            0.0000000000000000
    Total Energy =                       -422.9757451791056155
    Molecular point group: c1
  Basis Set: 6-31G*
  Basis Set:

  -Total Gradient:
     Atom            X                  Y                   Z
    ------   -----------------  -----------------  -----------------
       1       -0.000519408380    -0.000395826048     0.003464948671
       2        0.000809944803     0.000540755319    -0.006476554494
       3        0.000017104290     0.000001659896     0.000040375911
       4       -0.000386694638    -0.000074235667     0.005694512701
       5       -0.000001106352    -0.000010110398    -0.000030843309
       6        0.000007615781    -0.000005187560     0.000009692417
       7       -0.000020397402     0.000014799664     0.000024217718
       8       -0.000005319851     0.000005151057    -0.000001317068
       9       -0.000001192493    -0.000003114687     0.000000923265
      10        0.000003352111     0.000000031100     0.000000884288
      11       -0.000002106494    -0.000001854306    -0.000003404041
      12        0.000004478494     0.000007284006    -0.000002806404
      13       -0.000001613663    -0.000004542569    -0.000005748606
      14       -0.000001662294    -0.000000480428     0.000011457947
      15       -0.000000244967    -0.000004481534    -0.000003303478
      16        0.000000801649     0.000005221724    -0.000001231573
      17        0.000001520023     0.000003327776     0.000000254044
      18       -0.000000853645    -0.000000359823     0.000002693399
      19       -0.000001350618    -0.000003495513    -0.000000851098
      20        0.000091353463    -0.000079644397    -0.002797392609
      21       -0.000003029837    -0.000008777147     0.000033136622
      22        0.000006184888    -0.000002326098     0.000017387654
      23        0.000002625125     0.000016205627     0.000022968041

  **** Optimization is complete! (in 6 steps) ****
    Final optimized geometry and variables:
    Molecular point group: c1

    Geometry (in Angstrom), charge = 0, multiplicity = 1:

    O            1.829568091112     1.277301167926     0.345441940873
    C            1.694851996909     0.105335998272     0.200495189633
    C            0.383948477712    -0.605602280919    -0.031254318411
    O            2.705113948284    -0.754392239515     0.255905298604
    C           -0.821823788986     0.329118095191    -0.029838864782
    H            0.467203608014    -1.138196151447    -0.975010520135
    H            0.290004603356    -1.372118461460     0.732909440941
    C           -2.135001535550    -0.416924719361    -0.270760161101
    H           -0.684827549629     1.090772034959    -0.790924615972
    H           -0.865131952692     0.855111435369     0.918844036021
    C           -3.355231184313     0.505482884291    -0.270510862756
    H           -2.084712540101    -0.943796517831    -1.222536338832
    H           -2.264402644915    -1.181987298325     0.493348716601
    C           -4.667224406239    -0.240729893284    -0.509555155465
    H           -3.228892408820     1.268475322257    -1.035343780284
    H           -3.407098714269     1.032236019285     0.679712806754
    H           -4.659764665061    -0.750076845844    -1.469141164062
    H           -5.513075815309     0.439634197682    -0.503306808807
    H           -4.838963285431    -0.988745684445     0.259382408378
    C            4.012009990530    -0.209766507972     0.282067032744
    H            4.178928826522     0.414557888818    -0.584237080580
    H            4.684085847506    -1.053645213809     0.269295211084
    H            4.164132160636     0.376203836816     1.176838259932

  Mulliken Charges: (a.u.)
   Center  Symbol    Alpha    Beta     Spin     Total
       1     O     4.28532  4.28532  0.00000 -0.57065
       2     C     2.60484  2.60484  0.00000  0.79033
       3     C     3.20846  3.20846  0.00000 -0.41691
       4     O     4.30765  4.30765  0.00000 -0.61531
       5     C     3.15246  3.15246  0.00000 -0.30492
       6     H     0.40134  0.40134  0.00000  0.19732
       7     H     0.40002  0.40002  0.00000  0.19996
       8     C     3.15332  3.15332  0.00000 -0.30663
       9     H     0.41148  0.41148  0.00000  0.17704
      10     H     0.41195  0.41195  0.00000  0.17610
      11     C     3.15155  3.15155  0.00000 -0.30310
      12     H     0.42410  0.42410  0.00000  0.15179
      13     H     0.42394  0.42394  0.00000  0.15213
      14     C     3.23958  3.23958  0.00000 -0.47917
      15     H     0.42134  0.42134  0.00000  0.15732
      16     H     0.42130  0.42130  0.00000  0.15739
      17     H     0.42185  0.42185  0.00000  0.15630
      18     H     0.41847  0.41847  0.00000  0.16306
      19     H     0.42179  0.42179  0.00000  0.15642
      20     C     3.09251  3.09251  0.00000 -0.18502
      21     H     0.41077  0.41077  0.00000  0.17847
      22     H     0.40832  0.40832  0.00000  0.18337
      23     H     0.40764  0.40764  0.00000  0.18472

   Total alpha = 36.00000, Total beta = 36.00000, Total charge = -0.00000
