                              Psi4 1.0.54 Driver

  ==> Input File <==

--------------------------------------------------------------------------
set {
	reference rhf
	basis cc-pvtz
}

set_num_threads( 4 )
memory 2 gb

molecule MOL {
0 1

H	 3.083659	 -1.378387	 0.000000
O	 2.179005	 -1.633391	 0.000000
C	 1.366950	 -0.558201	 0.000000
C	 0.204022	 -0.508473	 -0.753529
C	 1.726141	 0.518322	 0.784921
H	 -0.074279	 -1.347985	 -1.364427
C	 -0.595915	 0.615792	 -0.720597
H	 2.623681	 0.482985	 1.368029
C	 0.918673	 1.641098	 0.812058
H	 -1.493318	 0.642937	 -1.307755
C	 -0.243701	 1.696953	 0.061998
C	 1.294330	 2.807442	 1.653427
H	 -0.863742	 2.572552	 0.089631
O	 2.262177	 2.866038	 2.331114
H	 0.594217	 3.647385	 1.609414

	symmetry c1
}
set optking {
	frozen_dihedral = ("
		4 3 2 1
	")
}

ee,wfn = optimize('scf', return_wfn=True)
oeprop( wfn, 'DIPOLE', 'QUADRUPOLE', 'MULLIKEN_CHARGES')
f=open( 'psi4out.xyz', 'w' )
f.write( "15  " )
f.write( str(ee) + "\n" )
f.write( MOL.save_string_xyz() )
f.close()
--------------------------------------------------------------------------

    Molecular point group: c1
  Charge       = 0
  Multiplicity = 1
  Basis Set: CC-PVTZ
  Basis Set:
  @DF-RHF Final Energy:  -418.43647870995363
    Total Energy =                       -418.4364787099542582
    Molecular point group: c1
  Basis Set: CC-PVTZ
  Basis Set:
  Basis Set: CC-PVTZ
  Basis Set:
  @DF-RHF Final Energy:  -418.43802477968160
    Total Energy =                       -418.4380247796816548
  Basis Set: CC-PVTZ
  Basis Set:
  Basis Set: CC-PVTZ
  Basis Set:
  @DF-RHF Final Energy:  -418.43768446703632
    Total Energy =                       -418.4376844670367745
  Basis Set: CC-PVTZ
  Basis Set:
  Basis Set: CC-PVTZ
  Basis Set:
  @DF-RHF Final Energy:  -418.43811491239143
    Total Energy =                       -418.4381149123915975
  Basis Set: CC-PVTZ
  Basis Set:
  Basis Set: CC-PVTZ
  Basis Set:
  @DF-RHF Final Energy:  -418.43816225489689
    Total Energy =                       -418.4381622548971791
  Basis Set: CC-PVTZ
  Basis Set:
  Charge       = 0
  Multiplicity = 1
  Basis Set: CC-PVTZ
  Basis Set:

    Orbital Energies (a.u.)
    -----------------------

    Doubly Occupied:

       1A    -20.589472     2A    -20.556403     3A    -11.329929
       4A    -11.308145     5A    -11.251793     6A    -11.249153
       7A    -11.246710     8A    -11.244190     9A    -11.242429
      10A     -1.419672    11A     -1.412139    12A     -1.174900
      13A     -1.053107    14A     -1.029816    15A     -0.902680
      16A     -0.855326    17A     -0.800237    18A     -0.756251
      19A     -0.703588    20A     -0.674848    21A     -0.664547
      22A     -0.634828    23A     -0.621156    24A     -0.612271
      25A     -0.566404    26A     -0.555418    27A     -0.537394
      28A     -0.517077    29A     -0.492548    30A     -0.428872
      31A     -0.357729    32A     -0.337617

  @DF-RHF Final Energy:  -418.43816483842500

   => Energetics <=

    Nuclear Repulsion Energy =            403.9641764807597610
    One-Electron Energy =               -1370.5513890545209961
    Two-Electron Energy =                 548.1490477353363531
    DFT Exchange-Correlation Energy =       0.0000000000000000
    Empirical Dispersion Energy =           0.0000000000000000
    PCM Polarization Energy =               0.0000000000000000
    EFP Energy =                            0.0000000000000000
    Total Energy =                       -418.4381648384248820
    Molecular point group: c1
  Basis Set: CC-PVTZ
  Basis Set:

  -Total Gradient:
     Atom            X                  Y                   Z
    ------   -----------------  -----------------  -----------------
       1       -0.000059352894     0.000093167770    -0.002955058122
       2        0.000654478192     0.000275555483     0.002894609327
       3       -0.001980676664    -0.001365657554     0.001488421040
       4        0.001358466892     0.000656951300    -0.001534755156
       5       -0.000008689322     0.000266102774     0.000095738736
       6        0.000000921639    -0.000012600767    -0.000001933565
       7       -0.000009117420     0.000321137968     0.000065097419
       8       -0.000026122156     0.000006546219    -0.000016112048
       9        0.000274321814    -0.000054450473     0.000077659380
      10        0.000012735918    -0.000034271502     0.000001486640
      11       -0.000212306614    -0.000183135753    -0.000154410898
      12       -0.000119416974     0.000004851615     0.000005056504
      13        0.000034287966     0.000020141661     0.000034437181
      14        0.000015441472     0.000023699085    -0.000005686952
      15        0.000065028149    -0.000018037828     0.000005450516

  **** Optimization is complete! (in 6 steps) ****
    Final optimized geometry and variables:
    Molecular point group: c1

    Geometry (in Angstrom), charge = 0, multiplicity = 1:

    H            1.980812810367    -2.275984187177    -0.538812927578
    O            1.063749458561    -2.484619615226    -0.526811759805
    C            0.310964787772    -1.359103485425    -0.474867123729
    C           -0.846833909432    -1.317807422656    -1.239357925287
    C            0.659011913967    -0.282547586159     0.308542985806
    H           -1.093940618393    -2.165193630690    -1.848181351205
    C           -1.658446510503    -0.205984044937    -1.202633937396
    H            1.548183621614    -0.301335925487     0.908295948772
    C           -0.155064888069     0.841449717414     0.330188194304
    H           -2.554136346410    -0.183105802031    -1.792483366754
    C           -1.314456897074     0.881976752239    -0.418232898885
    C            0.214691702061     2.010296434983     1.167309309251
    H           -1.942518232444     1.752252928632    -0.392813825473
    O            1.190618051305     2.079137318710     1.833515707688
    H           -0.495204394102     2.842247957875     1.131808637616

  Mulliken Charges: (a.u.)
   Center  Symbol    Alpha    Beta     Spin     Total
       1     H     0.38311  0.38311  0.00000  0.23378
       2     O     4.18079  4.18079  0.00000 -0.36158
       3     C     2.85350  2.85350  0.00000  0.29300
       4     C     3.10110  3.10110  0.00000 -0.20219
       5     C     3.13438  3.13438  0.00000 -0.26875
       6     H     0.41359  0.41359  0.00000  0.17283
       7     C     3.06001  3.06001  0.00000 -0.12002
       8     H     0.41078  0.41078  0.00000  0.17843
       9     C     2.98058  2.98058  0.00000  0.03884
      10     H     0.41907  0.41907  0.00000  0.16187
      11     C     3.10388  3.10388  0.00000 -0.20775
      12     C     2.90907  2.90907  0.00000  0.18187
      13     H     0.42280  0.42280  0.00000  0.15440
      14     O     4.17189  4.17189  0.00000 -0.34379
      15     H     0.45547  0.45547  0.00000  0.08906

   Total alpha = 32.00000, Total beta = 32.00000, Total charge = -0.00000

*** Psi4 exiting successfully. Buy a developer a beer!
