  ==> Input File <==

--------------------------------------------------------------------------
set {
	reference rhf
	basis 6-31G*
}

set_num_threads( 4 )
memory 2 gb

molecule MOL {
0 1

H	 -2.440439	 -1.729370	 -1.209578
N	 -1.538365	 -1.682372	 -0.777110
C	 -1.435781	 -0.509789	 0.073555
H	 -0.858421	 -1.623924	 -1.510164
C	 -0.053538	 -0.435867	 0.687619
H	 -1.631345	 0.428666	 -0.447078
H	 -2.164857	 -0.596541	 0.873370
O	 0.874168	 -0.245412	 -0.342030
H	 -0.000236	 0.389735	 1.396970
H	 0.159424	 -1.359500	 1.221270
C	 2.202317	 -0.244239	 0.074611
H	 2.711377	 -1.041390	 -0.449894
H	 2.692099	 0.699270	 -0.159667
H	 2.283185	 -0.418429	 1.145558

	symmetry c1
}
set optking {
	frozen_dihedral = ("
		5 8 11 13
	")
}

ee = optimize('scf')
oeprop('DIPOLE', 'QUADRUPOLE', 'MULLIKEN_CHARGES')
f=open( 'psi4out.xyz', 'w' )
f.write( "14  " )
f.write( str(ee) + "\n" )
f.write( MOL.save_string_xyz() )
f.close()
--------------------------------------------------------------------------

    Molecular point group: c1
  Charge       = 0
  Multiplicity = 1
  Basis Set: 6-31G*
  Basis Set:
  @DF-RHF Final Energy:  -248.12087776406423
    Total Energy =                       -248.1208777640642893
    Molecular point group: c1
  Basis Set: 6-31G*
  Basis Set:
  Basis Set: 6-31G*
  Basis Set:
  @DF-RHF Final Energy:  -248.12129211131321
    Total Energy =                       -248.1212921113131529
  Basis Set: 6-31G*
  Basis Set:
  Basis Set: 6-31G*
  Basis Set:
  @DF-RHF Final Energy:  -248.12139341016703
    Total Energy =                       -248.1213934101668883
  Basis Set: 6-31G*
  Basis Set:
  Charge       = 0
  Multiplicity = 1
  Basis Set: 6-31G*
  Basis Set:

    Orbital Energies (a.u.)
    -----------------------

    Doubly Occupied:

       1A    -20.553524     2A    -15.527864     3A    -11.266131
       4A    -11.265792     5A    -11.240185     6A     -1.376131
       7A     -1.172976     8A     -0.998856     9A     -0.907505
      10A     -0.814657    11A     -0.682187    12A     -0.671207
      13A     -0.642675    14A     -0.609517    15A     -0.605128
      16A     -0.538669    17A     -0.535833    18A     -0.496367
      19A     -0.471392    20A     -0.411805    21A     -0.379576

  @DF-RHF Final Energy:  -248.12139407272690

   => Energetics <=

    Nuclear Repulsion Energy =            194.3883027416871414
    One-Electron Energy =                -722.6834406353970053
    Two-Electron Energy =                 280.1737438209829634
    DFT Exchange-Correlation Energy =       0.0000000000000000
    Empirical Dispersion Energy =           0.0000000000000000
    PCM Polarization Energy =               0.0000000000000000
    EFP Energy =                            0.0000000000000000
    Total Energy =                       -248.1213940727268437
    Molecular point group: c1
  Basis Set: 6-31G*
  Basis Set:

  -Total Gradient:
     Atom            X                  Y                   Z
    ------   -----------------  -----------------  -----------------
       1        0.000014379003     0.000002704743    -0.000007988233
       2        0.000004683174     0.000018998404    -0.000009887293
       3       -0.000056189050    -0.000085238039     0.000104077437
       4       -0.000003759187     0.000008290590    -0.000021546440
       5       -0.000084087567     0.000107025672    -0.000040424982
       6        0.000056712655    -0.000035773935     0.000026266022
       7       -0.000066105196    -0.000005814903     0.000004459116
       8        0.000159695010     0.000009093854    -0.000019881292
       9        0.000001733482    -0.000018882774     0.000022393132
      10       -0.000005739928     0.000020267520    -0.000049330089
      11       -0.000051909698     0.000019796616     0.000054544320
      12        0.000004354281    -0.000005787795     0.000002038734
      13        0.000020632561    -0.000031033057    -0.000071760508
      14        0.000005600459    -0.000003646897     0.000007040077

  **** Optimization is complete! (in 4 steps) ****
    Final optimized geometry and variables:
    Molecular point group: c1

    Geometry (in Angstrom), charge = 0, multiplicity = 1:

    H           -2.455199013824    -1.093289096517    -1.157095888827
    N           -1.558042975303    -1.048947253514    -0.714325330253
    C           -1.463728697864     0.120305053515     0.141875370228
    H           -0.869960514832    -0.987491248541    -1.439457518773
    C           -0.088763009837     0.191014569661     0.772206044844
    H           -1.652063613453     1.060735895739    -0.377692060838
    H           -2.201961086091     0.031808229255     0.933201579487
    O            0.848496480549     0.376056266583    -0.251510794926
    H           -0.044041729770     1.017434261317     1.480400378704
    H            0.112546315884    -0.732715061583     1.308572805519
    C            2.192302010820     0.375652311634     0.133867430978
    H            2.720553577735    -0.416639553617    -0.385379648406
    H            2.646797802310     1.325871696352    -0.125638364554
    H            2.306956539679     0.220782444664     1.202086514939

  Mulliken Charges: (a.u.)
   Center  Symbol    Alpha    Beta     Spin     Total
       1     H     0.33297  0.33297  0.00000  0.33406
       2     N     3.92530  3.92530  0.00000 -0.85059
       3     C     3.06902  3.06902  0.00000 -0.13804
       4     H     0.32357  0.32357  0.00000  0.35286
       5     C     2.98966  2.98966  0.00000  0.02069
       6     H     0.42673  0.42673  0.00000  0.14653
       7     H     0.42070  0.42070  0.00000  0.15860
       8     O     4.31485  4.31485  0.00000 -0.62971
       9     H     0.43099  0.43099  0.00000  0.13802
      10     H     0.42224  0.42224  0.00000  0.15552
      11     C     3.07534  3.07534  0.00000 -0.15067
      12     H     0.41965  0.41965  0.00000  0.16070
      13     H     0.42078  0.42078  0.00000  0.15844
      14     H     0.42820  0.42820  0.00000  0.14360

   Total alpha = 21.00000, Total beta = 21.00000, Total charge = -0.00000
