                              Psi4 1.0.54 Driver

  ==> Input File <==

--------------------------------------------------------------------------
set {
	reference rhf
	basis cc-pvtz
}

set_num_threads( 4 )
memory 2 gb

molecule MOL {
0 1

H	 1.626355	 0.067635	 1.364301
C	 0.925371	 -0.484972	 0.776271
C	 0.919549	 -1.865072	 0.771361
C	 0.000000	 0.179985	 0.000046
H	 1.631070	 -2.400828	 1.368200
C	 -0.000002	 -2.552036	 -0.000008
N	 0.000000	 1.644631	 0.000076
C	 -0.925371	 -0.484941	 -0.776207
H	 -0.000000	 -3.625035	 -0.000032
C	 -0.919551	 -1.865041	 -0.771351
O	 1.050559	 2.194174	 -0.000073
O	 -1.050559	 2.194174	 -0.000074
H	 -1.626360	 0.067691	 -1.364208
H	 -1.631069	 -2.400772	 -1.368215

	symmetry c1
}
set optking {
	frozen_dihedral = ("
		2 4 7 11
	")
}

ee,wfn = optimize('scf', return_wfn=True)
oeprop( wfn, 'DIPOLE', 'QUADRUPOLE', 'MULLIKEN_CHARGES')
f=open( 'psi4out.xyz', 'w' )
f.write( "14  " )
f.write( str(ee) + "\n" )
f.write( MOL.save_string_xyz() )
f.close()
--------------------------------------------------------------------------

    Molecular point group: c1
  Charge       = 0
  Multiplicity = 1
  Basis Set: CC-PVTZ
  Basis Set:
  @DF-RHF Final Energy:  -434.32675190723961
    Total Energy =                       -434.3267519072396681
    Molecular point group: c1
  Basis Set: CC-PVTZ
  Basis Set:
  Basis Set: CC-PVTZ
  Basis Set:
  @DF-RHF Final Energy:  -434.31960096072561
    Total Energy =                       -434.3196009607254382
  Basis Set: CC-PVTZ
  Basis Set:
  Basis Set: CC-PVTZ
  Basis Set:
  @DF-RHF Final Energy:  -434.32579664407348
    Total Energy =                       -434.3257966440731934
  Basis Set: CC-PVTZ
  Basis Set:
  Basis Set: CC-PVTZ
  Basis Set:
  @DF-RHF Final Energy:  -434.32698475300361
    Total Energy =                       -434.3269847530038987
  Basis Set: CC-PVTZ
  Basis Set:
  Basis Set: CC-PVTZ
  Basis Set:
  @DF-RHF Final Energy:  -434.32694985656417
    Total Energy =                       -434.3269498565638287
  Basis Set: CC-PVTZ
  Basis Set:
  Basis Set: CC-PVTZ
  Basis Set:
  @DF-RHF Final Energy:  -434.32709932040672
    Total Energy =                       -434.3270993204064325
  Basis Set: CC-PVTZ
  Basis Set:
  Charge       = 0
  Multiplicity = 1
  Basis Set: CC-PVTZ
  Basis Set:

    Orbital Energies (a.u.)
    -----------------------

    Doubly Occupied:

       1A    -20.594048     2A    -20.593964     3A    -15.847459
       4A    -11.304217     5A    -11.267932     6A    -11.267695
       7A    -11.262956     8A    -11.259312     9A    -11.259076
      10A     -1.642183    11A     -1.425075    12A     -1.205736
      13A     -1.096619    14A     -1.056125    15A     -0.959532
      16A     -0.870732    17A     -0.829706    18A     -0.787520
      19A     -0.740358    20A     -0.735849    21A     -0.714757
      22A     -0.656709    23A     -0.651516    24A     -0.626346
      25A     -0.558394    26A     -0.545811    27A     -0.532754
      28A     -0.495835    29A     -0.490011    30A     -0.456903
      31A     -0.375194    32A     -0.370109

  @DF-RHF Final Energy:  -434.32709968384631

   => Energetics <=

    Nuclear Repulsion Energy =            418.0685950729111937
    One-Electron Energy =               -1419.8305353189718971
    Two-Electron Energy =                 567.4348405622141627
    DFT Exchange-Correlation Energy =       0.0000000000000000
    Empirical Dispersion Energy =           0.0000000000000000
    PCM Polarization Energy =               0.0000000000000000
    EFP Energy =                            0.0000000000000000
    Total Energy =                       -434.3270996838465408
    Molecular point group: c1
  Basis Set: CC-PVTZ
  Basis Set:

  -Total Gradient:
     Atom            X                  Y                   Z
    ------   -----------------  -----------------  -----------------
       1       -0.000003597564    -0.000002448894     0.000002233096
       2       -0.002684762185    -0.000030719454     0.002989599993
       3        0.000002695991     0.000003463297     0.000014713278
       4        0.003995312779     0.000028960545    -0.006069453268
       5       -0.000001814672    -0.000000332357     0.000002329119
       6        0.000005686861    -0.000001054387    -0.000016386887
       7       -0.001395544675     0.000034645415     0.007692832379
       8        0.000028786291     0.000028123756    -0.000039195699
       9        0.000002881989    -0.000000172608    -0.000000885750
      10       -0.000015079631    -0.000005115389     0.000039464323
      11        0.000148718092    -0.000068749370    -0.004622724758
      12       -0.000079971396     0.000012606813     0.000002516139
      13       -0.000000277116    -0.000004850156     0.000003273481
      14       -0.000003034766     0.000005642787     0.000001684553

  **** Optimization is complete! (in 7 steps) ****
    Final optimized geometry and variables:
    Molecular point group: c1

    Geometry (in Angstrom), charge = 0, multiplicity = 1:

    H            1.624301198268     0.074086634339     1.369001352145
    C            0.918040921316    -0.480396650241     0.786408354938
    C            0.884539505753    -1.860344778765     0.813855935999
    C            0.018986639871     0.179420055303    -0.020376498645
    H            1.569977307071    -2.396107027794     1.440524972610
    C           -0.029068491120    -2.546684632271     0.035211569574
    N            0.016098612728     1.641053883661    -0.012804055006
    C           -0.920481132934    -0.479496125525    -0.780794949499
    H           -0.045568899685    -3.619240904931     0.053763957165
    C           -0.925655081687    -1.859796505746    -0.763059108163
    O            1.068311992024     2.186296446088     0.028000299894
    O           -1.035406986930     2.184736087681    -0.078521958013
    H           -1.621571303407     0.075302628026    -1.368905414052
    H           -1.634390199552    -2.395899532998    -1.362971097429

  Mulliken Charges: (a.u.)
   Center  Symbol    Alpha    Beta     Spin     Total
       1     H     0.40545  0.40545  0.00000  0.18911
       2     C     3.08462  3.08462  0.00000 -0.16925
       3     C     3.07039  3.07039  0.00000 -0.14079
       4     C     2.94739  2.94739  0.00000  0.10523
       5     H     0.41710  0.41710  0.00000  0.16580
       6     C     3.06804  3.06804  0.00000 -0.13609
       7     N     3.27076  3.27076  0.00000  0.45849
       8     C     3.08350  3.08350  0.00000 -0.16700
       9     H     0.41737  0.41737  0.00000  0.16527
      10     C     3.06971  3.06971  0.00000 -0.13942
      11     O     4.17144  4.17144  0.00000 -0.34288
      12     O     4.17143  4.17143  0.00000 -0.34287
      13     H     0.40569  0.40569  0.00000  0.18861
      14     H     0.41710  0.41710  0.00000  0.16580

   Total alpha = 32.00000, Total beta = 32.00000, Total charge = -0.00000

*** Psi4 exiting successfully. Buy a developer a beer!
