  ==> Input File <==

--------------------------------------------------------------------------
set {
	reference rhf
	basis cc-pvtz
}

set_num_threads( 4 )
memory 2 gb

molecule MOL {
0 1

H	 -2.266619	 1.169943	 0.000098
O	 -1.438073	 1.611259	 0.000041
C	 -0.408657	 0.734701	 0.000005
C	 -0.332919	 -0.139722	 1.068208
C	 0.536503	 0.702194	 -1.018685
H	 -1.081366	 -0.083061	 1.834072
C	 0.691003	 -1.060783	 1.133000
C	 1.554207	 -0.233495	 -0.927618
C	 0.452445	 1.657095	 -2.183717
H	 0.743387	 -1.736444	 1.965298
C	 1.642642	 -1.112916	 0.132953
H	 2.292568	 -0.271364	 -1.706950
H	 0.512212	 2.692802	 -1.861133
H	 1.265724	 1.488495	 -2.874798
H	 -0.473519	 1.535272	 -2.738760
H	 2.441963	 -1.826739	 0.176684

	symmetry c1
}
set optking {
	frozen_dihedral = ("
		4 3 2 1
	")
}

ee = optimize('scf')
oeprop('DIPOLE', 'QUADRUPOLE', 'MULLIKEN_CHARGES')
f=open( 'psi4out.xyz', 'w' )
f.write( "16  " )
f.write( str(ee) + "\n" )
f.write( MOL.save_string_xyz() )
f.close()
--------------------------------------------------------------------------

    Molecular point group: c1
  Charge       = 0
  Multiplicity = 1
  Basis Set: CC-PVTZ
  Basis Set:
  @DF-RHF Final Energy:  -344.71546193170582
    Total Energy =                       -344.7154619317053630
    Molecular point group: c1
  Basis Set: CC-PVTZ
  Basis Set:
  Basis Set: CC-PVTZ
  Basis Set:
  @DF-RHF Final Energy:  -344.71700932533395
    Total Energy =                       -344.7170093253344021
  Basis Set: CC-PVTZ
  Basis Set:
  Basis Set: CC-PVTZ
  Basis Set:
  @DF-RHF Final Energy:  -344.71710611300745
    Total Energy =                       -344.7171061130077305
  Basis Set: CC-PVTZ
  Basis Set:
  Basis Set: CC-PVTZ
  Basis Set:
  @DF-RHF Final Energy:  -344.71711338051114
    Total Energy =                       -344.7171133805111936
  Basis Set: CC-PVTZ
  Basis Set:
  Charge       = 0
  Multiplicity = 1
  Basis Set: CC-PVTZ
  Basis Set:

    Orbital Energies (a.u.)
    -----------------------

    Doubly Occupied:

       1A    -20.573035     2A    -11.284843     3A    -11.231578
       4A    -11.227778     5A    -11.225791     6A    -11.223684
       7A    -11.221235     8A    -11.214723     9A     -1.400279
      10A     -1.153274    11A     -1.047433    12A     -1.006614
      13A     -0.933166    14A     -0.839057    15A     -0.804738
      16A     -0.732197    17A     -0.670990    18A     -0.658172
      19A     -0.622863    20A     -0.594965    21A     -0.574364
      22A     -0.564426    23A     -0.544014    24A     -0.527567
      25A     -0.502391    26A     -0.486880    27A     -0.469834
      28A     -0.333388    29A     -0.318205

  @DF-RHF Final Energy:  -344.71711488864520

   => Energetics <=

    Nuclear Repulsion Energy =            350.5587181821589979
    One-Electron Energy =               -1162.5767013970171320
    Two-Electron Energy =                 467.3008683262131626
    DFT Exchange-Correlation Energy =       0.0000000000000000
    Empirical Dispersion Energy =           0.0000000000000000
    PCM Polarization Energy =               0.0000000000000000
    EFP Energy =                            0.0000000000000000
    Total Energy =                       -344.7171148886449146
    Molecular point group: c1
  Basis Set: CC-PVTZ
  Basis Set:

  -Total Gradient:
     Atom            X                  Y                   Z
    ------   -----------------  -----------------  -----------------
       1        0.000044293201    -0.000114368377    -0.002132920853
       2        0.000334214320     0.000734475555     0.003009690818
       3       -0.001081780570    -0.001684535279    -0.001724718165
       4        0.000875547437     0.001052648060     0.000737069326
       5       -0.000218526204     0.000146447607     0.000075230279
       6        0.000034281617    -0.000015636269    -0.000016936231
       7       -0.000056649328    -0.000022992098     0.000024702486
       8        0.000049977701    -0.000157232379     0.000066431006
       9        0.000036877972     0.000020316431    -0.000058743538
      10        0.000037725728    -0.000020065504    -0.000000442562
      11        0.000035873540     0.000071132250    -0.000077312925
      12       -0.000019380912     0.000012786908     0.000008462781
      13       -0.000008793759     0.000012892000     0.000004851049
      14       -0.000032129429    -0.000016806351     0.000047764188
      15       -0.000019932223     0.000003924198    -0.000013992355
      16       -0.000011599097    -0.000022986749     0.000050864700

  **** Optimization is complete! (in 5 steps) ****
    Final optimized geometry and variables:
    Molecular point group: c1

    Geometry (in Angstrom), charge = 0, multiplicity = 1:

    H           -2.536105949805     0.914421557778     0.205087560805
    O           -1.689042532874     1.323007745976     0.194362136138
    C           -0.698471143494     0.383654800527     0.249207969036
    C           -0.612434795915    -0.478882548775     1.323139073881
    C            0.250510205010     0.366355668674    -0.764582903260
    H           -1.347700204452    -0.418542490937     2.103378173833
    C            0.415139698596    -1.400617501071     1.391254807749
    C            1.277490710021    -0.557637099679    -0.668844477013
    C            0.155964811910     1.328779181427    -1.919683606275
    H            0.474903295226    -2.073107574548     2.225434797842
    C            1.364962877968    -1.440336000251     0.392309943313
    H            2.021610355368    -0.588814342072    -1.442635850432
    H            0.193311076321     2.355299227795    -1.576773336164
    H            0.969777870293     1.170759780792    -2.614368755069
    H           -0.777561956939     1.206847483380    -2.455777997476
    H            2.170760821189    -2.147340373347     0.437638526748

  Mulliken Charges: (a.u.)
   Center  Symbol    Alpha    Beta     Spin     Total
       1     H     0.38542  0.38542  0.00000  0.22915
       2     O     4.18825  4.18825  0.00000 -0.37649
       3     C     2.88319  2.88319  0.00000  0.23362
       4     C     3.11775  3.11775  0.00000 -0.23550
       5     C     2.99241  2.99241  0.00000  0.01518
       6     H     0.42382  0.42382  0.00000  0.15236
       7     C     3.07550  3.07550  0.00000 -0.15100
       8     C     3.09124  3.09124  0.00000 -0.18249
       9     C     3.13918  3.13918  0.00000 -0.27836
      10     H     0.42241  0.42241  0.00000  0.15518
      11     C     3.08207  3.08207  0.00000 -0.16415
      12     H     0.42458  0.42458  0.00000  0.15083
      13     H     0.44451  0.44451  0.00000  0.11098
      14     H     0.45361  0.45361  0.00000  0.09278
      15     H     0.45176  0.45176  0.00000  0.09648
      16     H     0.42430  0.42430  0.00000  0.15140

   Total alpha = 29.00000, Total beta = 29.00000, Total charge = -0.00000
