  ==> Input File <==

--------------------------------------------------------------------------
set {
	reference rhf
	basis 6-31G*
}

set_num_threads( 4 )
memory 2 gb

molecule MOL {
0 1

H	 3.367740	 -3.143492	 -2.075582
C	 3.163872	 -2.120525	 -2.376413
C	 1.834252	 -1.630998	 -1.804006
H	 3.987620	 -1.503483	 -2.029946
H	 3.160598	 -2.089493	 -3.462611
C	 1.512475	 -0.192508	 -2.215127
H	 1.863107	 -1.699978	 -0.721411
H	 1.034208	 -2.288703	 -2.140228
C	 0.178263	 0.319243	 -1.671753
H	 2.305307	 0.467283	 -1.880854
H	 1.485602	 -0.130854	 -3.300722
C	 0.169600	 0.576866	 -0.172154
H	 -0.075056	 1.264196	 -2.149942
H	 -0.630901	 -0.363095	 -1.922445
C	 -1.181045	 0.701995	 0.511084
O	 1.183248	 0.695829	 0.448145
C	 -2.285934	 -0.139295	 -0.145128
H	 -1.449051	 1.751551	 0.493206
H	 -1.071135	 0.403303	 1.551943
C	 -3.651768	 0.085446	 0.506485
H	 -2.346596	 0.110469	 -1.202272
H	 -2.034737	 -1.195320	 -0.088721
C	 -4.759797	 -0.746382	 -0.137905
H	 -3.908762	 1.140117	 0.445781
H	 -3.588286	 -0.154158	 1.565709
H	 -4.868882	 -0.505166	 -1.191300
H	 -4.548009	 -1.809175	 -0.062213
H	 -5.715422	 -0.564821	 0.343442

	symmetry c1
}
set optking {
	frozen_dihedral = ("
		16 12 15 17
	")
}

ee = optimize('scf')
oeprop('DIPOLE', 'QUADRUPOLE', 'MULLIKEN_CHARGES')
f=open( 'psi4out.xyz', 'w' )
f.write( "28  " )
f.write( str(ee) + "\n" )
f.write( MOL.save_string_xyz() )
f.close()
--------------------------------------------------------------------------

    Molecular point group: c1
  Charge       = 0
  Multiplicity = 1
  Basis Set: 6-31G*
  Basis Set:
  @DF-RHF Final Energy:  -426.16384895279771
    Total Energy =                       -426.1638489527982756
    Molecular point group: c1
  Basis Set: 6-31G*
  Basis Set:
  Basis Set: 6-31G*
  Basis Set:
  @DF-RHF Final Energy:  -426.16508139624375
    Total Energy =                       -426.1650813962437496
  Basis Set: 6-31G*
  Basis Set:
  Basis Set: 6-31G*
  Basis Set:
  @DF-RHF Final Energy:  -426.16713575397625
    Total Energy =                       -426.1671357539764813
  Basis Set: 6-31G*
  Basis Set:
  Basis Set: 6-31G*
  Basis Set:
  @DF-RHF Final Energy:  -426.16739446333168
    Total Energy =                       -426.1673944633321298
  Basis Set: 6-31G*
  Basis Set:
  @DF-RHF Final Energy:  -426.16768428827902
    Total Energy =                       -426.1676842882786787
  @DF-RHF Final Energy:  -426.16779067982804
    Total Energy =                       -426.1677906798282720
  Basis Set: 6-31G*
  Basis Set:
  @DF-RHF Final Energy:  -426.16784723510614
    Total Energy =                       -426.1678472351062510
  Basis Set: 6-31G*
  Basis Set:
  Basis Set: 6-31G*
  Basis Set:
  @DF-RHF Final Energy:  -426.16777351804149
    Total Energy =                       -426.1677735180417130
  Basis Set: 6-31G*
  Basis Set:
  Basis Set: 6-31G*
  Basis Set:
  @DF-RHF Final Energy:  -426.16788680347486
    Total Energy =                       -426.1678868034749712
  Basis Set: 6-31G*
  Basis Set:
  Charge       = 0
  Multiplicity = 1
  Basis Set: 6-31G*
  Basis Set:

    Orbital Energies (a.u.)
    -----------------------

    Doubly Occupied:

       1A    -20.547000     2A    -11.323501     3A    -11.231162
       4A    -11.230507     5A    -11.229919     6A    -11.226312
       7A    -11.216769     8A    -11.215894     9A    -11.209797
      10A    -11.204280    11A     -1.393194    12A     -1.095499
      13A     -1.076316    14A     -1.022105    15A     -0.990228
      16A     -0.906874    17A     -0.874604    18A     -0.809826
      19A     -0.799303    20A     -0.721515    21A     -0.667772
      22A     -0.656224    23A     -0.628025    24A     -0.618652
      25A     -0.607675    26A     -0.587981    27A     -0.579332
      28A     -0.570891    29A     -0.545132    30A     -0.526794
      31A     -0.524243    32A     -0.509683    33A     -0.495331
      34A     -0.485930    35A     -0.478980    36A     -0.474657
      37A     -0.469444    38A     -0.464446    39A     -0.455174
      40A     -0.392131

  @DF-RHF Final Energy:  -426.16788708887691

   => Energetics <=

    Nuclear Repulsion Energy =            532.2102492164807472
    One-Electron Energy =               -1632.6300663270030782
    Two-Electron Energy =                 674.2519300216454212
    DFT Exchange-Correlation Energy =       0.0000000000000000
    Empirical Dispersion Energy =           0.0000000000000000
    PCM Polarization Energy =               0.0000000000000000
    EFP Energy =                            0.0000000000000000
    Total Energy =                       -426.1678870888767960
    Molecular point group: c1
  Basis Set: 6-31G*
  Basis Set:

  -Total Gradient:
     Atom            X                  Y                   Z
    ------   -----------------  -----------------  -----------------
       1       -0.000008996274     0.000000628688    -0.000001182539
       2       -0.000006633669     0.000004662010    -0.000002373865
       3       -0.000006287532    -0.000015613199    -0.000001906174
       4       -0.000006317669    -0.000000852312     0.000001776594
       5        0.000001241238    -0.000000784328    -0.000005474280
       6        0.000009535381     0.000030374363     0.000014830868
       7        0.000015747501     0.000002222095     0.000000220982
       8       -0.000009703619    -0.000001062597     0.000005989211
       9        0.000002363766    -0.000013188061    -0.000035577159
      10        0.000007489928     0.000006742811     0.000004702260
      11        0.000004867283     0.000004074772     0.000009516704
      12       -0.000235294073    -0.001394955347     0.000132761395
      13        0.000002981005    -0.000002291328    -0.000004951704
      14       -0.000006141533    -0.000010601724     0.000003266780
      15        0.000212585484    -0.000600602634     0.000770139381
      16        0.000141776097     0.001242844668    -0.000294124855
      17       -0.000120737382     0.000748006017    -0.000623261623
      18       -0.000009764706     0.000001135958     0.000002252864
      19        0.000001664523    -0.000000362677     0.000002843085
      20        0.000003960507    -0.000007394374     0.000010845140
      21        0.000002079206    -0.000001742974    -0.000002517900
      22        0.000001626342     0.000007810228     0.000009086050
      23        0.000003726820     0.000004047046    -0.000004720966
      24        0.000001035022    -0.000001089253     0.000003496984
      25       -0.000003983103    -0.000002294747     0.000005122859
      26        0.000000722958    -0.000001477546    -0.000001369178
      27       -0.000001357816    -0.000000560671     0.000001537999
      28        0.000001814316     0.000002325116    -0.000000928913

  **** Optimization is complete! (in 10 steps) ****
    Final optimized geometry and variables:
    Molecular point group: c1

    Geometry (in Angstrom), charge = 0, multiplicity = 1:

    H            4.295482494349    -2.549094859547    -1.476726384918
    C            3.922979002078    -1.562070737984    -1.732844762964
    C            2.523498079794    -1.335312900783    -1.162658917891
    H            4.625752328664    -0.832136451762    -1.341963555209
    H            3.926401238628    -1.478180301837    -2.816376822488
    C            1.963583648233     0.044449747181    -1.516547780618
    H            2.550403919624    -1.448438627947    -0.084854828534
    H            1.851785729936    -2.102602460439    -1.544778828023
    C            0.555515167574     0.297484432238    -0.977284028380
    H            2.631705248394     0.814069656928    -1.145074183500
    H            1.935775259222     0.146560244742    -2.599181601270
    C            0.489998024236     0.565388947843     0.516989092356
    H            0.109457353269     1.160320423049    -1.471015938070
    H           -0.097950280078    -0.538900463917    -1.212910975048
    C           -0.862978038525     0.885336362698     1.139565991956
    O            1.473977800044     0.603261175995     1.192923717170
    C           -2.092681508881     0.193188461180     0.544447886678
    H           -0.983905814083     1.965222893179     1.054682026794
    H           -0.773786453743     0.670480219529     2.198225763494
    C           -3.374828458120     0.545862872345     1.301695804402
    H           -2.211425975339     0.469537076756    -0.499621484391
    H           -1.953525196731    -0.886013808401     0.564851797567
    C           -4.613767213948    -0.132581081357     0.719057273877
    H           -3.513815387693     1.624740261774     1.289921612449
    H           -3.264900642673     0.263481805642     2.345997142135
    H           -4.770665582186     0.157852546289    -0.315893804671
    H           -4.518851515522    -1.214271505572     0.747988575813
    H           -5.505560875407     0.135804500922     1.276334786593

  Mulliken Charges: (a.u.)
   Center  Symbol    Alpha    Beta     Spin     Total
       1     H     0.41952  0.41952  0.00000  0.16097
       2     C     3.24036  3.24036  0.00000 -0.48072
       3     C     3.15604  3.15604  0.00000 -0.31208
       4     H     0.41873  0.41873  0.00000  0.16254
       5     H     0.42425  0.42425  0.00000  0.15151
       6     C     3.14782  3.14782  0.00000 -0.29564
       7     H     0.40640  0.40640  0.00000  0.18720
       8     H     0.42856  0.42856  0.00000  0.14287
       9     C     3.21510  3.21510  0.00000 -0.43021
      10     H     0.40921  0.40921  0.00000  0.18158
      11     H     0.42237  0.42237  0.00000  0.15525
      12     C     2.73064  2.73064  0.00000  0.53873
      13     H     0.40752  0.40752  0.00000  0.18496
      14     H     0.40646  0.40646  0.00000  0.18708
      15     C     3.20337  3.20337  0.00000 -0.40674
      16     O     4.26838  4.26838  0.00000 -0.53676
      17     C     3.16204  3.16204  0.00000 -0.32408
      18     H     0.40625  0.40625  0.00000  0.18749
      19     H     0.39915  0.39915  0.00000  0.20171
      20     C     3.15223  3.15223  0.00000 -0.30445
      21     H     0.41896  0.41896  0.00000  0.16207
      22     H     0.41828  0.41828  0.00000  0.16345
      23     C     3.24002  3.24002  0.00000 -0.48003
      24     H     0.42111  0.42111  0.00000  0.15778
      25     H     0.41907  0.41907  0.00000  0.16185
      26     H     0.42111  0.42111  0.00000  0.15778
      27     H     0.42030  0.42030  0.00000  0.15941
      28     H     0.41676  0.41676  0.00000  0.16648

   Total alpha = 40.00000, Total beta = 40.00000, Total charge =  0.00000
