  ==> Input File <==

--------------------------------------------------------------------------
set {
	reference rhf
	basis 6-31G*
}

set_num_threads( 4 )
memory 2 gb

molecule MOL {
0 1

O	 3.225979	 0.970355	 -0.599647
C	 2.701189	 0.057885	 -0.047330
C	 1.245376	 -0.013843	 0.345420
O	 3.347903	 -1.046386	 0.304773
C	 0.455112	 1.231400	 -0.050772
H	 0.838542	 -0.913825	 -0.103701
H	 1.208210	 -0.175333	 1.419774
C	 -0.998893	 1.219485	 0.433193
H	 0.482531	 1.345121	 -1.130325
H	 0.957290	 2.103070	 0.354729
C	 -1.883438	 0.145884	 -0.207175
H	 -1.431207	 2.195402	 0.224832
H	 -1.019646	 1.105716	 1.516076
C	 -3.116127	 -0.189393	 0.634886
H	 -2.202043	 0.485361	 -1.191586
H	 -1.310425	 -0.764374	 -0.368607
C	 -4.004699	 -1.264855	 0.007231
H	 -3.702612	 0.714614	 0.789944
H	 -2.798523	 -0.518707	 1.623005
C	 -5.235465	 -1.591087	 0.852505
H	 -4.322150	 -0.937830	 -0.980657
H	 -3.421372	 -2.170659	 -0.144524
H	 -5.844981	 -2.356212	 0.381676
H	 -5.858458	 -0.712312	 0.993329
H	 -4.950641	 -1.954039	 1.836078
C	 4.728119	 -1.109107	 -0.004993
H	 4.882018	 -1.033965	 -1.071845
H	 5.068212	 -2.067527	 0.355250
H	 5.265056	 -0.311663	 0.488280

	symmetry c1
}
set optking {
	frozen_dihedral = ("
		15 11 8 5
	")
}

ee = optimize('scf')
oeprop('DIPOLE', 'QUADRUPOLE', 'MULLIKEN_CHARGES')
f=open( 'psi4out.xyz', 'w' )
f.write( "29  " )
f.write( str(ee) + "\n" )
f.write( MOL.save_string_xyz() )
f.close()
--------------------------------------------------------------------------

    Molecular point group: c1
  Charge       = 0
  Multiplicity = 1
  Basis Set: 6-31G*
  Basis Set:
  @DF-RHF Final Energy:  -501.04191085342200
    Total Energy =                       -501.0419108534218822
    Molecular point group: c1
  Basis Set: 6-31G*
  Basis Set:
  Basis Set: 6-31G*
  Basis Set:
  @DF-RHF Final Energy:  -501.04210088280956
    Total Energy =                       -501.0421008828092226
  Basis Set: 6-31G*
  Basis Set:
  Basis Set: 6-31G*
  Basis Set:
  @DF-RHF Final Energy:  -501.04230931763868
    Total Energy =                       -501.0423093176397060
  Basis Set: 6-31G*
  Basis Set:
  Basis Set: 6-31G*
  Basis Set:
  @DF-RHF Final Energy:  -501.04232433811728
    Total Energy =                       -501.0423243381178509
  Basis Set: 6-31G*
  Basis Set:
  Basis Set: 6-31G*
  Basis Set:
  @DF-RHF Final Energy:  -501.04224571194857
    Total Energy =                       -501.0422457119486808
  Basis Set: 6-31G*
  Basis Set:
  Basis Set: 6-31G*
  Basis Set:
  @DF-RHF Final Energy:  -501.04233280570372
    Total Energy =                       -501.0423328057031540
  Basis Set: 6-31G*
  Basis Set:
  Charge       = 0
  Multiplicity = 1
  Basis Set: 6-31G*
  Basis Set:

    Orbital Energies (a.u.)
    -----------------------

    Doubly Occupied:

       1A    -20.603517     2A    -20.545320     3A    -11.372195
       4A    -11.280767     5A    -11.235068     6A    -11.219237
       7A    -11.217651     8A    -11.215844     9A    -11.215719
      10A    -11.214421    11A    -11.209106    12A     -1.469208
      13A     -1.362658    14A     -1.097674    15A     -1.066888
      16A     -1.019231    17A     -0.977270    18A     -0.928476
      19A     -0.860808    20A     -0.799685    21A     -0.790346
      22A     -0.764698    23A     -0.701623    24A     -0.682380
      25A     -0.672199    26A     -0.649050    27A     -0.629369
      28A     -0.604865    29A     -0.596292    30A     -0.579400
      31A     -0.566249    32A     -0.551260    33A     -0.533354
      34A     -0.529235    35A     -0.514360    36A     -0.508581
      37A     -0.500917    38A     -0.476696    39A     -0.471247
      40A     -0.461650    41A     -0.459354    42A     -0.455696
      43A     -0.439923    44A     -0.435461

  @DF-RHF Final Energy:  -501.04233296984319

   => Energetics <=

    Nuclear Repulsion Energy =            611.6085298146209652
    One-Electron Energy =               -1894.3318352669755313
    Two-Electron Energy =                 781.6809724825116064
    DFT Exchange-Correlation Energy =       0.0000000000000000
    Empirical Dispersion Energy =           0.0000000000000000
    PCM Polarization Energy =               0.0000000000000000
    EFP Energy =                            0.0000000000000000
    Total Energy =                       -501.0423329698428461
    Molecular point group: c1
  Basis Set: 6-31G*
  Basis Set:

  -Total Gradient:
     Atom            X                  Y                   Z
    ------   -----------------  -----------------  -----------------
       1        0.000017560227     0.000040355923     0.000073018328
       2       -0.000055373133    -0.000111863014    -0.000185295686
       3        0.000020105161     0.000015746099     0.000043788243
       4        0.000024477897     0.000025200394     0.000057721438
       5        0.000663454986    -0.001686632802     0.001802956870
       6        0.000019615107     0.000007696875    -0.000006121117
       7       -0.000015898143    -0.000001114116     0.000007375952
       8       -0.001603228850     0.002675611354    -0.002219163890
       9       -0.000008285389    -0.000007133783     0.000022485303
      10       -0.000005698225     0.000021950634    -0.000000672029
      11        0.003716654864    -0.002420468408    -0.001079097914
      12        0.000020470776     0.000028030838    -0.000034407121
      13       -0.000020096053     0.000004725398    -0.000015616946
      14        0.000019501054    -0.000055734422     0.000054490211
      15       -0.002787823748     0.001419773087     0.001519815778
      16        0.000020264285     0.000003797509    -0.000005375905
      17       -0.000023793161     0.000047983398    -0.000029759148
      18        0.000017501549    -0.000001564719    -0.000017606860
      19       -0.000021358966    -0.000015462379     0.000006459716
      20        0.000016079085    -0.000012368774     0.000012297879
      21       -0.000018193069     0.000002955886    -0.000012343372
      22        0.000000573608     0.000018885527     0.000001026106
      23        0.000008974980    -0.000007713699     0.000002696395
      24        0.000000331821    -0.000003374543    -0.000010606582
      25       -0.000001791332     0.000005718475     0.000009733110
      26       -0.000005055393     0.000003309095     0.000000357856
      27       -0.000001774324     0.000000270683     0.000000282957
      28       -0.000000248711     0.000000798917     0.000001327691
      29        0.000003053097     0.000000620570     0.000000232739

  **** Optimization is complete! (in 7 steps) ****
    Final optimized geometry and variables:
    Molecular point group: c1

    Geometry (in Angstrom), charge = 0, multiplicity = 1:

    O            3.106263207833     1.074926891380    -0.888871832484
    C            2.633877914657     0.221984765496    -0.208942932631
    C            1.204819887944     0.172421645840     0.274830365080
    O            3.324119407975    -0.824637585451     0.226718024039
    C            0.366034944781     1.353731326949    -0.207746256391
    H            0.793099140242    -0.779575649854    -0.043677851092
    H            1.233373949514     0.133763511951     1.360631122818
    C           -1.077299231435     1.326226625904     0.309705019198
    H            0.372090948541     1.381073475798    -1.293312508306
    H            0.846546277767     2.270745420949     0.116181256849
    C           -1.974367944910     0.264170561920    -0.342252268673
    H           -1.526034180855     2.304014959839     0.157739472982
    H           -1.057914613637     1.171244449839     1.387569824937
    C           -3.208647042796    -0.067870796866     0.500946432842
    H           -2.312015768377     0.633526930102    -1.308403195072
    H           -1.418490822522    -0.650204186919    -0.531372839723
    C           -4.158196287074    -1.057368281459    -0.176357514606
    H           -3.748388011322     0.851056123667     0.725202920142
    H           -2.890554389152    -0.474310910226     1.459659755413
    C           -5.379342523871    -1.394682699804     0.678506442307
    H           -4.487063086698    -0.646816276116    -1.128648833343
    H           -3.617814153576    -1.972525825046    -0.409796772662
    H           -6.032368938226    -2.098633660026     0.171935235993
    H           -5.961033539426    -0.504182141189     0.899562316023
    H           -5.084828937752    -1.839144698847     1.625074546899
    C            4.686091402441    -0.899379075244    -0.153287032859
    H            4.778731353398    -0.942914412192    -1.228939893536
    H            5.067385982859    -1.805177529515     0.291828692053
    H            5.231249853273    -0.042546438363     0.215729268675

  Mulliken Charges: (a.u.)
   Center  Symbol    Alpha    Beta     Spin     Total
       1     O     4.28582  4.28582  0.00000 -0.57163
       2     C     2.60500  2.60500  0.00000  0.79000
       3     C     3.20884  3.20884  0.00000 -0.41768
       4     O     4.30746  4.30746  0.00000 -0.61491
       5     C     3.15442  3.15442  0.00000 -0.30884
       6     H     0.39974  0.39974  0.00000  0.20053
       7     H     0.40090  0.40090  0.00000  0.19820
       8     C     3.15797  3.15797  0.00000 -0.31594
       9     H     0.41208  0.41208  0.00000  0.17583
      10     H     0.40981  0.40981  0.00000  0.18038
      11     C     3.15444  3.15444  0.00000 -0.30888
      12     H     0.41664  0.41664  0.00000  0.16672
      13     H     0.42421  0.42421  0.00000  0.15157
      14     C     3.15140  3.15140  0.00000 -0.30279
      15     H     0.42085  0.42085  0.00000  0.15829
      16     H     0.42364  0.42364  0.00000  0.15271
      17     C     3.15157  3.15157  0.00000 -0.30314
      18     H     0.42350  0.42350  0.00000  0.15300
      19     H     0.42438  0.42438  0.00000  0.15123
      20     C     3.23927  3.23927  0.00000 -0.47853
      21     H     0.42273  0.42273  0.00000  0.15455
      22     H     0.42352  0.42352  0.00000  0.15297
      23     H     0.41921  0.41921  0.00000  0.16157
      24     H     0.42162  0.42162  0.00000  0.15675
      25     H     0.42191  0.42191  0.00000  0.15617
      26     C     3.09241  3.09241  0.00000 -0.18483
      27     H     0.40907  0.40907  0.00000  0.18187
      28     H     0.40850  0.40850  0.00000  0.18300
      29     H     0.40909  0.40909  0.00000  0.18182

   Total alpha = 44.00000, Total beta = 44.00000, Total charge = -0.00000
