  ==> Input File <==

--------------------------------------------------------------------------
set {
	reference rhf
	basis 6-31G*
}

set_num_threads( 4 )
memory 2 gb

molecule MOL {
0 1

H	 -3.161837	 0.500524	 -0.000234
C	 -2.367097	 -0.232926	 -0.000000
O	 -1.158440	 0.455814	 -0.000122
H	 -2.468853	 -0.861886	 -0.882833
H	 -2.468942	 -0.861421	 0.883154
C	 -0.451186	 0.374156	 -1.200538
C	 0.838714	 1.164246	 -1.064237
H	 -1.053547	 0.770882	 -2.018871
H	 -0.233535	 -0.668063	 -1.437846
C	 1.681916	 1.130791	 -2.338118
H	 0.589138	 2.188950	 -0.806644
H	 1.403483	 0.760085	 -0.229738
H	 1.143119	 1.553873	 -3.181399
H	 2.595808	 1.701671	 -2.212642
H	 1.962716	 0.114660	 -2.600860

	symmetry c1
}
set optking {
	frozen_dihedral = ("
		6 3 2 4
	")
}

ee = optimize('scf')
oeprop('DIPOLE', 'QUADRUPOLE', 'MULLIKEN_CHARGES')
f=open( 'psi4out.xyz', 'w' )
f.write( "15  " )
f.write( str(ee) + "\n" )
f.write( MOL.save_string_xyz() )
f.close()
--------------------------------------------------------------------------

    Molecular point group: c1
  Charge       = 0
  Multiplicity = 1
  Basis Set: 6-31G*
  Basis Set:
  @DF-RHF Final Energy:  -232.13508323764188
    Total Energy =                       -232.1350832376418794
    Molecular point group: c1
  Basis Set: 6-31G*
  Basis Set:
  Basis Set: 6-31G*
  Basis Set:
  @DF-RHF Final Energy:  -232.13561383018592
    Total Energy =                       -232.1356138301858891
  Basis Set: 6-31G*
  Basis Set:
  Basis Set: 6-31G*
  Basis Set:
  @DF-RHF Final Energy:  -232.13575657986601
    Total Energy =                       -232.1357565798659266
  Basis Set: 6-31G*
  Basis Set:
  Charge       = 0
  Multiplicity = 1
  Basis Set: 6-31G*
  Basis Set:

    Orbital Energies (a.u.)
    -----------------------

    Doubly Occupied:

       1A    -20.549557     2A    -11.266729     3A    -11.263457
       4A    -11.213700     5A    -11.212655     6A     -1.373163
       7A     -1.056838     8A     -0.955300     9A     -0.877335
      10A     -0.808734    11A     -0.670961    12A     -0.651767
      13A     -0.629616    14A     -0.607392    15A     -0.564056
      16A     -0.545657    17A     -0.501934    18A     -0.488440
      19A     -0.478787    20A     -0.460330    21A     -0.408072

  @DF-RHF Final Energy:  -232.13575750154195

   => Energetics <=

    Nuclear Repulsion Energy =            189.4054769795298512
    One-Electron Energy =                -689.9135093848773295
    Two-Electron Energy =                 268.3722749038056463
    DFT Exchange-Correlation Energy =       0.0000000000000000
    Empirical Dispersion Energy =           0.0000000000000000
    PCM Polarization Energy =               0.0000000000000000
    EFP Energy =                            0.0000000000000000
    Total Energy =                       -232.1357575015418320
    Molecular point group: c1
  Basis Set: 6-31G*
  Basis Set:

  -Total Gradient:
     Atom            X                  Y                   Z
    ------   -----------------  -----------------  -----------------
       1       -0.000021160684    -0.000005458176     0.000004749315
       2        0.001069773515    -0.001809925165     0.001147898755
       3       -0.001131790723     0.001718112255    -0.000791531997
       4       -0.000595292156     0.001147004197    -0.000757614282
       5        0.000047097603    -0.000000220298    -0.000004420608
       6        0.000637663942    -0.001100079782     0.000419378477
       7       -0.000023353291     0.000007565419     0.000000562441
       8       -0.000002594788     0.000005335401     0.000059376997
       9       -0.000009638189     0.000001137680    -0.000029414599
      10        0.000025657283     0.000032548793    -0.000021730875
      11        0.000021238568     0.000009445279     0.000001312207
      12       -0.000031931206    -0.000010881944    -0.000010579321
      13        0.000005447878    -0.000004470712    -0.000007723493
      14        0.000012348881     0.000004634341    -0.000020545988
      15       -0.000003466632     0.000005252712     0.000010282970

  **** Optimization is complete! (in 4 steps) ****
    Final optimized geometry and variables:
    Molecular point group: c1

    Geometry (in Angstrom), charge = 0, multiplicity = 1:

    H           -2.883937452907    -0.085474947388     0.953128520268
    C           -2.060225515533    -0.793048515616     0.930649495705
    O           -0.841098480502    -0.112094807236     0.899343605340
    H           -2.190802403676    -1.431651019262     0.061933805398
    H           -2.103807136409    -1.405392822610     1.823724852433
    C           -0.127094637914    -0.190038744453    -0.298947183014
    C            1.161637032469     0.598730825351    -0.146719893405
    H           -0.719188902814     0.213123214126    -1.120983352793
    H            0.093508700405    -1.230160136405    -0.539076451000
    C            2.017355069784     0.570255113835    -1.412555614360
    H            0.910310489654     1.622396424788     0.113244124831
    H            1.717512200592     0.190261265067     0.691616664626
    H            1.486685399882     0.996230099117    -2.259546102906
    H            2.929824281533     1.141028098271    -1.276390487359
    H            2.301070074571    -0.444797964436    -1.676432102479

  Mulliken Charges: (a.u.)
   Center  Symbol    Alpha    Beta     Spin     Total
       1     H     0.42311  0.42311  0.00000  0.15378
       2     C     3.07597  3.07597  0.00000 -0.15194
       3     O     4.31055  4.31055  0.00000 -0.62110
       4     H     0.43007  0.43007  0.00000  0.13986
       5     H     0.41849  0.41849  0.00000  0.16302
       6     C     2.98137  2.98137  0.00000  0.03727
       7     C     3.15994  3.15994  0.00000 -0.31989
       8     H     0.43345  0.43345  0.00000  0.13309
       9     H     0.43296  0.43296  0.00000  0.13408
      10     C     3.24794  3.24794  0.00000 -0.49588
      11     H     0.41435  0.41435  0.00000  0.17130
      12     H     0.41440  0.41440  0.00000  0.17119
      13     H     0.42095  0.42095  0.00000  0.15811
      14     H     0.41544  0.41544  0.00000  0.16911
      15     H     0.42100  0.42100  0.00000  0.15799

   Total alpha = 21.00000, Total beta = 21.00000, Total charge = -0.00000
