                              Psi4 1.0.54 Driver

  ==> Input File <==

--------------------------------------------------------------------------
set {
	reference rhf
	basis cc-pvtz
}

set_num_threads( 4 )
memory 2 gb

molecule MOL {
0 1

H	 -2.981316	 3.010352	 -0.875978
C	 -3.454410	 2.187411	 -0.322954
C	 -2.653809	 0.914422	 -0.273689
O	 -4.518595	 2.339952	 0.168523
C	 -1.216901	 1.136108	 0.207794
H	 -3.178074	 0.201721	 0.349639
H	 -2.634172	 0.520860	 -1.287606
C	 -0.247837	 0.040196	 -0.230469
H	 -0.872882	 2.093195	 -0.169002
H	 -1.209325	 1.218376	 1.291938
C	 1.181757	 0.280428	 0.247371
H	 -0.259600	 -0.030819	 -1.314870
H	 -0.591284	 -0.923375	 0.136958
C	 2.151032	 -0.811012	 -0.202643
H	 1.515939	 1.247397	 -0.115449
H	 1.191514	 0.341223	 1.333422
C	 3.580021	 -0.656538	 0.320835
H	 2.170545	 -0.847575	 -1.289412
H	 1.766632	 -1.772905	 0.124928
C	 4.327657	 0.562694	 -0.213579
H	 4.138806	 -1.549270	 0.057813
H	 3.561991	 -0.620783	 1.406976
H	 4.355973	 0.557257	 -1.298551
H	 3.867136	 1.491650	 0.100501
H	 5.351524	 0.571613	 0.142204

	symmetry c1
}
set optking {
	frozen_dihedral = ("
		6 3 5 8
	")
}

ee,wfn = optimize('scf', return_wfn=True)
oeprop( wfn, 'DIPOLE', 'QUADRUPOLE', 'MULLIKEN_CHARGES')
f=open( 'psi4out.xyz', 'w' )
f.write( "25  " )
f.write( str(ee) + "\n" )
f.write( MOL.save_string_xyz() )
f.close()
--------------------------------------------------------------------------

    Molecular point group: c1
  Charge       = 0
  Multiplicity = 1
  Basis Set: CC-PVTZ
  Basis Set:
  @DF-RHF Final Energy:  -387.25966396911912
    Total Energy =                       -387.2596639691192877
    Molecular point group: c1
  Basis Set: CC-PVTZ
  Basis Set:
  Basis Set: CC-PVTZ
  Basis Set:
  @DF-RHF Final Energy:  -387.25981011932600
    Total Energy =                       -387.2598101193257207
  Basis Set: CC-PVTZ
  Basis Set:
  Basis Set: CC-PVTZ
  Basis Set:
  @DF-RHF Final Energy:  -387.25969662451610
    Total Energy =                       -387.2596966245163230
  Basis Set: CC-PVTZ
  Basis Set:
  Basis Set: CC-PVTZ
  Basis Set:
  @DF-RHF Final Energy:  -387.25987576764612
    Total Energy =                       -387.2598757676464629
  Basis Set: CC-PVTZ
  Basis Set:
  @DF-RHF Final Energy:  -387.25991130997670
    Total Energy =                       -387.2599113099764736
  Basis Set: CC-PVTZ
  Basis Set:
  @DF-RHF Final Energy:  -387.25991751320862
    Total Energy =                       -387.2599175132090750
  Basis Set: CC-PVTZ
  Basis Set:
  Basis Set: CC-PVTZ
  Basis Set:
  @DF-RHF Final Energy:  -387.25992046658348
    Total Energy =                       -387.2599204665834804
  Basis Set: CC-PVTZ
  Basis Set:
  Basis Set: CC-PVTZ
  Basis Set:
  @DF-RHF Final Energy:  -387.25992250229069
    Total Energy =                       -387.2599225022906921
  Basis Set: CC-PVTZ
  Basis Set:
  Charge       = 0
  Multiplicity = 1
  Basis Set: CC-PVTZ
  Basis Set:

    Orbital Energies (a.u.)
    -----------------------

    Doubly Occupied:

       1A    -20.551645     2A    -11.320673     3A    -11.233839
       4A    -11.233226     5A    -11.224340     6A    -11.218960
       7A    -11.217768     8A    -11.216998     9A    -11.210032
      10A     -1.406528    11A     -1.106065    12A     -1.071886
      13A     -1.016438    14A     -0.945882    15A     -0.876092
      16A     -0.814324    17A     -0.794801    18A     -0.782304
      19A     -0.679763    20A     -0.659678    21A     -0.636505
      22A     -0.622837    23A     -0.610516    24A     -0.593159
      25A     -0.573974    26A     -0.553996    27A     -0.537086
      28A     -0.525304    29A     -0.512987    30A     -0.498660
      31A     -0.487066    32A     -0.480039    33A     -0.467038
      34A     -0.460804    35A     -0.453054    36A     -0.409309

  @DF-RHF Final Energy:  -387.25992349040979

   => Energetics <=

    Nuclear Repulsion Energy =            432.5563820750283526
    One-Electron Energy =               -1381.6254595229274855
    Two-Electron Energy =                 561.8091539574893432
    DFT Exchange-Correlation Energy =       0.0000000000000000
    Empirical Dispersion Energy =           0.0000000000000000
    PCM Polarization Energy =               0.0000000000000000
    EFP Energy =                            0.0000000000000000
    Total Energy =                       -387.2599234904098466
    Molecular point group: c1
  Basis Set: CC-PVTZ
  Basis Set:

  -Total Gradient:
     Atom            X                  Y                   Z
    ------   -----------------  -----------------  -----------------
       1       -0.000009840870    -0.000006575495     0.000004266594
       2       -0.000011644455     0.000015055011     0.000004939422
       3        0.001380763749    -0.002544398250    -0.002955974507
       4        0.000028834804    -0.000009264761    -0.000017721931
       5       -0.000830656712    -0.000882253205     0.003099440018
       6       -0.000978715835     0.002355352245     0.001753085371
       7       -0.000004851293     0.000008124875     0.000010248508
       8        0.000417163668     0.001086698329    -0.001912670712
       9       -0.000005724063    -0.000014177984     0.000005324834
      10        0.000009913243     0.000001487791    -0.000002983787
      11       -0.000007035166    -0.000013498903     0.000010204822
      12       -0.000009505875    -0.000000091083    -0.000002180869
      13        0.000006069293     0.000008333692    -0.000001348873
      14        0.000009250294    -0.000000658386     0.000003954106
      15       -0.000005584784    -0.000006412960    -0.000001465516
      16        0.000008010006     0.000003080032     0.000003461339
      17       -0.000000661042     0.000001239511    -0.000000710680
      18       -0.000001896792     0.000000430173     0.000002000504
      19        0.000000671874     0.000001365584    -0.000000802523
      20        0.000003476044    -0.000003228593    -0.000000427448
      21        0.000004119537     0.000003694920    -0.000000301705
      22       -0.000000176583    -0.000000195738    -0.000002118152
      23       -0.000001487052    -0.000000810936     0.000000967265
      24        0.000000303721    -0.000003491635     0.000001665716
      25       -0.000000795720     0.000000195765    -0.000000851795

  **** Optimization is complete! (in 9 steps) ****
    Final optimized geometry and variables:
    Molecular point group: c1

    Geometry (in Angstrom), charge = 0, multiplicity = 1:

    H           -3.001742557657     2.273415383350    -0.944706609402
    C           -3.383264210951     1.483495088392    -0.284094791862
    C           -2.569416973558     0.217553254365    -0.268328984782
    O           -4.362899171833     1.665901547637     0.351785785516
    C           -1.127227848791     0.480583706786     0.182801071368
    H           -3.068620527085    -0.481262778092     0.389411934112
    H           -2.573156287196    -0.183610804992    -1.278675977071
    C           -0.157627810278    -0.620400339140    -0.238333475176
    H           -0.783782688330     1.422811366597    -0.238015458903
    H           -1.109231567623     0.604048088576     1.260473681515
    C            1.268245734976    -0.387573983951     0.253374925176
    H           -0.158292721993    -0.695177756216    -1.322692994974
    H           -0.515247381560    -1.577430767309     0.133286163895
    C            2.235967826607    -1.484324858249    -0.187138790942
    H            1.611421132112     0.577540068571    -0.106115563395
    H            1.267087036229    -0.326862057989     1.339166902814
    C            3.659887695093    -1.339135603057     0.352520279737
    H            2.267888144531    -1.519872874357    -1.273791615333
    H            1.842160339525    -2.444285699083     0.135277219256
    C            4.420156294233    -0.123054934359    -0.171050961584
    H            4.216540000566    -2.234535664902     0.093971523915
    H            3.629649342184    -1.305335264306     1.438361978618
    H            4.459658909637    -0.125895103177    -1.255714572142
    H            3.962086533155     0.807788274735     0.140862386223
    H            5.440299430342    -0.121288339490     0.195249002334

  Mulliken Charges: (a.u.)
   Center  Symbol    Alpha    Beta     Spin     Total
       1     H     0.46612  0.46612  0.00000  0.06777
       2     C     2.90748  2.90748  0.00000  0.18503
       3     C     3.07788  3.07788  0.00000 -0.15577
       4     O     4.16450  4.16450  0.00000 -0.32901
       5     C     3.10593  3.10593  0.00000 -0.21186
       6     H     0.44193  0.44193  0.00000  0.11615
       7     H     0.44998  0.44998  0.00000  0.10005
       8     C     3.08985  3.08985  0.00000 -0.17970
       9     H     0.45289  0.45289  0.00000  0.09422
      10     H     0.44373  0.44373  0.00000  0.11254
      11     C     3.09313  3.09313  0.00000 -0.18625
      12     H     0.45340  0.45340  0.00000  0.09319
      13     H     0.45052  0.45052  0.00000  0.09896
      14     C     3.09574  3.09574  0.00000 -0.19147
      15     H     0.45190  0.45190  0.00000  0.09619
      16     H     0.45269  0.45269  0.00000  0.09461
      17     C     3.09062  3.09062  0.00000 -0.18125
      18     H     0.45376  0.45376  0.00000  0.09248
      19     H     0.44893  0.44893  0.00000  0.10215
      20     C     3.15267  3.15267  0.00000 -0.30535
      21     H     0.44783  0.44783  0.00000  0.10433
      22     H     0.45415  0.45415  0.00000  0.09170
      23     H     0.45484  0.45484  0.00000  0.09033
      24     H     0.45389  0.45389  0.00000  0.09223
      25     H     0.44563  0.44563  0.00000  0.10873

   Total alpha = 36.00000, Total beta = 36.00000, Total charge = -0.00000

*** Psi4 exiting successfully. Buy a developer a beer!
