                              Psi4 1.0.54 Driver

  ==> Input File <==

--------------------------------------------------------------------------
set {
	reference rhf
	basis cc-pvtz
}

set_num_threads( 4 )
memory 2 gb

molecule MOL {
0 1

O	 0.074770	 1.259872	 0.000487
C	 0.029490	 0.077183	 0.000078
C	 -1.232113	 -0.748027	 0.000015
O	 1.106773	 -0.690081	 -0.000204
C	 -2.501422	 0.088592	 -0.000052
H	 -1.188777	 -1.400384	 -0.865133
H	 -1.188857	 -1.400312	 0.865225
H	 -2.548170	 0.725504	 -0.873205
H	 -3.371613	 -0.556398	 -0.000040
H	 -2.548215	 0.725571	 0.873047
C	 2.266078	 -0.180661	 -0.628013
H	 2.078436	 0.015945	 -1.673179
H	 3.021186	 -0.942544	 -0.522318
H	 2.588294	 0.732525	 -0.149982

	symmetry c1
}
set optking {
	frozen_dihedral = ("
		11 4 2 3
	")
}

ee,wfn = optimize('scf', return_wfn=True)
oeprop( wfn, 'DIPOLE', 'QUADRUPOLE', 'MULLIKEN_CHARGES')
f=open( 'psi4out.xyz', 'w' )
f.write( "14  " )
f.write( str(ee) + "\n" )
f.write( MOL.save_string_xyz() )
f.close()
--------------------------------------------------------------------------

    Molecular point group: c1
  Charge       = 0
  Multiplicity = 1
  Basis Set: CC-PVTZ
  Basis Set:
  @DF-RHF Final Energy:  -305.98267356798033
    Total Energy =                       -305.9826735679804415
    Molecular point group: c1
  Basis Set: CC-PVTZ
  Basis Set:
  Basis Set: CC-PVTZ
  Basis Set:
  @DF-RHF Final Energy:  -305.97840693408318
    Total Energy =                       -305.9784069340829546
  Basis Set: CC-PVTZ
  Basis Set:
  Basis Set: CC-PVTZ
  Basis Set:
  @DF-RHF Final Energy:  -305.98295602208583
    Total Energy =                       -305.9829560220856592
  Basis Set: CC-PVTZ
  Basis Set:
  Basis Set: CC-PVTZ
  Basis Set:
  @DF-RHF Final Energy:  -305.98315378682253
    Total Energy =                       -305.9831537868227542
  Basis Set: CC-PVTZ
  Basis Set:
  @DF-RHF Final Energy:  -305.98329289426960
    Total Energy =                       -305.9832928942695958
  @DF-RHF Final Energy:  -305.98331604969383
    Total Energy =                       -305.9833160496938262
  @DF-RHF Final Energy:  -305.94583038225119
    Total Energy =                       -305.9458303822510743
  @DF-RHF Final Energy:  -305.88835983339311
    Total Energy =                       -305.8883598333931104
  @DF-RHF Final Energy:  -305.60883868994148
    Total Energy =                       -305.6088386899415354
  @DF-RHF Final Energy:  -305.36866401645045
    Total Energy =                       -305.3686640164503387
  @DF-RHF Final Energy:  -305.68023104902375
    Total Energy =                       -305.6802310490239165
  @DF-RHF Final Energy:  -305.50061988606336
    Total Energy =                       -305.5006198860633049
  @DF-RHF Final Energy:  -305.40585885745622
    Total Energy =                       -305.4058588574562236
  @DF-RHF Final Energy:  -305.69625148864395
    Total Energy =                       -305.6962514886440090
  @DF-RHF Final Energy:  -305.91830023059390
    Total Energy =                       -305.9183002305938430
  @DF-RHF Final Energy:  -305.97635813644399
    Total Energy =                       -305.9763581364439347
  @DF-RHF Final Energy:  -305.98235392424635
    Total Energy =                       -305.9823539242464676
  @DF-RHF Final Energy:  -305.98324220966242
    Total Energy =                       -305.9832422096627056
  @DF-RHF Final Energy:  -305.98330962501478
    Total Energy =                       -305.9833096250146127
  Basis Set: CC-PVTZ
  Basis Set:
  @DF-RHF Final Energy:  -305.98331913046826
    Total Energy =                       -305.9833191304683169
  Basis Set: CC-PVTZ
  Basis Set:
  Basis Set: CC-PVTZ
  Basis Set:
  @DF-RHF Final Energy:  -305.98331371539018
    Total Energy =                       -305.9833137153904090
  Basis Set: CC-PVTZ
  Basis Set:
  Basis Set: CC-PVTZ
  Basis Set:
  @DF-RHF Final Energy:  -305.98331936513858
    Total Energy =                       -305.9833193651385272
  Basis Set: CC-PVTZ
  Basis Set:
  Charge       = 0
  Multiplicity = 1
  Basis Set: CC-PVTZ
  Basis Set:

    Orbital Energies (a.u.)
    -----------------------

    Doubly Occupied:

       1A    -20.593187     2A    -20.536825     3A    -11.366046
       4A    -11.280935     5A    -11.238149     6A    -11.215448
       7A     -1.470541     8A     -1.367197     9A     -1.065106
      10A     -0.980269    11A     -0.881641    12A     -0.770166
      13A     -0.702428    14A     -0.683466    15A     -0.675837
      16A     -0.621732    17A     -0.605638    18A     -0.551568
      19A     -0.540133    20A     -0.521649    21A     -0.513441
      22A     -0.497909    23A     -0.460618    24A     -0.441423

  @DF-RHF Final Energy:  -305.98331954740502

   => Energetics <=

    Nuclear Repulsion Energy =            247.3548369351042027
    One-Electron Energy =                -907.5136050165621100
    Two-Electron Energy =                 354.1754485340528618
    DFT Exchange-Correlation Energy =       0.0000000000000000
    Empirical Dispersion Energy =           0.0000000000000000
    PCM Polarization Energy =               0.0000000000000000
    EFP Energy =                            0.0000000000000000
    Total Energy =                       -305.9833195474050171
    Molecular point group: c1
  Basis Set: CC-PVTZ
  Basis Set:

  -Total Gradient:
     Atom            X                  Y                   Z
    ------   -----------------  -----------------  -----------------
       1       -0.000023227449    -0.000071369576     0.000084239878
       2       -0.002354853288    -0.002082206390    -0.005107396018
       3        0.000845024109     0.002240895958     0.005541741257
       4        0.003963840395    -0.001694560401    -0.006464417820
       5        0.000016930508    -0.000181315399     0.000087461150
       6        0.000003045998    -0.000002964242     0.000001972939
       7        0.000001066082    -0.000012568653     0.000008495492
       8       -0.000030862051     0.000012336333    -0.000038421797
       9        0.000021316341     0.000003798618    -0.000015006753
      10       -0.000003363793    -0.000004366983    -0.000005312926
      11       -0.002490350543     0.001782239385     0.005905223005
      12        0.000015758357    -0.000007764327    -0.000016170191
      13       -0.000001418367    -0.000008457439    -0.000002841088
      14        0.000037093700     0.000026303115     0.000020432873

  **** Optimization is complete! (in 23 steps) ****
    Final optimized geometry and variables:
    Molecular point group: c1

    Geometry (in Angstrom), charge = 0, multiplicity = 1:

    O            1.160413210912    -0.555301630607     0.020782765144
    C            0.099827977953    -0.044530383886    -0.089623202111
    C           -1.206586416255    -0.659417814477     0.340541218676
    O           -0.065376971524     1.197862338474    -0.527943346208
    C           -1.118501297979    -2.152758786508     0.613012412999
    H           -1.503263102952    -0.116036617015     1.232567247071
    H           -1.955465038724    -0.431974210408    -0.408524163518
    H           -0.381671471252    -2.365817191658     1.374795689187
    H           -2.078019424548    -2.528004769314     0.947044162125
    H           -0.834800551259    -2.695012442830    -0.279978054615
    C            1.012135646891     2.095885609301    -0.351068598999
    H            1.307138068368     2.126626795304     0.688627385261
    H            0.649676101584     3.062668212662    -0.660422451940
    H            1.861846355882     1.808615272399    -0.951661309661

  Mulliken Charges: (a.u.)
   Center  Symbol    Alpha    Beta     Spin     Total
       1     O     4.19163  4.19163  0.00000 -0.38326
       2     C     2.80263  2.80263  0.00000  0.39474
       3     C     3.09254  3.09254  0.00000 -0.18507
       4     O     4.15168  4.15168  0.00000 -0.30336
       5     C     3.14107  3.14107  0.00000 -0.28214
       6     H     0.44514  0.44514  0.00000  0.10971
       7     H     0.43897  0.43897  0.00000  0.12207
       8     H     0.44561  0.44561  0.00000  0.10879
       9     H     0.45021  0.45021  0.00000  0.09957
      10     H     0.45033  0.45033  0.00000  0.09934
      11     C     3.03526  3.03526  0.00000 -0.07053
      12     H     0.46013  0.46013  0.00000  0.07974
      13     H     0.44554  0.44554  0.00000  0.10892
      14     H     0.44926  0.44926  0.00000  0.10148

   Total alpha = 24.00000, Total beta = 24.00000, Total charge =  0.00000

*** Psi4 exiting successfully. Buy a developer a beer!
