  ==> Input File <==

--------------------------------------------------------------------------
set {
	reference rhf
	basis 6-31G*
}

set_num_threads( 4 )
memory 2 gb

molecule MOL {
0 1

H	 -0.944757	 -0.000069	 1.678017
O	 -0.042387	 -0.000390	 1.388199
C	 -0.001487	 0.000018	 -0.026623
C	 1.116825	 -0.927042	 -0.506809
C	 -1.355899	 -0.449400	 -0.578199
C	 0.288898	 1.444991	 -0.416688
H	 1.202340	 -0.917129	 -1.588699
H	 0.926556	 -1.952990	 -0.199996
H	 2.066523	 -0.620358	 -0.082502
H	 -1.370489	 -0.422080	 -1.663155
H	 -1.579359	 -1.468377	 -0.270493
H	 -2.145001	 0.194507	 -0.205937
H	 0.341563	 1.553583	 -1.495196
H	 1.232634	 1.765698	 0.009925
H	 -0.490405	 2.098253	 -0.040751

	symmetry c1
}
set optking {
	frozen_dihedral = ("
		4 3 2 1
	")
}

ee = optimize('scf')
oeprop('DIPOLE', 'QUADRUPOLE', 'MULLIKEN_CHARGES')
f=open( 'psi4out.xyz', 'w' )
f.write( "15  " )
f.write( str(ee) + "\n" )
f.write( MOL.save_string_xyz() )
f.close()
--------------------------------------------------------------------------

    Molecular point group: c1
  Charge       = 0
  Multiplicity = 1
  Basis Set: 6-31G*
  Basis Set:
  @DF-RHF Final Energy:  -232.15011980567229
    Total Energy =                       -232.1501198056724888
    Molecular point group: c1
  Basis Set: 6-31G*
  Basis Set:
  Basis Set: 6-31G*
  Basis Set:
  @DF-RHF Final Energy:  -232.15125357757529
    Total Energy =                       -232.1512535775755168
  Basis Set: 6-31G*
  Basis Set:
  Basis Set: 6-31G*
  Basis Set:
  @DF-RHF Final Energy:  -232.15147884008979
    Total Energy =                       -232.1514788400900215
  Basis Set: 6-31G*
  Basis Set:
  Basis Set: 6-31G*
  Basis Set:
  @DF-RHF Final Energy:  -232.15148155878879
    Total Energy =                       -232.1514815587889871
  Basis Set: 6-31G*
  Basis Set:
  Basis Set: 6-31G*
  Basis Set:
  @DF-RHF Final Energy:  -232.15148878152257
    Total Energy =                       -232.1514887815226871
  Basis Set: 6-31G*
  Basis Set:
  Charge       = 0
  Multiplicity = 1
  Basis Set: 6-31G*
  Basis Set:

    Orbital Energies (a.u.)
    -----------------------

    Doubly Occupied:

       1A    -20.547195     2A    -11.281997     3A    -11.217678
       4A    -11.205455     5A    -11.204519     6A     -1.358606
       7A     -1.063680     8A     -0.944836     9A     -0.936157
      10A     -0.775637    11A     -0.669327    12A     -0.622606
      13A     -0.621193    14A     -0.575020    15A     -0.556591
      16A     -0.532745    17A     -0.516788    18A     -0.508713
      19A     -0.502092    20A     -0.456350    21A     -0.423463

  @DF-RHF Final Energy:  -232.15148877483500

   => Energetics <=

    Nuclear Repulsion Energy =            200.2701386215454704
    One-Electron Energy =                -711.8019502454455960
    Two-Electron Energy =                 279.3803228490651236
    DFT Exchange-Correlation Energy =       0.0000000000000000
    Empirical Dispersion Energy =           0.0000000000000000
    PCM Polarization Energy =               0.0000000000000000
    EFP Energy =                            0.0000000000000000
    Total Energy =                       -232.1514887748350020
    Molecular point group: c1
  Basis Set: 6-31G*
  Basis Set:

  -Total Gradient:
     Atom            X                  Y                   Z
    ------   -----------------  -----------------  -----------------
       1       -0.000033177068    -0.001975548559    -0.000102682400
       2       -0.000194957125     0.002164721704     0.000089152190
       3        0.001011298826     0.000717931581     0.000033498411
       4       -0.000766561829    -0.000911979239    -0.000034537189
       5       -0.000011542914     0.000017561429     0.000010773339
       6       -0.000005958111     0.000005558031    -0.000003063592
       7       -0.000003015012     0.000010349245     0.000016262183
       8       -0.000006733935    -0.000003830913    -0.000005408058
       9        0.000016088441    -0.000013124441     0.000002848708
      10       -0.000000625933     0.000004594182     0.000003260089
      11        0.000009862165    -0.000006125090    -0.000008519454
      12       -0.000007933420    -0.000011194248     0.000007257719
      13       -0.000004234761     0.000005003604    -0.000005358171
      14       -0.000006300417    -0.000012797575    -0.000004087406
      15        0.000003791094     0.000008880291     0.000000603626

  **** Optimization is complete! (in 6 steps) ****
    Final optimized geometry and variables:
    Molecular point group: c1

    Geometry (in Angstrom), charge = 0, multiplicity = 1:

    H           -0.893618852141    -0.068679363323     1.714345549546
    O           -0.004518663038    -0.065627733689     1.391179666720
    C            0.003065517621     0.005916709842    -0.025876291116
    C            1.114037535999    -0.930619147676    -0.492767276058
    C           -1.347514997759    -0.452412371590    -0.578505415581
    C            0.293771098942     1.449759247303    -0.434836094239
    H            1.222657256643    -0.903687796816    -1.572622831258
    H            0.898515863414    -1.949429052061    -0.190413205302
    H            2.058558109104    -0.640766956797    -0.045596581045
    H           -1.354560704005    -0.432709718984    -1.662844853346
    H           -1.566900878662    -1.466135166845    -0.257105380652
    H           -2.148464513133     0.197344899553    -0.232569763013
    H            0.349335454598     1.554036480415    -1.514362595922
    H            1.236283798396     1.774140784717    -0.008188996221
    H           -0.484497674463     2.112480772008    -0.068588350106

  Mulliken Charges: (a.u.)
   Center  Symbol    Alpha    Beta     Spin     Total
       1     H     0.28046  0.28046  0.00000  0.43907
       2     O     4.38202  4.38202  0.00000 -0.76405
       3     C     2.84627  2.84627  0.00000  0.30747
       4     C     3.23216  3.23216  0.00000 -0.46431
       5     C     3.25795  3.25795  0.00000 -0.51589
       6     C     3.23236  3.23236  0.00000 -0.46472
       7     H     0.42535  0.42535  0.00000  0.14931
       8     H     0.41718  0.41718  0.00000  0.16565
       9     H     0.41294  0.41294  0.00000  0.17412
      10     H     0.41510  0.41510  0.00000  0.16980
      11     H     0.41450  0.41450  0.00000  0.17101
      12     H     0.42227  0.42227  0.00000  0.15546
      13     H     0.42541  0.42541  0.00000  0.14918
      14     H     0.41307  0.41307  0.00000  0.17385
      15     H     0.42297  0.42297  0.00000  0.15406

   Total alpha = 21.00000, Total beta = 21.00000, Total charge = -0.00000
