  ==> Input File <==

--------------------------------------------------------------------------
set {
	reference rhf
	basis cc-pvtz
}

set_num_threads( 4 )
memory 2 gb

molecule MOL {
0 1

H	 0.114217	 1.946906	 -1.486780
C	 0.451463	 1.950783	 -0.441838
C	 0.692262	 0.592428	 0.156232
O	 0.595771	 2.975875	 0.129122
C	 -0.554654	 -0.292621	 0.086567
H	 1.027448	 0.721597	 1.176919
H	 1.497514	 0.126494	 -0.407995
C	 -1.846385	 0.513195	 -0.016346
H	 -0.473986	 -0.956115	 -0.769708
H	 -0.597929	 -0.929215	 0.966651
C	 -3.089953	 -0.365049	 -0.098564
H	 -1.798267	 1.154820	 -0.891143
H	 -1.925398	 1.173265	 0.842889
H	 -3.055079	 -1.012299	 -0.968245
H	 -3.988403	 0.236438	 -0.170014
H	 -3.183055	 -0.995885	 0.779079

	symmetry c1
}
set optking {
	frozen_dihedral = ("
		6 3 5 9
	")
}

ee = optimize('scf')
oeprop('DIPOLE', 'QUADRUPOLE', 'MULLIKEN_CHARGES')
f=open( 'psi4out.xyz', 'w' )
f.write( "16  " )
f.write( str(ee) + "\n" )
f.write( MOL.save_string_xyz() )
f.close()
--------------------------------------------------------------------------

    Molecular point group: c1
  Charge       = 0
  Multiplicity = 1
  Basis Set: CC-PVTZ
  Basis Set:
  @DF-RHF Final Energy:  -270.11054747491966
    Total Energy =                       -270.1105474749195992
    Molecular point group: c1
  Basis Set: CC-PVTZ
  Basis Set:
  Basis Set: CC-PVTZ
  Basis Set:
  @DF-RHF Final Energy:  -270.11302407376274
    Total Energy =                       -270.1130240737625172
  Basis Set: CC-PVTZ
  Basis Set:
  Basis Set: CC-PVTZ
  Basis Set:
  @DF-RHF Final Energy:  -270.11330071941904
    Total Energy =                       -270.1133007194188167
  Basis Set: CC-PVTZ
  Basis Set:
  Basis Set: CC-PVTZ
  Basis Set:
  @DF-RHF Final Energy:  -270.11309800998072
    Total Energy =                       -270.1130980099806038
  Basis Set: CC-PVTZ
  Basis Set:
  @DF-RHF Final Energy:  -270.11334374128455
    Total Energy =                       -270.1133437412846092
  Basis Set: CC-PVTZ
  Basis Set:
  @DF-RHF Final Energy:  -270.11336476435861
    Total Energy =                       -270.1133647643587778
  Basis Set: CC-PVTZ
  Basis Set:
  Basis Set: CC-PVTZ
  Basis Set:
  @DF-RHF Final Energy:  -270.11337584784462
    Total Energy =                       -270.1133758478446225
  Basis Set: CC-PVTZ
  Basis Set:
  Basis Set: CC-PVTZ
  Basis Set:
  @DF-RHF Final Energy:  -270.11337795904001
    Total Energy =                       -270.1133779590402355
  Basis Set: CC-PVTZ
  Basis Set:
  Charge       = 0
  Multiplicity = 1
  Basis Set: CC-PVTZ
  Basis Set:

    Orbital Energies (a.u.)
    -----------------------

    Doubly Occupied:

       1A    -20.550939     2A    -11.321161     3A    -11.234323
       4A    -11.233755     5A    -11.226565     6A    -11.216194
       7A     -1.405870     8A     -1.094883     9A     -1.017574
      10A     -0.906519    11A     -0.830697    12A     -0.778925
      13A     -0.673015    14A     -0.649576    15A     -0.627919
      16A     -0.606565    17A     -0.587337    18A     -0.556755
      19A     -0.526060    20A     -0.512665    21A     -0.494072
      22A     -0.476887    23A     -0.469474    24A     -0.411425

  @DF-RHF Final Energy:  -270.11337810185734

   => Energetics <=

    Nuclear Repulsion Energy =            234.1663551404611212
    One-Electron Energy =                -829.7411619248067609
    Two-Electron Energy =                 325.4614286824887017
    DFT Exchange-Correlation Energy =       0.0000000000000000
    Empirical Dispersion Energy =           0.0000000000000000
    PCM Polarization Energy =               0.0000000000000000
    EFP Energy =                            0.0000000000000000
    Total Energy =                       -270.1133781018568811
    Molecular point group: c1
  Basis Set: CC-PVTZ
  Basis Set:

  -Total Gradient:
     Atom            X                  Y                   Z
    ------   -----------------  -----------------  -----------------
       1        0.000000244985    -0.000005294688    -0.000003304778
       2       -0.000016988382     0.000016944623     0.000013091327
       3       -0.003643510120     0.005067005005     0.001377575039
       4        0.000002239828    -0.000003205514    -0.000005980936
       5       -0.002122098424     0.003816766427    -0.004324721712
       6        0.003382888577    -0.004855327541    -0.000432320830
       7       -0.000010713051     0.000024324030    -0.000036626657
       8        0.000011796584     0.000027181420    -0.000017833255
       9        0.002429589991    -0.004106603386     0.003400576889
      10       -0.000029520680     0.000031902092     0.000019605834
      11       -0.000000728990    -0.000004135558     0.000003759577
      12       -0.000000814430    -0.000005166188     0.000001516789
      13        0.000000341572    -0.000005152176     0.000004513662
      14        0.000002025228     0.000000642384     0.000000365372
      15       -0.000002910237     0.000003923765     0.000000095116
      16       -0.000001842452    -0.000003804691    -0.000000311436

  **** Optimization is complete! (in 9 steps) ****
    Final optimized geometry and variables:
    Molecular point group: c1

    Geometry (in Angstrom), charge = 0, multiplicity = 1:

    H            0.982680112502     1.070785965057    -1.495032688010
    C            1.204537239954     1.069550602471    -0.420424192798
    C            1.284025210029    -0.289070941386     0.216215931468
    O            1.382147498362     2.091839086260     0.146654613885
    C            0.020268149130    -1.162370444130     0.053367814732
    H            1.562583661645    -0.188263093292     1.256107793554
    H            2.115706972977    -0.797549018155    -0.267555748901
    C           -1.305954932925    -0.406275265485     0.009959078661
    H            0.125506293076    -1.812578274642    -0.808854369983
    H           -0.002990329624    -1.840648456964     0.900352292167
    C           -2.509070919380    -1.342458180251    -0.015257379479
    H           -1.342133174865     0.238828284856    -0.862370692344
    H           -1.373035777870     0.247885071064     0.874173339238
    H           -2.480867667265    -1.992899369286    -0.883105532179
    H           -3.436934691866    -0.784191144793    -0.050231762879
    H           -2.533556090226    -1.971396591607     0.868119538714

  Mulliken Charges: (a.u.)
   Center  Symbol    Alpha    Beta     Spin     Total
       1     H     0.46220  0.46220  0.00000  0.07561
       2     C     2.90281  2.90281  0.00000  0.19438
       3     C     3.09037  3.09037  0.00000 -0.18074
       4     O     4.16806  4.16806  0.00000 -0.33612
       5     C     3.10397  3.10397  0.00000 -0.20795
       6     H     0.44074  0.44074  0.00000  0.11851
       7     H     0.44574  0.44574  0.00000  0.10852
       8     C     3.09016  3.09016  0.00000 -0.18032
       9     H     0.44776  0.44776  0.00000  0.10449
      10     H     0.44745  0.44745  0.00000  0.10510
      11     C     3.15088  3.15088  0.00000 -0.30177
      12     H     0.45257  0.45257  0.00000  0.09487
      13     H     0.44330  0.44330  0.00000  0.11339
      14     H     0.45491  0.45491  0.00000  0.09018
      15     H     0.44560  0.44560  0.00000  0.10879
      16     H     0.45347  0.45347  0.00000  0.09306

   Total alpha = 24.00000, Total beta = 24.00000, Total charge = -0.00000
