  ==> Input File <==

--------------------------------------------------------------------------
set {
	reference rhf
	basis cc-pvtz
}

set_num_threads( 4 )
memory 2 gb

molecule MOL {
0 1

H	 -4.305000	 0.524000	 0.036000
O	 -3.586000	 -0.040000	 -0.209000
C	 -2.376000	 0.519000	 0.233000
C	 -1.246000	 -0.410000	 -0.176000
H	 -2.225000	 1.504000	 -0.206000
H	 -2.384000	 0.642000	 1.315000
C	 0.130000	 0.098000	 0.257000
H	 -1.278000	 -0.532000	 -1.256000
H	 -1.437000	 -1.390000	 0.254000
C	 1.263000	 -0.841000	 -0.164000
H	 0.293000	 1.087000	 -0.163000
H	 0.149000	 0.218000	 1.340000
C	 2.655000	 -0.424000	 0.325000
H	 1.275000	 -0.927000	 -1.249000
H	 1.048000	 -1.837000	 0.216000
C	 3.175000	 0.882000	 -0.277000
H	 3.356000	 -1.221000	 0.087000
H	 2.646000	 -0.344000	 1.410000
H	 3.183000	 0.836000	 -1.363000
H	 2.569000	 1.734000	 0.013000
H	 4.191000	 1.080000	 0.051000

	symmetry c1
}
ee = optimize('scf')
oeprop('DIPOLE', 'QUADRUPOLE', 'MULLIKEN_CHARGES')
f=open( 'psi4out.xyz', 'w' )
f.write( "21  " )
f.write( str(ee) + "\n" )
f.write( MOL.save_string_xyz() )
f.close()
--------------------------------------------------------------------------

    Molecular point group: c1
  Charge       = 0
  Multiplicity = 1
  Basis Set: CC-PVTZ
  Basis Set:
  @DF-RHF Final Energy:  -310.33293697892003
    Total Energy =                       -310.3329369789202588
    Molecular point group: c1
  Basis Set: CC-PVTZ
  Basis Set:
  Basis Set: CC-PVTZ
  Basis Set:
  @DF-RHF Final Energy:  -310.33305511138258
    Total Energy =                       -310.3330551113829756
  Basis Set: CC-PVTZ
  Basis Set:
  Basis Set: CC-PVTZ
  Basis Set:
  @DF-RHF Final Energy:  -310.33302406865306
    Total Energy =                       -310.3330240686526054
  Basis Set: CC-PVTZ
  Basis Set:
  Basis Set: CC-PVTZ
  Basis Set:
  @DF-RHF Final Energy:  -310.33305836355021
    Total Energy =                       -310.3330583635500943
  Basis Set: CC-PVTZ
  Basis Set:
  Charge       = 0
  Multiplicity = 1
  Basis Set: CC-PVTZ
  Basis Set:

    Orbital Energies (a.u.)
    -----------------------

    Doubly Occupied:

       1A    -20.545387     2A    -11.264977     3A    -11.213192
       4A    -11.213088     5A    -11.211291     6A    -11.208962
       7A    -11.206103     8A     -1.363218     9A     -1.087410
      10A     -1.034438    11A     -0.955522    12A     -0.876437
      13A     -0.807583    14A     -0.779301    15A     -0.696181
      16A     -0.662871    17A     -0.623051    18A     -0.608266
      19A     -0.588599    20A     -0.571109    21A     -0.537570
      22A     -0.520819    23A     -0.511881    24A     -0.487578
      25A     -0.480147    26A     -0.460837    27A     -0.456136
      28A     -0.444251    29A     -0.437379

  @DF-RHF Final Energy:  -310.33305829715584

   => Energetics <=

    Nuclear Repulsion Energy =            312.9220775169684430
    One-Electron Energy =               -1040.8031223390830746
    Two-Electron Energy =                 417.5479865249586169
    DFT Exchange-Correlation Energy =       0.0000000000000000
    Empirical Dispersion Energy =           0.0000000000000000
    PCM Polarization Energy =               0.0000000000000000
    EFP Energy =                            0.0000000000000000
    Total Energy =                       -310.3330582971560148
    Molecular point group: c1
  Basis Set: CC-PVTZ
  Basis Set:

  -Total Gradient:
     Atom            X                  Y                   Z
    ------   -----------------  -----------------  -----------------
       1       -0.000024604208     0.000038521916     0.000018447569
       2        0.000034828310    -0.000065320790    -0.000031286911
       3       -0.000001857000     0.000042991262     0.000003377890
       4       -0.000038395007     0.000002088786    -0.000023833498
       5        0.000003209138     0.000010971086     0.000006094504
       6       -0.000000388848    -0.000001168307     0.000000981558
       7       -0.000017582272     0.000005039532     0.000038306339
       8       -0.000005025630    -0.000025064587    -0.000022910781
       9       -0.000006490879    -0.000009081001     0.000006797970
      10        0.000016934491    -0.000003190705    -0.000006895723
      11        0.000013019275     0.000024638237     0.000014087020
      12       -0.000000713495     0.000008276307     0.000029289127
      13        0.000013936332    -0.000013392974    -0.000021380834
      14       -0.000000544982    -0.000021540045    -0.000018459984
      15        0.000017609344    -0.000007930265     0.000006293128
      16       -0.000002357928     0.000013166262    -0.000001099133
      17        0.000003866148    -0.000022856795     0.000003628417
      18       -0.000002947587    -0.000005133521     0.000012485687
      19        0.000006116971     0.000005935340    -0.000016373690
      20       -0.000015250901     0.000018933178    -0.000000463199
      21        0.000006638728     0.000004117084     0.000002914546

  **** Optimization is complete! (in 5 steps) ****
    Final optimized geometry and variables:
    Molecular point group: c1

    Geometry (in Angstrom), charge = 0, multiplicity = 1:

    H           -4.230258414863     0.539111557476     0.036359569551
    O           -3.515113122319    -0.019339199545    -0.206321061144
    C           -2.302263884427     0.528871868324     0.237390259512
    C           -1.175687351832    -0.398187783137    -0.171891418242
    H           -2.148017613061     1.514076013795    -0.197759049535
    H           -2.310726662164     0.646383536784     1.319032065727
    C            0.196028864040     0.106275646975     0.266738056960
    H           -1.201872937727    -0.515469653450    -1.250676450312
    H           -1.365974459710    -1.378728132545     0.252664195819
    C            1.330220586165    -0.826136492929    -0.155230385317
    H            0.359542598133     1.097228245228    -0.145561184999
    H            0.212134182560     0.218134938280     1.348778144514
    C            2.719700365737    -0.407669629873     0.328325523138
    H            1.339387897372    -0.911200181466    -1.239363440984
    H            1.119001172758    -1.821953766132     0.224127719486
    C            3.241564053330     0.893451659171    -0.276737188244
    H            3.418299398246    -1.204729436474     0.093034622410
    H            2.711776718153    -0.323368046124     1.411960050783
    H            3.254204614091     0.841070658960    -1.360783918267
    H            2.634460049832     1.745074553318     0.005842124671
    H            4.254264194496     1.092400197621     0.054970824179

  Mulliken Charges: (a.u.)
   Center  Symbol    Alpha    Beta     Spin     Total
       1     H     0.39762  0.39762  0.00000  0.20477
       2     O     4.19426  4.19426  0.00000 -0.38852
       3     C     2.96327  2.96327  0.00000  0.07346
       4     C     3.08382  3.08382  0.00000 -0.16765
       5     H     0.47499  0.47499  0.00000  0.05002
       6     H     0.47495  0.47495  0.00000  0.05011
       7     C     3.10324  3.10324  0.00000 -0.20647
       8     H     0.45095  0.45095  0.00000  0.09809
       9     H     0.45054  0.45054  0.00000  0.09892
      10     C     3.09426  3.09426  0.00000 -0.18851
      11     H     0.45360  0.45360  0.00000  0.09279
      12     H     0.45549  0.45549  0.00000  0.08902
      13     C     3.08986  3.08986  0.00000 -0.17971
      14     H     0.45315  0.45315  0.00000  0.09370
      15     H     0.44882  0.44882  0.00000  0.10237
      16     C     3.15236  3.15236  0.00000 -0.30472
      17     H     0.44844  0.44844  0.00000  0.10312
      18     H     0.45501  0.45501  0.00000  0.08999
      19     H     0.45464  0.45464  0.00000  0.09073
      20     H     0.45427  0.45427  0.00000  0.09147
      21     H     0.44648  0.44648  0.00000  0.10703

   Total alpha = 29.00000, Total beta = 29.00000, Total charge =  0.00000
