  ==> Input File <==

--------------------------------------------------------------------------
set {
	reference rhf
	basis 6-31G*
}

set_num_threads( 1 )
memory 2 gb

molecule MOL {
0 1

H	 -2.714360	 -1.473431	 0.298842
O	 -2.310168	 -0.871793	 -0.309793
C	 -2.026376	 0.340750	 0.341611
C	 -0.673256	 0.843270	 -0.132153
H	 -2.792215	 1.080697	 0.115987
H	 -2.013526	 0.200402	 1.421792
C	 0.486613	 -0.083066	 0.235839
H	 -0.715586	 0.970948	 -1.210718
H	 -0.508072	 1.829858	 0.297090
C	 1.840406	 0.433480	 -0.254303
H	 0.300215	 -1.068318	 -0.178947
H	 0.519509	 -0.203625	 1.318070
C	 3.000220	 -0.489290	 0.118523
H	 1.809207	 0.553576	 -1.335192
H	 2.021860	 1.424500	 0.157276
H	 2.864959	 -1.479103	 -0.307933
H	 3.946603	 -0.099227	 -0.243630
H	 3.080049	 -0.602997	 1.196117

	symmetry c1
}
set optking {
	frozen_dihedral = ("
		14 10 7 11,
		10 7 4 8,
		2 3 4 8
	")
}

ee = energy('scf')
oeprop('DIPOLE', 'QUADRUPOLE', 'MULLIKEN_CHARGES')
f=open( 'psi4out.xyz', 'w' )
f.write( "18  " )
f.write( str(ee) + "\n" )
f.write( MOL.save_string_xyz() )
f.close()
--------------------------------------------------------------------------

    Molecular point group: c1

    Geometry (in Angstrom), charge = 0, multiplicity = 1:

       Center              X                  Y                   Z               Mass
    ------------   -----------------  -----------------  -----------------  -----------------
           H         -2.719177429438    -1.470475134961     0.295438526309     1.007825032070
           O         -2.314985429438    -0.868837134961    -0.313196473691    15.994914619560
           C         -2.031193429438     0.343705865039     0.338207526309    12.000000000000
           C         -0.678073429438     0.846225865039    -0.135556473691    12.000000000000
           H         -2.797032429438     1.083652865039     0.112583526309     1.007825032070
           H         -2.018343429438     0.203357865039     1.418388526309     1.007825032070
           C          0.481795570562    -0.080110134961     0.232435526309    12.000000000000
           H         -0.720403429438     0.973903865039    -1.214121473691     1.007825032070
           H         -0.512889429438     1.832813865039     0.293686526309     1.007825032070
           C          1.835588570562     0.436435865039    -0.257706473691    12.000000000000
           H          0.295397570562    -1.065362134961    -0.182350473691     1.007825032070
           H          0.514691570562    -0.200669134961     1.314666526309     1.007825032070
           C          2.995402570562    -0.486334134961     0.115119526309    12.000000000000
           H          1.804389570562     0.556531865039    -1.338595473691     1.007825032070
           H          2.017042570562     1.427455865039     0.153872526309     1.007825032070
           H          2.860141570562    -1.476147134961    -0.311336473691     1.007825032070
           H          3.941785570562    -0.096271134961    -0.247033473691     1.007825032070
           H          3.075231570562    -0.600041134961     1.192713526309     1.007825032070

  Charge       = 0
  Multiplicity = 1
  Basis Set: 6-31G*
  Basis Set:

    Orbital Energies (a.u.)
    -----------------------

    Doubly Occupied:

       1A    -20.552980     2A    -11.268360     3A    -11.211876
       4A    -11.210864     5A    -11.207989     6A    -11.205750
       7A     -1.360198     8A     -1.075418     9A     -1.009041
      10A     -0.914525    11A     -0.819019    12A     -0.784405
      13A     -0.706720    14A     -0.633598    15A     -0.632447
      16A     -0.580208    17A     -0.569957    18A     -0.564487
      19A     -0.523842    20A     -0.497113    21A     -0.481040
      22A     -0.472695    23A     -0.459917    24A     -0.458313
      25A     -0.423013

  @DF-RHF Final Energy:  -271.17855533732086

   => Energetics <=

    Nuclear Repulsion Energy =            249.2751622151984066
    One-Electron Energy =                -861.6599155400298287
    Two-Electron Energy =                 341.2061979875110183
    DFT Exchange-Correlation Energy =       0.0000000000000000
    Empirical Dispersion Energy =           0.0000000000000000
    PCM Polarization Energy =               0.0000000000000000
    EFP Energy =                            0.0000000000000000
    Total Energy =                       -271.1785553373204039

  Mulliken Charges: (a.u.)
   Center  Symbol    Alpha    Beta     Spin     Total
       1     H     0.27955  0.27955  0.00000  0.44089
       2     O     4.36985  4.36985  0.00000 -0.73970
       3     C     2.99950  2.99950  0.00000  0.00100
       4     C     3.15799  3.15799  0.00000 -0.31599
       5     H     0.42448  0.42448  0.00000  0.15103
       6     H     0.43295  0.43295  0.00000  0.13410
       7     C     3.15383  3.15383  0.00000 -0.30766
       8     H     0.41487  0.41487  0.00000  0.17027
       9     H     0.42557  0.42557  0.00000  0.14885
      10     C     3.15144  3.15144  0.00000 -0.30288
      11     H     0.41058  0.41058  0.00000  0.17884
      12     H     0.42943  0.42943  0.00000  0.14114
      13     C     3.23898  3.23898  0.00000 -0.47796
      14     H     0.42195  0.42195  0.00000  0.15609
      15     H     0.42486  0.42486  0.00000  0.15028
      16     H     0.42121  0.42121  0.00000  0.15758
      17     H     0.42000  0.42000  0.00000  0.16000
      18     H     0.42295  0.42295  0.00000  0.15411

   Total alpha = 25.00000, Total beta = 25.00000, Total charge =  0.00000
