                              Psi4 1.0.54 Driver

  ==> Input File <==

--------------------------------------------------------------------------
set {
	reference rhf
	basis cc-pvtz
}

set_num_threads( 4 )
memory 2 gb

molecule MOL {
0 1

H	 -0.000105	 1.988529	 0.748933
O	 -0.000098	 1.879786	 -0.188206
C	 -0.000014	 0.545691	 -0.532416
C	 -1.286000	 -0.125171	 -0.046657
C	 1.286016	 -0.125031	 -0.046584
H	 0.000021	 0.481103	 -1.610604
F	 -0.994817	 -0.990396	 0.893267
F	 -2.139394	 0.734876	 0.449075
F	 -1.882081	 -0.779238	 -1.020443
F	 2.317750	 0.468717	 -0.594166
F	 1.336617	 -1.393765	 -0.365123
F	 1.414467	 -0.024806	 1.259108

	symmetry c1
}
set optking {
	frozen_dihedral = ("
		7 4 3 6
	")
}

ee,wfn = optimize('scf', return_wfn=True)
oeprop( wfn, 'DIPOLE', 'QUADRUPOLE', 'MULLIKEN_CHARGES')
f=open( 'psi4out.xyz', 'w' )
f.write( "12  " )
f.write( str(ee) + "\n" )
f.write( MOL.save_string_xyz() )
f.close()
--------------------------------------------------------------------------

    Molecular point group: c1
  Charge       = 0
  Multiplicity = 1
  Basis Set: CC-PVTZ
  Basis Set:
  @DF-RHF Final Energy:  -786.58185889835102
    Total Energy =                       -786.5818588983513564
    Molecular point group: c1
  Basis Set: CC-PVTZ
  Basis Set:
  Basis Set: CC-PVTZ
  Basis Set:
  @DF-RHF Final Energy:  -786.51646147574115
    Total Energy =                       -786.5164614757418349
  Basis Set: CC-PVTZ
  Basis Set:
  Basis Set: CC-PVTZ
  Basis Set:
  @DF-RHF Final Energy:  -786.57875912079555
    Total Energy =                       -786.5787591207956666
  Basis Set: CC-PVTZ
  Basis Set:
  Basis Set: CC-PVTZ
  Basis Set:
  @DF-RHF Final Energy:  -786.58375746194508
    Total Energy =                       -786.5837574619444013
  Basis Set: CC-PVTZ
  Basis Set:
  Basis Set: CC-PVTZ
  Basis Set:
  @DF-RHF Final Energy:  -786.58393626583779
    Total Energy =                       -786.5839362658382470
  Basis Set: CC-PVTZ
  Basis Set:
  Basis Set: CC-PVTZ
  Basis Set:
  @DF-RHF Final Energy:  -786.58397726830037
    Total Energy =                       -786.5839772683004867
  Basis Set: CC-PVTZ
  Basis Set:
  Basis Set: CC-PVTZ
  Basis Set:
  @DF-RHF Final Energy:  -786.58398453278937
    Total Energy =                       -786.5839845327891453
  Basis Set: CC-PVTZ
  Basis Set:
  Charge       = 0
  Multiplicity = 1
  Basis Set: CC-PVTZ
  Basis Set:

    Orbital Energies (a.u.)
    -----------------------

    Doubly Occupied:

       1A    -26.357559     2A    -26.357276     3A    -26.356590
       4A    -26.355551     5A    -26.354280     6A    -26.352506
       7A    -20.609819     8A    -11.521309     9A    -11.517690
      10A    -11.351686    11A     -1.771587    12A     -1.765434
      13A     -1.665513    14A     -1.664335    15A     -1.662520
      16A     -1.659201    17A     -1.439681    18A     -1.101056
      19A     -1.000244    20A     -0.943982    21A     -0.871679
      22A     -0.865929    23A     -0.857533    24A     -0.853230
      25A     -0.840957    26A     -0.819420    27A     -0.740049
      28A     -0.737215    29A     -0.734919    30A     -0.729783
      31A     -0.694679    32A     -0.691071    33A     -0.689595
      34A     -0.683724    35A     -0.674800    36A     -0.668303
      37A     -0.662451    38A     -0.655380    39A     -0.622782
      40A     -0.551467    41A     -0.509435

  @DF-RHF Final Energy:  -786.58398502678540

   => Energetics <=

    Nuclear Repulsion Energy =            670.0515677973543234
    One-Electron Energy =               -2427.3466695664264989
    Two-Electron Energy =                 970.7111167422865492
    DFT Exchange-Correlation Energy =       0.0000000000000000
    Empirical Dispersion Energy =           0.0000000000000000
    PCM Polarization Energy =               0.0000000000000000
    EFP Energy =                            0.0000000000000000
    Total Energy =                       -786.5839850267855127
    Molecular point group: c1
  Basis Set: CC-PVTZ
  Basis Set:

  -Total Gradient:
     Atom            X                  Y                   Z
    ------   -----------------  -----------------  -----------------
       1        0.000003660278     0.000019053439     0.000003697314
       2       -0.000002804461    -0.000037676407     0.000031759603
       3       -0.001771231919     0.002108167282    -0.000663377508
       4        0.000390803369     0.002016730856     0.001849837378
       5       -0.000025341774     0.000012217970     0.000056991527
       6        0.001371685314    -0.002256009413     0.000114008922
       7       -0.000040206053    -0.001902067195    -0.001212259047
       8        0.000062169662     0.000082975614    -0.000050431224
       9        0.000002405404    -0.000031938058    -0.000119374157
      10        0.000000601563    -0.000000854833    -0.000004269699
      11       -0.000005233525     0.000003156075     0.000002426869
      12        0.000013492144    -0.000013755325    -0.000009009973

  **** Optimization is complete! (in 8 steps) ****
    Final optimized geometry and variables:
    Molecular point group: c1

    Geometry (in Angstrom), charge = 0, multiplicity = 1:

    H            0.171294552084     2.148082351385     0.347418048909
    O           -0.066850434060     1.858047590886    -0.517467143355
    C           -0.164593822294     0.488701978462    -0.585112272515
    C           -1.235125146397    -0.093482116093     0.375060460323
    C            1.210824484145    -0.152641791040    -0.405219960000
    H           -0.475848278975     0.228539299534    -1.584764672129
    F           -0.722717111607    -0.795229685971     1.359347030862
    F           -1.953901787602     0.863159607508     0.904830196137
    F           -2.044351984699    -0.888401991175    -0.288091250022
    F            2.010983874621     0.253515229919    -1.360101899561
    F            1.142707631158    -1.460483436727    -0.467579982974
    F            1.759029054470     0.183839642759     0.741519797771

  Mulliken Charges: (a.u.)
   Center  Symbol    Alpha    Beta     Spin     Total
       1     H     0.38345  0.38345  0.00000  0.23310
       2     O     4.18263  4.18263  0.00000 -0.36526
       3     C     3.01893  3.01893  0.00000 -0.03787
       4     C     2.67553  2.67553  0.00000  0.64893
       5     C     2.67901  2.67901  0.00000  0.64198
       6     H     0.42865  0.42865  0.00000  0.14270
       7     F     4.60376  4.60376  0.00000 -0.20752
       8     F     4.60242  4.60242  0.00000 -0.20483
       9     F     4.60646  4.60646  0.00000 -0.21292
      10     F     4.60204  4.60204  0.00000 -0.20408
      11     F     4.60592  4.60592  0.00000 -0.21184
      12     F     4.61120  4.61120  0.00000 -0.22240

   Total alpha = 41.00000, Total beta = 41.00000, Total charge =  0.00000

*** Psi4 exiting successfully. Buy a developer a beer!
