                              Psi4 1.0.54 Driver

  ==> Input File <==

--------------------------------------------------------------------------
set {
	reference rhf
	basis cc-pvtz
}

set_num_threads( 4 )
memory 2 gb

molecule MOL {
0 1

H	 3.721907	 -0.933076	 -0.066039
O	 2.824271	 -1.154299	 0.131461
C	 2.076458	 -0.067370	 -0.038225
C	 0.626018	 -0.337582	 0.258241
O	 2.538288	 0.965419	 -0.381593
C	 -0.267326	 0.883135	 0.076490
H	 0.325620	 -1.161483	 -0.378003
H	 0.574537	 -0.713685	 1.275261
C	 -1.726822	 0.642622	 0.463839
H	 -0.210803	 1.217591	 -0.953497
H	 0.129920	 1.693110	 0.675679
C	 -2.480891	 -0.340606	 -0.429852
H	 -2.243098	 1.597649	 0.438609
H	 -1.776542	 0.301208	 1.495542
C	 -3.716961	 0.278287	 -1.074504
H	 -1.811989	 -0.701097	 -1.206801
H	 -2.782445	 -1.212011	 0.142577
H	 -4.231756	 -0.438187	 -1.704054
H	 -3.451318	 1.130298	 -1.691116
H	 -4.419362	 0.622278	 -0.322535

	symmetry c1
}
set optking {
	frozen_dihedral = ("
		16 12 9 6
	")
}

ee,wfn = optimize('scf', return_wfn=True)
oeprop( wfn, 'DIPOLE', 'QUADRUPOLE', 'MULLIKEN_CHARGES')
f=open( 'psi4out.xyz', 'w' )
f.write( "20  " )
f.write( str(ee) + "\n" )
f.write( MOL.save_string_xyz() )
f.close()
--------------------------------------------------------------------------

    Molecular point group: c1
  Charge       = 0
  Multiplicity = 1
  Basis Set: CC-PVTZ
  Basis Set:
  @DF-RHF Final Energy:  -384.08947692494399
    Total Energy =                       -384.0894769249450746
    Molecular point group: c1
  Basis Set: CC-PVTZ
  Basis Set:
  Basis Set: CC-PVTZ
  Basis Set:
  @DF-RHF Final Energy:  -384.08972361764586
    Total Energy =                       -384.0897236176462002
  Basis Set: CC-PVTZ
  Basis Set:
  Basis Set: CC-PVTZ
  Basis Set:
  @DF-RHF Final Energy:  -384.08983666057435
    Total Energy =                       -384.0898366605746332
  Basis Set: CC-PVTZ
  Basis Set:
  Basis Set: CC-PVTZ
  Basis Set:
  @DF-RHF Final Energy:  -384.08985556534714
    Total Energy =                       -384.0898555653470225
  Basis Set: CC-PVTZ
  Basis Set:
  Basis Set: CC-PVTZ
  Basis Set:
  @DF-RHF Final Energy:  -384.08989641952400
    Total Energy =                       -384.0898964195238818
  Basis Set: CC-PVTZ
  Basis Set:
  Basis Set: CC-PVTZ
  Basis Set:
  @DF-RHF Final Energy:  -384.08990371202759
    Total Energy =                       -384.0899037120273647
  Basis Set: CC-PVTZ
  Basis Set:
  Charge       = 0
  Multiplicity = 1
  Basis Set: CC-PVTZ
  Basis Set:

    Orbital Energies (a.u.)
    -----------------------

    Doubly Occupied:

       1A    -20.603836     2A    -20.540450     3A    -11.373376
       4A    -11.238572     5A    -11.221401     6A    -11.218663
       7A    -11.217970     8A    -11.210641     9A     -1.477418
      10A     -1.368917    11A     -1.096505    12A     -1.040480
      13A     -0.961889    14A     -0.871114    15A     -0.818589
      16A     -0.776943    17A     -0.703623    18A     -0.692400
      19A     -0.668744    20A     -0.632429    21A     -0.606660
      22A     -0.595018    23A     -0.575608    24A     -0.566889
      25A     -0.528082    26A     -0.514616    27A     -0.503687
      28A     -0.484388    29A     -0.470069    30A     -0.462597
      31A     -0.458167    32A     -0.445946

  @DF-RHF Final Energy:  -384.08990392850848

   => Energetics <=

    Nuclear Repulsion Energy =            377.2441304665424582
    One-Electron Energy =               -1270.7766930740801854
    Two-Electron Energy =                 509.4426586790295914
    DFT Exchange-Correlation Energy =       0.0000000000000000
    Empirical Dispersion Energy =           0.0000000000000000
    PCM Polarization Energy =               0.0000000000000000
    EFP Energy =                            0.0000000000000000
    Total Energy =                       -384.0899039285081926
    Molecular point group: c1
  Basis Set: CC-PVTZ
  Basis Set:

  -Total Gradient:
     Atom            X                  Y                   Z
    ------   -----------------  -----------------  -----------------
       1        0.000046144543    -0.000038438360     0.000003941849
       2        0.000076709711     0.000077441534    -0.000026081267
       3       -0.000072017018    -0.000010606908    -0.000044115201
       4       -0.000034299621     0.000067375623    -0.000005825507
       5        0.000010452695    -0.000097478581     0.000064519902
       6       -0.000259344822     0.000711048913    -0.000519507910
       7       -0.000012472906     0.000005378081     0.000014123986
       8        0.000017465777     0.000024407410    -0.000019355166
       9        0.000399007230    -0.001252333213     0.000938401239
      10        0.000016148558    -0.000006755198     0.000012758286
      11       -0.000014744446    -0.000018396974    -0.000006861839
      12       -0.000507969443     0.001517237924    -0.001083755415
      13       -0.000001440945    -0.000013595075     0.000016194019
      14       -0.000005738169     0.000017890424    -0.000022604411
      15       -0.000013626090     0.000014723911    -0.000012775896
      16        0.000329057376    -0.001017304554     0.000681199847
      17        0.000026509005     0.000012888104    -0.000003312095
      18        0.000017378136     0.000009841524     0.000015091961
      19       -0.000011510693    -0.000008786118     0.000002703920
      20       -0.000005708874     0.000005461531    -0.000004740300

  **** Optimization is complete! (in 7 steps) ****
    Final optimized geometry and variables:
    Molecular point group: c1

    Geometry (in Angstrom), charge = 0, multiplicity = 1:

    H            3.655478357912    -1.127326640389     0.018952544646
    O            2.761047204041    -1.318464465388     0.258169266863
    C            2.034437767577    -0.217971651113     0.083971055705
    C            0.590627034680    -0.439589775976     0.445167343185
    O            2.507657152350     0.791672586948    -0.309297849036
    C           -0.278539572816     0.799805218246     0.275313152606
    H            0.237893949745    -1.268415667816    -0.158285887656
    H            0.569678008002    -0.792430368216     1.471338148931
    C           -1.745755978059     0.556427560384     0.631836051798
    H           -0.203152595347     1.155964750047    -0.745919929718
    H            0.119156071129     1.590409919318     0.900186625291
    C           -2.505730037463    -0.359464932515    -0.352282141318
    H           -2.240767240716     1.520688348583     0.669993757166
    H           -1.807138878123     0.153935294087     1.638367170053
    C           -3.734455411516     0.303382833450    -0.967577381361
    H           -1.841582200980    -0.678654278467    -1.149050591125
    H           -2.813649686441    -1.269484005937     0.151596303051
    H           -4.242057952460    -0.367103925055    -1.651647109845
    H           -3.460102302660     1.196350431478    -1.519364309025
    H           -4.444354529708     0.595435393445    -0.201008229454

  Mulliken Charges: (a.u.)
   Center  Symbol    Alpha    Beta     Spin     Total
       1     H     0.38239  0.38239  0.00000  0.23522
       2     O     4.16045  4.16045  0.00000 -0.32089
       3     C     2.80371  2.80371  0.00000  0.39257
       4     C     3.11152  3.11152  0.00000 -0.22305
       5     O     4.19112  4.19112  0.00000 -0.38225
       6     C     3.09234  3.09234  0.00000 -0.18467
       7     H     0.43648  0.43648  0.00000  0.12703
       8     H     0.43734  0.43734  0.00000  0.12533
       9     C     3.10553  3.10553  0.00000 -0.21107
      10     H     0.44484  0.44484  0.00000  0.11033
      11     H     0.44093  0.44093  0.00000  0.11815
      12     C     3.09128  3.09128  0.00000 -0.18256
      13     H     0.44566  0.44566  0.00000  0.10868
      14     H     0.44933  0.44933  0.00000  0.10134
      15     C     3.14698  3.14698  0.00000 -0.29397
      16     H     0.45458  0.45458  0.00000  0.09083
      17     H     0.44844  0.44844  0.00000  0.10312
      18     H     0.44928  0.44928  0.00000  0.10143
      19     H     0.45411  0.45411  0.00000  0.09179
      20     H     0.45368  0.45368  0.00000  0.09263

   Total alpha = 32.00000, Total beta = 32.00000, Total charge = -0.00000

*** Psi4 exiting successfully. Buy a developer a beer!
