  ==> Input File <==

--------------------------------------------------------------------------
set {
	reference rhf
	basis cc-pvtz
}

set_num_threads( 4 )
memory 2 gb

molecule MOL {
0 1

H	 -1.835082	 1.385983	 0.000069
C	 -1.300516	 0.441153	 -0.000028
O	 -0.006604	 0.654344	 -0.000106
O	 -1.828920	 -0.612308	 0.000113
C	 0.454358	 1.931595	 0.431135
C	 1.961901	 1.932077	 0.341608
H	 0.114552	 2.102236	 1.442753
H	 0.016815	 2.692126	 -0.199826
H	 2.385955	 1.163455	 0.975145
H	 2.345607	 2.892725	 0.663758
H	 2.287731	 1.756282	 -0.675692

	symmetry c1
}
set optking {
	frozen_dihedral = ("
		5 3 2 4
	")
}

ee = optimize('scf')
oeprop('DIPOLE', 'QUADRUPOLE', 'MULLIKEN_CHARGES')
f=open( 'psi4out.xyz', 'w' )
f.write( "11  " )
f.write( str(ee) + "\n" )
f.write( MOL.save_string_xyz() )
f.close()
--------------------------------------------------------------------------

    Molecular point group: c1
  Charge       = 0
  Multiplicity = 1
  Basis Set: CC-PVTZ
  Basis Set:
  @DF-RHF Final Energy:  -266.92149457710332
    Total Energy =                       -266.9214945771032603
    Molecular point group: c1
  Basis Set: CC-PVTZ
  Basis Set:
  Basis Set: CC-PVTZ
  Basis Set:
  @DF-RHF Final Energy:  -266.92248887070548
    Total Energy =                       -266.9224888707055356
  Basis Set: CC-PVTZ
  Basis Set:
  Basis Set: CC-PVTZ
  Basis Set:
  @DF-RHF Final Energy:  -266.92218507142525
    Total Energy =                       -266.9221850714253605
  Basis Set: CC-PVTZ
  Basis Set:
  Basis Set: CC-PVTZ
  Basis Set:
  @DF-RHF Final Energy:  -266.92272304037914
    Total Energy =                       -266.9227230403791964
  Basis Set: CC-PVTZ
  Basis Set:
  Basis Set: CC-PVTZ
  Basis Set:
  @DF-RHF Final Energy:  -266.92273515956299
    Total Energy =                       -266.9227351595629329
  Basis Set: CC-PVTZ
  Basis Set:
  Basis Set: CC-PVTZ
  Basis Set:
  @DF-RHF Final Energy:  -266.92273623407306
    Total Energy =                       -266.9227362340728860
  Basis Set: CC-PVTZ
  Basis Set:
  Charge       = 0
  Multiplicity = 1
  Basis Set: CC-PVTZ
  Basis Set:

    Orbital Energies (a.u.)
    -----------------------

    Doubly Occupied:

       1A    -20.604187     2A    -20.545455     3A    -11.371840
       4A    -11.304524     5A    -11.231876     6A     -1.476358
       7A     -1.383525     8A     -1.056292     9A     -0.890278
      10A     -0.847672    11A     -0.741106    12A     -0.696634
      13A     -0.669394    14A     -0.611306    15A     -0.574269
      16A     -0.562410    17A     -0.535999    18A     -0.519958
      19A     -0.461634    20A     -0.453319

  @DF-RHF Final Energy:  -266.92273630461693

   => Energetics <=

    Nuclear Repulsion Energy =            176.6682455985162790
    One-Electron Energy =                -714.1058878175481368
    Two-Electron Energy =                 270.5149059144150669
    DFT Exchange-Correlation Energy =       0.0000000000000000
    Empirical Dispersion Energy =           0.0000000000000000
    PCM Polarization Energy =               0.0000000000000000
    EFP Energy =                            0.0000000000000000
    Total Energy =                       -266.9227363046168193
    Molecular point group: c1
  Basis Set: CC-PVTZ
  Basis Set:

  -Total Gradient:
     Atom            X                  Y                   Z
    ------   -----------------  -----------------  -----------------
       1       -0.000009523589    -0.000008612683     0.000000344977
       2        0.000544070186    -0.000879121524    -0.003427457017
       3        0.000209107606     0.001069859420    -0.002096875538
       4       -0.000490539753     0.000396239140     0.003120668232
       5       -0.000260101016    -0.000569839427     0.002398040787
       6        0.000011696193     0.000003890780     0.000007369881
       7       -0.000003927586    -0.000014028238    -0.000006065221
       8       -0.000002190462     0.000001631472     0.000001576067
       9        0.000004039753    -0.000000132447    -0.000000802946
      10        0.000002188427     0.000000239912     0.000001253479
      11       -0.000004819758    -0.000000126408     0.000001947300

  **** Optimization is complete! (in 7 steps) ****
    Final optimized geometry and variables:
    Molecular point group: c1

    Geometry (in Angstrom), charge = 0, multiplicity = 1:

    H           -1.697851282472     0.518853614666    -0.417152572935
    C           -1.159894471457    -0.410901617604    -0.225481394704
    O            0.135938635244    -0.246078433670    -0.040322231775
    O           -1.690020914902    -1.456013540504    -0.186792147307
    C            0.605454577909     1.041190545855     0.317554100520
    C            2.104736914805     1.068845025771     0.135055737179
    H            0.339734043660     1.237779641177     1.349361241936
    H            0.128880422789     1.790684443572    -0.305180645016
    H            2.575988499164     0.315890950261     0.752721340144
    H            2.491860291809     2.040357541803     0.418013604811
    H            2.366680531997     0.878571715192    -0.897672420007

  Mulliken Charges: (a.u.)
   Center  Symbol    Alpha    Beta     Spin     Total
       1     H     0.47603  0.47603  0.00000  0.04794
       2     C     2.84480  2.84480  0.00000  0.31039
       3     O     4.12638  4.12638  0.00000 -0.25276
       4     O     4.17437  4.17437  0.00000 -0.34873
       5     C     2.97746  2.97746  0.00000  0.04509
       6     C     3.13258  3.13258  0.00000 -0.26516
       7     H     0.45658  0.45658  0.00000  0.08684
       8     H     0.46281  0.46281  0.00000  0.07438
       9     H     0.44520  0.44520  0.00000  0.10960
      10     H     0.45536  0.45536  0.00000  0.08929
      11     H     0.44844  0.44844  0.00000  0.10312

   Total alpha = 20.00000, Total beta = 20.00000, Total charge = -0.00000
