  ==> Input File <==

--------------------------------------------------------------------------
set {
	reference rhf
	basis cc-pvtz
}

set_num_threads( 4 )
memory 2 gb

molecule MOL {
0 1

H	 1.018907	 -0.265824	 -1.699261
O	 1.225079	 0.568702	 -1.317800
C	 0.706474	 0.636793	 -0.025501
C	 -0.793473	 0.591216	 0.050087
H	 1.056553	 1.571445	 0.396603
H	 1.114036	 -0.156647	 0.598235
C	 -1.534243	 -0.493009	 -0.013340
H	 -1.266611	 1.552628	 0.164437
H	 -1.101195	 -1.466332	 -0.144046
H	 -2.604242	 -0.437780	 0.050785

	symmetry c1
}
set optking {
	frozen_dihedral = ("
		5 3 4 7
	")
}

ee = optimize('scf')
oeprop('DIPOLE', 'QUADRUPOLE', 'MULLIKEN_CHARGES')
f=open( 'psi4out.xyz', 'w' )
f.write( "10  " )
f.write( str(ee) + "\n" )
f.write( MOL.save_string_xyz() )
f.close()
--------------------------------------------------------------------------

    Molecular point group: c1
  Charge       = 0
  Multiplicity = 1
  Basis Set: CC-PVTZ
  Basis Set:
  @DF-RHF Final Energy:  -191.99377874438244
    Total Energy =                       -191.9937787443824959
    Molecular point group: c1
  Basis Set: CC-PVTZ
  Basis Set:
  Basis Set: CC-PVTZ
  Basis Set:
  @DF-RHF Final Energy:  -191.99506436134786
    Total Energy =                       -191.9950643613478292
  Basis Set: CC-PVTZ
  Basis Set:
  Basis Set: CC-PVTZ
  Basis Set:
  @DF-RHF Final Energy:  -191.99527065799330
    Total Energy =                       -191.9952706579932737
  Basis Set: CC-PVTZ
  Basis Set:
  Basis Set: CC-PVTZ
  Basis Set:
  @DF-RHF Final Energy:  -191.99529645141388
    Total Energy =                       -191.9952964514138785
  Basis Set: CC-PVTZ
  Basis Set:
  @DF-RHF Final Energy:  -191.99531176755724
    Total Energy =                       -191.9953117675572116
  @DF-RHF Final Energy:  -191.99532293233102
    Total Energy =                       -191.9953229323310495
  Basis Set: CC-PVTZ
  Basis Set:
  @DF-RHF Final Energy:  -191.99533051353995
    Total Energy =                       -191.9953305135399546
  Basis Set: CC-PVTZ
  Basis Set:
  Basis Set: CC-PVTZ
  Basis Set:
  @DF-RHF Final Energy:  -191.99533459699717
    Total Energy =                       -191.9953345969971963
  Basis Set: CC-PVTZ
  Basis Set:
  Basis Set: CC-PVTZ
  Basis Set:
  @DF-RHF Final Energy:  -191.99533651024893
    Total Energy =                       -191.9953365102488760
  Basis Set: CC-PVTZ
  Basis Set:
  Charge       = 0
  Multiplicity = 1
  Basis Set: CC-PVTZ
  Basis Set:

    Orbital Energies (a.u.)
    -----------------------

    Doubly Occupied:

       1A    -20.548765     2A    -11.275435     3A    -11.233817
       4A    -11.228177     5A     -1.366887     6A     -1.068067
       7A     -0.927027     8A     -0.777808     9A     -0.704341
      10A     -0.633275    11A     -0.627497    12A     -0.591489
      13A     -0.539419    14A     -0.493280    15A     -0.443091
      16A     -0.382063

  @DF-RHF Final Energy:  -191.99533673996507

   => Energetics <=

    Nuclear Repulsion Energy =            118.4647424120481816
    One-Electron Energy =                -495.2392797334429702
    Two-Electron Energy =                 184.7792005814297909
    DFT Exchange-Correlation Energy =       0.0000000000000000
    Empirical Dispersion Energy =           0.0000000000000000
    PCM Polarization Energy =               0.0000000000000000
    EFP Energy =                            0.0000000000000000
    Total Energy =                       -191.9953367399650119
    Molecular point group: c1
  Basis Set: CC-PVTZ
  Basis Set:

  -Total Gradient:
     Atom            X                  Y                   Z
    ------   -----------------  -----------------  -----------------
       1       -0.000001113502    -0.000001841947    -0.000000148810
       2        0.000005849262     0.000001258433    -0.000005291343
       3        0.000058612653    -0.002182129003     0.003210240684
       4        0.000097550503     0.000023655554     0.005267007926
       5       -0.000080394163     0.001869020464    -0.004200713406
       6        0.000005148736    -0.000003237846    -0.000011554695
       7       -0.000086043312     0.000290234120    -0.004243945005
       8        0.000000502259     0.000000232791    -0.000015092874
       9        0.000000620739     0.000002550296     0.000001426825
      10       -0.000000733175     0.000000257137    -0.000001929303

  **** Optimization is complete! (in 10 steps) ****
    Final optimized geometry and variables:
    Molecular point group: c1

    Geometry (in Angstrom), charge = 0, multiplicity = 1:

    H            0.835698968569    -0.456192634737    -1.403898807219
    O            1.243866292145     0.248276946300    -0.934060282889
    C            0.743564769575     0.289792260333     0.378934663813
    C           -0.764647264434     0.284257679899     0.406382998907
    H            1.121507058519     1.217468288298     0.783599434380
    H            1.135400950484    -0.535328350562     0.965023969046
    C           -1.489063693207    -0.812496003908     0.343984775017
    H           -1.254131501806     1.242154275444     0.381251292818
    H           -1.037577620181    -1.789647495470     0.359677585973
    H           -2.560906614817    -0.779652960407     0.292150387078

  Mulliken Charges: (a.u.)
   Center  Symbol    Alpha    Beta     Spin     Total
       1     H     0.39344  0.39344  0.00000  0.21312
       2     O     4.20089  4.20089  0.00000 -0.40178
       3     C     2.95273  2.95273  0.00000  0.09455
       4     C     3.07914  3.07914  0.00000 -0.15827
       5     H     0.45569  0.45569  0.00000  0.08862
       6     H     0.46947  0.46947  0.00000  0.06106
       7     C     3.17686  3.17686  0.00000 -0.35373
       8     H     0.41892  0.41892  0.00000  0.16217
       9     H     0.42793  0.42793  0.00000  0.14414
      10     H     0.42494  0.42494  0.00000  0.15012

   Total alpha = 16.00000, Total beta = 16.00000, Total charge =  0.00000
