                              Psi4 1.0.54 Driver

  ==> Input File <==

--------------------------------------------------------------------------
set {
	reference rhf
	basis cc-pvtz
}

set_num_threads( 4 )
memory 2 gb

molecule MOL {
0 1

O	 -2.473091	 -1.059580	 0.408300
C	 -1.940183	 -0.002794	 0.390559
C	 -2.647004	 1.315727	 0.533242
O	 -0.637375	 0.157174	 0.243149
H	 -2.467129	 1.921502	 -0.345621
H	 -3.704264	 1.147236	 0.657542
H	 -2.251229	 1.850100	 1.387278
C	 0.162530	 -1.009518	 0.097799
C	 1.587210	 -0.664190	 0.477086
H	 0.096803	 -1.356267	 -0.924704
H	 -0.233803	 -1.785900	 0.736810
C	 2.256770	 0.342732	 -0.454344
H	 2.154716	 -1.590834	 0.479041
H	 1.598751	 -0.289614	 1.496104
C	 3.698146	 0.643205	 -0.057145
H	 2.235038	 -0.042575	 -1.470299
H	 1.683491	 1.262594	 -0.461300
H	 4.150202	 1.356548	 -0.736242
H	 4.305463	 -0.255904	 -0.069842
H	 3.749130	 1.061068	 0.942759

	symmetry c1
}
set optking {
	frozen_dihedral = ("
		2 4 8 10
	")
}

ee,wfn = optimize('scf', return_wfn=True)
oeprop( wfn, 'DIPOLE', 'QUADRUPOLE', 'MULLIKEN_CHARGES')
f=open( 'psi4out.xyz', 'w' )
f.write( "20  " )
f.write( str(ee) + "\n" )
f.write( MOL.save_string_xyz() )
f.close()
--------------------------------------------------------------------------

    Molecular point group: c1
  Charge       = 0
  Multiplicity = 1
  Basis Set: CC-PVTZ
  Basis Set:
  @DF-RHF Final Energy:  -384.08675438682747
    Total Energy =                       -384.0867543868270104
    Molecular point group: c1
  Basis Set: CC-PVTZ
  Basis Set:
  Basis Set: CC-PVTZ
  Basis Set:
  @DF-RHF Final Energy:  -384.08677050035840
    Total Energy =                       -384.0867705003579431
  Basis Set: CC-PVTZ
  Basis Set:
  Basis Set: CC-PVTZ
  Basis Set:
  @DF-RHF Final Energy:  -384.08659782012586
    Total Energy =                       -384.0865978201259168
  Basis Set: CC-PVTZ
  Basis Set:
  Basis Set: CC-PVTZ
  Basis Set:
  @DF-RHF Final Energy:  -384.08687468062038
    Total Energy =                       -384.0868746806202125
  Basis Set: CC-PVTZ
  Basis Set:
  Charge       = 0
  Multiplicity = 1
  Basis Set: CC-PVTZ
  Basis Set:

    Orbital Energies (a.u.)
    -----------------------

    Doubly Occupied:

       1A    -20.594071     2A    -20.532506     3A    -11.367146
       4A    -11.279913     5A    -11.231621     6A    -11.223511
       7A    -11.218663     8A    -11.211556     9A     -1.470291
      10A     -1.365408    11A     -1.087158    12A     -1.029196
      13A     -0.982154    14A     -0.881589    15A     -0.814350
      16A     -0.773583    17A     -0.694223    18A     -0.687789
      19A     -0.668229    20A     -0.632166    21A     -0.601037
      22A     -0.594150    23A     -0.572213    24A     -0.555377
      25A     -0.545381    26A     -0.530837    27A     -0.515506
      28A     -0.487062    29A     -0.475509    30A     -0.468210
      31A     -0.453134    32A     -0.441462

  @DF-RHF Final Energy:  -384.08688450504138

   => Energetics <=

    Nuclear Repulsion Energy =            385.1569089650818682
    One-Electron Energy =               -1286.5175888960707198
    Two-Electron Energy =                 517.2737954259473554
    DFT Exchange-Correlation Energy =       0.0000000000000000
    Empirical Dispersion Energy =           0.0000000000000000
    PCM Polarization Energy =               0.0000000000000000
    EFP Energy =                            0.0000000000000000
    Total Energy =                       -384.0868845050415530
    Molecular point group: c1
  Basis Set: CC-PVTZ
  Basis Set:

  -Total Gradient:
     Atom            X                  Y                   Z
    ------   -----------------  -----------------  -----------------
       1        0.000104975185    -0.000018301866    -0.000040499208
       2        0.000022481788    -0.000113191193     0.001464250266
       3       -0.000021816768     0.000035421390    -0.000003281206
       4        0.000149970629     0.000209022991    -0.002124422076
       5       -0.000003954076     0.000038586057    -0.000020037888
       6       -0.000040572365     0.000008602129     0.000000956578
       7        0.000011488655     0.000046399526     0.000026189464
       8       -0.001465420833    -0.001109689607     0.001103127432
       9        0.000002420697    -0.000017264721     0.000000621807
      10        0.001251459715     0.000890212213    -0.000412631919
      11       -0.000030824408     0.000036837975     0.000010197818
      12        0.000007469977     0.000017593067    -0.000013913491
      13        0.000023702034     0.000012111115    -0.000002318435
      14       -0.000012001258    -0.000003573653     0.000014809068
      15       -0.000004764779    -0.000019018070    -0.000000219472
      16        0.000006230046    -0.000002484669    -0.000005094845
      17       -0.000001004054    -0.000010194109     0.000000962306
      18       -0.000006461246     0.000002573641    -0.000004206791
      19        0.000010812299    -0.000004678652     0.000000332720
      20       -0.000004191242     0.000001036433     0.000005177874

  **** Optimization is complete! (in 5 steps) ****
    Final optimized geometry and variables:
    Molecular point group: c1

    Geometry (in Angstrom), charge = 0, multiplicity = 1:

    O           -2.496969938473    -0.991911599962     0.141720443676
    C           -1.934123006529     0.048876336638     0.166606708171
    C           -2.607555060566     1.381299941581     0.339130603677
    O           -0.625436638529     0.180989306907     0.041104823494
    H           -2.396210982867     2.007727288735    -0.518002990828
    H           -3.671040335339     1.238395821632     0.440825863186
    H           -2.211874255870     1.878706545853     1.215235435896
    C            0.165572911622    -0.993439850870    -0.095232780251
    C            1.594961307367    -0.659357259145     0.280145588917
    H            0.107575909389    -1.328235708078    -1.123850839959
    H           -0.236085119044    -1.767638829223     0.538688957123
    C            2.266105378822     0.354909056417    -0.641957455087
    H            2.157877804407    -1.588841980001     0.267977854578
    H            1.612961885449    -0.297323483668     1.303691834477
    C            3.708063879745     0.648727171556    -0.242426302430
    H            2.243569177007    -0.021020304269    -1.661466798190
    H            1.694363509782     1.275569513125    -0.640653114812
    H            4.161021520364     1.368202823102    -0.914414212247
    H            4.313707988846    -0.251306119467    -0.264519547855
    H            3.760184604476     1.056273173219     0.761671121675

  Mulliken Charges: (a.u.)
   Center  Symbol    Alpha    Beta     Spin     Total
       1     O     4.19769  4.19769  0.00000 -0.39538
       2     C     2.80700  2.80700  0.00000  0.38599
       3     C     3.13952  3.13952  0.00000 -0.27905
       4     O     4.15433  4.15433  0.00000 -0.30865
       5     H     0.44565  0.44565  0.00000  0.10870
       6     H     0.43773  0.43773  0.00000  0.12454
       7     H     0.44616  0.44616  0.00000  0.10767
       8     C     2.99361  2.99361  0.00000  0.01279
       9     C     3.08470  3.08470  0.00000 -0.16939
      10     H     0.45484  0.45484  0.00000  0.09032
      11     H     0.43931  0.43931  0.00000  0.12139
      12     C     3.08612  3.08612  0.00000 -0.17225
      13     H     0.45196  0.45196  0.00000  0.09607
      14     H     0.45199  0.45199  0.00000  0.09602
      15     C     3.14995  3.14995  0.00000 -0.29990
      16     H     0.45552  0.45552  0.00000  0.08895
      17     H     0.44662  0.44662  0.00000  0.10676
      18     H     0.44747  0.44747  0.00000  0.10507
      19     H     0.45545  0.45545  0.00000  0.08910
      20     H     0.45437  0.45437  0.00000  0.09126

   Total alpha = 32.00000, Total beta = 32.00000, Total charge =  0.00000

*** Psi4 exiting successfully. Buy a developer a beer!
