  ==> Input File <==

--------------------------------------------------------------------------
set {
	reference rhf
	basis 6-31G*
}

set_num_threads( 4 )
memory 2 gb

molecule MOL {
0 1

O	 -1.481115	 -0.515530	 2.214801
C	 -1.958075	 -0.837420	 1.173882
C	 -3.169547	 -1.724371	 1.043795
O	 -1.481751	 -0.454642	 0.000584
H	 -3.996976	 -1.262402	 1.568969
H	 -3.437507	 -1.891591	 0.010996
H	 -2.961408	 -2.670862	 1.528265
C	 -0.334255	 0.388708	 0.000906
C	 0.891947	 -0.504646	 0.000751
H	 -0.365390	 1.025305	 -0.873475
H	 -0.365484	 1.024911	 0.875569
C	 2.191998	 0.301789	 0.000897
H	 0.855148	 -1.151283	 -0.871571
H	 0.855132	 -1.151660	 0.872805
C	 3.441114	 -0.581407	 0.000108
H	 2.215074	 0.954890	 -0.869742
H	 2.215465	 0.953923	 0.872248
C	 4.739576	 0.224112	 -0.001102
H	 3.419457	 -1.233487	 -0.870178
H	 3.420834	 -1.233096	 0.870717
H	 4.804918	 0.861552	 -0.878265
H	 5.606527	 -0.429058	 -0.001824
H	 4.806469	 0.861674	 0.875853

	symmetry c1
}
set optking {
	frozen_dihedral = ("
		2 4 8 10
	")
}

ee = optimize('scf')
oeprop('DIPOLE', 'QUADRUPOLE', 'MULLIKEN_CHARGES')
f=open( 'psi4out.xyz', 'w' )
f.write( "23  " )
f.write( str(ee) + "\n" )
f.write( MOL.save_string_xyz() )
f.close()
--------------------------------------------------------------------------

    Molecular point group: c1
  Charge       = 0
  Multiplicity = 1
  Basis Set: 6-31G*
  Basis Set:
  @DF-RHF Final Energy:  -422.97736766116947
    Total Energy =                       -422.9773676611705469
    Molecular point group: c1
  Basis Set: 6-31G*
  Basis Set:
  Basis Set: 6-31G*
  Basis Set:
  @DF-RHF Final Energy:  -422.97850075195151
    Total Energy =                       -422.9785007519508326
  Basis Set: 6-31G*
  Basis Set:
  Basis Set: 6-31G*
  Basis Set:
  @DF-RHF Final Energy:  -422.97627000821922
    Total Energy =                       -422.9762700082194442
  Basis Set: 6-31G*
  Basis Set:
  Basis Set: 6-31G*
  Basis Set:
  @DF-RHF Final Energy:  -422.97878842162999
    Total Energy =                       -422.9787884216307248
  Basis Set: 6-31G*
  Basis Set:
  Basis Set: 6-31G*
  Basis Set:
  @DF-RHF Final Energy:  -422.97880706723498
    Total Energy =                       -422.9788070672343565
  Basis Set: 6-31G*
  Basis Set:
  Charge       = 0
  Multiplicity = 1
  Basis Set: 6-31G*
  Basis Set:

    Orbital Energies (a.u.)
    -----------------------

    Doubly Occupied:

       1A    -20.602762     2A    -20.540786     3A    -11.375495
       4A    -11.280949     5A    -11.232346     6A    -11.222028
       7A    -11.220726     8A    -11.219596     9A    -11.211330
      10A     -1.466886    11A     -1.361162    12A     -1.091426
      13A     -1.040757    14A     -1.002310    15A     -0.931071
      16A     -0.850119    17A     -0.798915    18A     -0.766270
      19A     -0.699379    20A     -0.678219    21A     -0.655295
      22A     -0.649632    23A     -0.603581    24A     -0.589430
      25A     -0.584521    26A     -0.572724    27A     -0.549667
      28A     -0.539127    29A     -0.522073    30A     -0.511989
      31A     -0.485395    32A     -0.477233    33A     -0.474309
      34A     -0.468694    35A     -0.437466    36A     -0.436296

  @DF-RHF Final Energy:  -422.97880751324738

   => Energetics <=

    Nuclear Repulsion Energy =            455.8427957237256578
    One-Electron Energy =               -1479.3432773612885285
    Two-Electron Energy =                 600.5216741243158367
    DFT Exchange-Correlation Energy =       0.0000000000000000
    Empirical Dispersion Energy =           0.0000000000000000
    PCM Polarization Energy =               0.0000000000000000
    EFP Energy =                            0.0000000000000000
    Total Energy =                       -422.9788075132470340
    Molecular point group: c1
  Basis Set: 6-31G*
  Basis Set:

  -Total Gradient:
     Atom            X                  Y                   Z
    ------   -----------------  -----------------  -----------------
       1        0.000015009891     0.000005110147    -0.000036555287
       2       -0.000406196075     0.000542128242     0.000044582424
       3       -0.000004439955    -0.000000887207     0.000001226697
       4        0.000498108351    -0.000788975231     0.000043308032
       5       -0.000020363495    -0.000005336680    -0.000000154704
       6        0.000000159688     0.000002158156     0.000006109877
       7       -0.000001241866     0.000008970742     0.000002252614
       8        0.000303429158    -0.000331494201    -0.000488063353
       9       -0.000073799899     0.000006122822    -0.000002361592
      10       -0.000353638591     0.000565155999     0.000408459615
      11        0.000027431660     0.000011857548     0.000002651497
      12       -0.000037685145     0.000004419761     0.000003680170
      13        0.000029071249    -0.000024663468     0.000010619305
      14       -0.000004895608     0.000009875981     0.000005839827
      15        0.000005971770    -0.000005118697    -0.000023840405
      16       -0.000010923032    -0.000001314586     0.000022094597
      17        0.000015276455     0.000002584160     0.000008391035
      18        0.000013865024    -0.000008659482     0.000000292499
      19        0.000002304975    -0.000004651169    -0.000002468311
      20       -0.000002843023     0.000011173111    -0.000007815795
      21        0.000000740632    -0.000004354808    -0.000000005136
      22        0.000007178120     0.000004261711     0.000002847345
      23       -0.000002520282     0.000001637147    -0.000001090958

  **** Optimization is complete! (in 6 steps) ****
    Final optimized geometry and variables:
    Molecular point group: c1

    Geometry (in Angstrom), charge = 0, multiplicity = 1:

    O           -1.857518779856    -0.169162119110     1.742116037005
    C           -2.313943091233    -0.435903915574     0.676355774805
    C           -3.566688224652    -1.251459310906     0.484779048647
    O           -1.783309703835    -0.052133563247    -0.474044264777
    H           -4.383549804752    -0.759131756622     0.998853374602
    H           -3.811073737833    -1.375662197494    -0.559765189982
    H           -3.424895432607    -2.220550169923     0.948090851519
    C           -0.601793273534     0.745654265017    -0.446642496740
    C            0.647162653555    -0.120411169460    -0.453178791099
    H           -0.660233217136     1.356677893216    -1.336951141279
    H           -0.627482310919     1.388574332338     0.420139312678
    C            1.925697905266     0.718150164274    -0.506235335210
    H            0.604829256716    -0.789163861794    -1.308934673760
    H            0.648714555675    -0.739096411732     0.438832670844
    C            3.196915206798    -0.132859580395    -0.520639576376
    H            1.909680968749     1.351686905633    -1.391838279692
    H            1.954447915602     1.389196192489     0.350272035645
    C            4.473771623683     0.705029457542    -0.571346788330
    H            3.170584100823    -0.803828332683    -1.376410974053
    H            3.214538494502    -0.765452823316     0.363755005073
    H            4.501589597373     1.324518901778    -1.463365394135
    H            5.357084571324     0.074172636298    -0.579522216737
    H            4.545310326240     1.363044521191     0.289961855197

  Mulliken Charges: (a.u.)
   Center  Symbol    Alpha    Beta     Spin     Total
       1     O     4.28524  4.28524  0.00000 -0.57049
       2     C     2.61524  2.61524  0.00000  0.76953
       3     C     3.28795  3.28795  0.00000 -0.57589
       4     O     4.31313  4.31313  0.00000 -0.62626
       5     H     0.39745  0.39745  0.00000  0.20511
       6     H     0.39958  0.39958  0.00000  0.20085
       7     H     0.39772  0.39772  0.00000  0.20456
       8     C     3.00230  3.00230  0.00000 -0.00461
       9     C     3.16847  3.16847  0.00000 -0.33693
      10     H     0.41116  0.41116  0.00000  0.17768
      11     H     0.40131  0.40131  0.00000  0.19738
      12     C     3.16114  3.16114  0.00000 -0.32228
      13     H     0.41628  0.41628  0.00000  0.16743
      14     H     0.40738  0.40738  0.00000  0.18524
      15     C     3.15140  3.15140  0.00000 -0.30280
      16     H     0.42312  0.42312  0.00000  0.15376
      17     H     0.41886  0.41886  0.00000  0.16227
      18     C     3.23987  3.23987  0.00000 -0.47974
      19     H     0.42205  0.42205  0.00000  0.15590
      20     H     0.41998  0.41998  0.00000  0.16004
      21     H     0.42169  0.42169  0.00000  0.15662
      22     H     0.41815  0.41815  0.00000  0.16369
      23     H     0.42053  0.42053  0.00000  0.15893

   Total alpha = 36.00000, Total beta = 36.00000, Total charge =  0.00000
