  ==> Input File <==

--------------------------------------------------------------------------
set {
	reference rhf
	basis 6-31G*
}

set_num_threads( 1 )
memory 2 gb

molecule MOL {
0 1

O	 3.225979	 0.970355	 -0.599647
C	 2.701189	 0.057885	 -0.047330
C	 1.245376	 -0.013843	 0.345420
O	 3.347903	 -1.046386	 0.304773
C	 0.455112	 1.231400	 -0.050772
H	 0.838542	 -0.913825	 -0.103701
H	 1.208210	 -0.175333	 1.419774
C	 -0.998893	 1.219485	 0.433193
H	 0.482531	 1.345121	 -1.130325
H	 0.957290	 2.103070	 0.354729
C	 -1.723953	 -0.118896	 0.265457
H	 -1.543950	 1.981423	 -0.119155
H	 -1.035419	 1.521358	 1.478921
C	 -3.200613	 -0.049104	 0.659924
H	 -1.643735	 -0.441656	 -0.771467
H	 -1.236925	 -0.886314	 0.862822
C	 -3.934013	 -1.382185	 0.501334
H	 -3.698709	 0.708070	 0.056747
H	 -3.281894	 0.283922	 1.693455
C	 -5.408967	 -1.302989	 0.893686
H	 -3.852926	 -1.716923	 -0.530663
H	 -3.440200	 -2.139289	 1.106911
H	 -5.901263	 -2.262725	 0.770564
H	 -5.939036	 -0.578577	 0.281763
H	 -5.523029	 -1.003598	 1.931775
C	 4.728119	 -1.109107	 -0.004993
H	 4.882018	 -1.033965	 -1.071845
H	 5.068212	 -2.067527	 0.355250
H	 5.265056	 -0.311663	 0.488280

	symmetry c1
}
set optking {
	frozen_dihedral = ("
		21 17 14 11,
		17 14 11 15,
		15 11 8 5,
		6 3 5 9,
		2 4 26 27,
		1 2 4 26,
		6 3 2 1
	")
}

ee = energy('scf')
oeprop('DIPOLE', 'QUADRUPOLE', 'MULLIKEN_CHARGES')
f=open( 'psi4out.xyz', 'w' )
f.write( "29  " )
f.write( str(ee) + "\n" )
f.write( MOL.save_string_xyz() )
f.close()
--------------------------------------------------------------------------

    Molecular point group: c1

    Geometry (in Angstrom), charge = 0, multiplicity = 1:

       Center              X                  Y                   Z               Mass
    ------------   -----------------  -----------------  -----------------  -----------------
           O          3.143959526721     1.125015171155    -0.842254769579    15.994914619560
           C          2.619169526721     0.212545171155    -0.289937769579    12.000000000000
           C          1.163356526721     0.140817171155     0.102812230421    12.000000000000
           O          3.265883526721    -0.891725828845     0.062165230421    15.994914619560
           C          0.373092526721     1.386060171155    -0.293379769579    12.000000000000
           H          0.756522526721    -0.759164828845    -0.346308769579     1.007825032070
           H          1.126190526721    -0.020672828845     1.177166230421     1.007825032070
           C         -1.080912473279     1.374145171155     0.190585230421    12.000000000000
           H          0.400511526721     1.499781171155    -1.372932769579     1.007825032070
           H          0.875270526721     2.257730171155     0.112121230421     1.007825032070
           C         -1.805972473279     0.035764171155     0.022849230421    12.000000000000
           H         -1.625969473279     2.136083171155    -0.361762769579     1.007825032070
           H         -1.117438473279     1.676018171155     1.236313230421     1.007825032070
           C         -3.282632473279     0.105556171155     0.417316230421    12.000000000000
           H         -1.725754473279    -0.286995828845    -1.014074769579     1.007825032070
           H         -1.318944473279    -0.731653828845     0.620214230421     1.007825032070
           C         -4.016032473279    -1.227524828845     0.258726230421    12.000000000000
           H         -3.780728473279     0.862730171155    -0.185860769579     1.007825032070
           H         -3.363913473279     0.438582171155     1.450847230421     1.007825032070
           C         -5.490986473279    -1.148328828845     0.651078230421    12.000000000000
           H         -3.934945473279    -1.562262828845    -0.773270769579     1.007825032070
           H         -3.522219473279    -1.984628828845     0.864303230421     1.007825032070
           H         -5.983282473279    -2.108064828845     0.527956230421     1.007825032070
           H         -6.021055473279    -0.423916828845     0.039155230421     1.007825032070
           H         -5.605048473279    -0.848937828845     1.689167230421     1.007825032070
           C          4.646099526721    -0.954446828845    -0.247600769579    12.000000000000
           H          4.799998526721    -0.879304828845    -1.314452769579     1.007825032070
           H          4.986192526721    -1.912866828845     0.112642230421     1.007825032070
           H          5.183036526721    -0.157002828845     0.245672230421     1.007825032070

  Charge       = 0
  Multiplicity = 1
  Basis Set: 6-31G*
  Basis Set:

    Orbital Energies (a.u.)
    -----------------------

    Doubly Occupied:

       1A    -20.603198     2A    -20.544864     3A    -11.371599
       4A    -11.280545     5A    -11.234374     6A    -11.218823
       7A    -11.217393     8A    -11.216429     9A    -11.216130
      10A    -11.214652    11A    -11.209264    12A     -1.468833
      13A     -1.362243    14A     -1.099103    15A     -1.066484
      16A     -1.018860    17A     -0.976892    18A     -0.928973
      19A     -0.863836    20A     -0.798936    21A     -0.791275
      22A     -0.760814    23A     -0.700311    24A     -0.682609
      25A     -0.671366    26A     -0.654016    27A     -0.629428
      28A     -0.604060    29A     -0.592908    30A     -0.580141
      31A     -0.567932    32A     -0.551693    33A     -0.531102
      34A     -0.528209    35A     -0.518727    36A     -0.513097
      37A     -0.496789    38A     -0.479291    39A     -0.468114
      40A     -0.460753    41A     -0.458940    42A     -0.454770
      43A     -0.440050    44A     -0.436500

  @DF-RHF Final Energy:  -501.04176913829360

   => Energetics <=

    Nuclear Repulsion Energy =            613.3651760561497213
    One-Electron Energy =               -1897.8450908244872153
    Two-Electron Energy =                 783.4381456300429818
    DFT Exchange-Correlation Energy =       0.0000000000000000
    Empirical Dispersion Energy =           0.0000000000000000
    PCM Polarization Energy =               0.0000000000000000
    EFP Energy =                            0.0000000000000000
    Total Energy =                       -501.0417691382945122

  Mulliken Charges: (a.u.)
   Center  Symbol    Alpha    Beta     Spin     Total
       1     O     4.28605  4.28605  0.00000 -0.57211
       2     C     2.60401  2.60401  0.00000  0.79197
       3     C     3.21314  3.21314  0.00000 -0.42629
       4     O     4.30748  4.30748  0.00000 -0.61496
       5     C     3.15306  3.15306  0.00000 -0.30612
       6     H     0.39759  0.39759  0.00000  0.20482
       7     H     0.40128  0.40128  0.00000  0.19744
       8     C     3.15532  3.15532  0.00000 -0.31063
       9     H     0.41289  0.41289  0.00000  0.17421
      10     H     0.40855  0.40855  0.00000  0.18289
      11     C     3.15887  3.15887  0.00000 -0.31775
      12     H     0.41837  0.41837  0.00000  0.16326
      13     H     0.42245  0.42245  0.00000  0.15510
      14     C     3.14965  3.14965  0.00000 -0.29931
      15     H     0.42333  0.42333  0.00000  0.15334
      16     H     0.42186  0.42186  0.00000  0.15628
      17     C     3.15147  3.15147  0.00000 -0.30294
      18     H     0.42340  0.42340  0.00000  0.15320
      19     H     0.42376  0.42376  0.00000  0.15248
      20     C     3.23935  3.23935  0.00000 -0.47871
      21     H     0.42303  0.42303  0.00000  0.15394
      22     H     0.42340  0.42340  0.00000  0.15320
      23     H     0.41922  0.41922  0.00000  0.16156
      24     H     0.42153  0.42153  0.00000  0.15694
      25     H     0.42175  0.42175  0.00000  0.15651
      26     C     3.09237  3.09237  0.00000 -0.18473
      27     H     0.40911  0.40911  0.00000  0.18179
      28     H     0.40854  0.40854  0.00000  0.18291
      29     H     0.40915  0.40915  0.00000  0.18170

   Total alpha = 44.00000, Total beta = 44.00000, Total charge =  0.00000
