                              Psi4 1.0.54 Driver

  ==> Input File <==

--------------------------------------------------------------------------
set {
	reference rhf
	basis cc-pvtz
}

set_num_threads( 4 )
memory 2 gb

molecule MOL {
0 1

H	 1.992579	 -5.190841	 0.570324
O	 2.808499	 -4.967310	 0.162725
C	 2.579541	 -4.361752	 -1.082326
C	 2.034963	 -2.945078	 -0.976714
H	 3.538121	 -4.344505	 -1.583134
H	 1.912104	 -4.974463	 -1.685288
C	 0.640178	 -2.853491	 -0.361866
H	 2.731477	 -2.349861	 -0.393840
H	 2.015749	 -2.519115	 -1.977006
C	 0.113298	 -1.420414	 -0.302504
H	 0.661105	 -3.272485	 0.638638
H	 -0.050026	 -3.463426	 -0.942283
C	 -1.311023	 -1.277304	 0.237018
H	 0.787612	 -0.816919	 0.300257
H	 0.144948	 -0.999473	 -1.303641
C	 -2.041121	 -0.006551	 -0.194127
H	 -1.888548	 -2.136293	 -0.093331
H	 -1.289731	 -1.328757	 1.323321
C	 -3.489218	 0.042606	 0.286507
H	 -2.022185	 0.066287	 -1.279394
H	 -1.518764	 0.869305	 0.178730
C	 -4.219984	 1.311773	 -0.139038
H	 -4.022855	 -0.824300	 -0.093339
H	 -3.510372	 -0.038577	 1.370031
H	 -4.244251	 1.405725	 -1.219696
H	 -5.244345	 1.313233	 0.215630
H	 -3.732090	 2.196311	 0.257073

	symmetry c1
}
set optking {
	frozen_dihedral = ("
		14 10 13 16
	")
}

ee,wfn = optimize('scf', return_wfn=True)
oeprop( wfn, 'DIPOLE', 'QUADRUPOLE', 'MULLIKEN_CHARGES')
f=open( 'psi4out.xyz', 'w' )
f.write( "27  " )
f.write( str(ee) + "\n" )
f.write( MOL.save_string_xyz() )
f.close()
--------------------------------------------------------------------------

    Molecular point group: c1
  Charge       = 0
  Multiplicity = 1
  Basis Set: CC-PVTZ
  Basis Set:
  @DF-RHF Final Energy:  -388.42744752251582
    Total Energy =                       -388.4274475225154220
    Molecular point group: c1
  Basis Set: CC-PVTZ
  Basis Set:
  Basis Set: CC-PVTZ
  Basis Set:
  @DF-RHF Final Energy:  -388.42785475049959
    Total Energy =                       -388.4278547504992503
  Basis Set: CC-PVTZ
  Basis Set:
  Basis Set: CC-PVTZ
  Basis Set:
  @DF-RHF Final Energy:  -388.42813895432840
    Total Energy =                       -388.4281389543283467
  Basis Set: CC-PVTZ
  Basis Set:
  Basis Set: CC-PVTZ
  Basis Set:
  @DF-RHF Final Energy:  -388.42815148381169
    Total Energy =                       -388.4281514838111207
  Basis Set: CC-PVTZ
  Basis Set:
  Basis Set: CC-PVTZ
  Basis Set:
  @DF-RHF Final Energy:  -388.42815726901114
    Total Energy =                       -388.4281572690103985
  Basis Set: CC-PVTZ
  Basis Set:
  Charge       = 0
  Multiplicity = 1
  Basis Set: CC-PVTZ
  Basis Set:

    Orbital Energies (a.u.)
    -----------------------

    Doubly Occupied:

       1A    -20.545161     2A    -11.264951     3A    -11.217329
       4A    -11.214382     5A    -11.213565     6A    -11.213251
       7A    -11.212884     8A    -11.211862     9A    -11.207002
      10A     -1.363107    11A     -1.095787    12A     -1.063585
      13A     -1.012764    14A     -0.951337    15A     -0.883118
      16A     -0.820780    17A     -0.792295    18A     -0.789735
      19A     -0.696577    20A     -0.659481    21A     -0.634013
      22A     -0.616216    23A     -0.604188    24A     -0.586364
      25A     -0.575968    26A     -0.556628    27A     -0.534416
      28A     -0.525626    29A     -0.509770    30A     -0.496113
      31A     -0.479599    32A     -0.475273    33A     -0.469478
      34A     -0.462847    35A     -0.459864    36A     -0.444404
      37A     -0.422476

  @DF-RHF Final Energy:  -388.42815774600132

   => Energetics <=

    Nuclear Repulsion Energy =            451.8728256127728287
    One-Electron Energy =               -1422.0375730437679067
    Two-Electron Energy =                 581.7365896849941009
    DFT Exchange-Correlation Energy =       0.0000000000000000
    Empirical Dispersion Energy =           0.0000000000000000
    PCM Polarization Energy =               0.0000000000000000
    EFP Energy =                            0.0000000000000000
    Total Energy =                       -388.4281577460009203
    Molecular point group: c1
  Basis Set: CC-PVTZ
  Basis Set:

  -Total Gradient:
     Atom            X                  Y                   Z
    ------   -----------------  -----------------  -----------------
       1        0.000006492433    -0.000007086764    -0.000005498490
       2        0.000028011840    -0.000002770325     0.000037588688
       3       -0.000054780594    -0.000009943301    -0.000021693890
       4        0.000016382602     0.000001524258     0.000014931389
       5        0.000012576686    -0.000002670611     0.000000065487
       6       -0.000002013589    -0.000003075699    -0.000018017064
       7        0.000021799288    -0.000016485356     0.000000190168
       8        0.000004681473     0.000007844220     0.000007507060
       9        0.000001880139     0.000009585197    -0.000004497360
      10       -0.001172966106     0.003030501713    -0.003449226531
      11        0.000003038043     0.000010158780     0.000006804138
      12       -0.000015079075     0.000001320824    -0.000008817601
      13        0.001429992354     0.001027473387     0.003464082561
      14        0.000644917899    -0.002849971627     0.002087484104
      15       -0.000001460237     0.000003413396     0.000010958081
      16       -0.000950745337    -0.001196869720    -0.002138810519
      17        0.000005064498    -0.000004969544     0.000003356175
      18        0.000002382594     0.000004860487    -0.000001590711
      19        0.000010917252     0.000014039085     0.000022350481
      20        0.000012512247    -0.000005808130    -0.000003752738
      21       -0.000003305070    -0.000002736534     0.000006033681
      22        0.000007182364    -0.000009456818    -0.000015227741
      23        0.000000858270     0.000001857704     0.000000888941
      24       -0.000001052956     0.000002579460     0.000005086770
      25        0.000000358687     0.000004181561    -0.000008345804
      26       -0.000009479427    -0.000005533989     0.000000962920
      27        0.000001833720    -0.000001961658     0.000007187803

  **** Optimization is complete! (in 6 steps) ****
    Final optimized geometry and variables:
    Molecular point group: c1

    Geometry (in Angstrom), charge = 0, multiplicity = 1:

    H            2.174654755137    -3.321804139110     0.816067490945
    O            3.025528880613    -3.101234769318     0.485819276716
    C            2.913068142085    -2.465531367706    -0.760051634277
    C            2.365291082278    -1.049032421567    -0.670374660241
    H            3.913433288726    -2.441786374821    -1.170735924202
    H            2.301443586699    -3.060314225932    -1.435751401861
    C            0.922399440141    -0.964664492188    -0.179298661325
    H            3.009726278319    -0.470183744126    -0.015756465212
    H            2.434638394487    -0.600641035170    -1.658734186780
    C            0.378147753597     0.462822567007    -0.151810628101
    H            0.851329400961    -1.383263034897     0.821587661345
    H            0.287978865210    -1.576659670849    -0.817305665291
    C           -1.041784918706     0.553251668156     0.410904111917
    H            1.045405017108     1.064365660299     0.459413459759
    H            0.405698558561     0.875183152082    -1.156216266076
    C           -1.776928570636     1.828704353431     0.008056769968
    H           -1.619138131749    -0.299748595492     0.061565574348
    H           -1.008399214660     0.471477449283     1.493753632974
    C           -3.175816976230     1.939766192868     0.607257722849
    H           -1.846873707964     1.868707668005    -1.076148567731
    H           -1.190903849864     2.695659024482     0.305903613239
    C           -3.911292186552     3.206833288129     0.183661677227
    H           -3.760147238622     1.070617281969     0.317067251852
    H           -3.105230531354     1.910107937233     1.691130686813
    H           -4.028728854271     3.249497942406    -0.894134006057
    H           -4.899983314320     3.253992080700     0.625611960803
    H           -3.369220566430     4.095073084903     0.490841852454

  Mulliken Charges: (a.u.)
   Center  Symbol    Alpha    Beta     Spin     Total
       1     H     0.39235  0.39235  0.00000  0.21531
       2     O     4.20579  4.20579  0.00000 -0.41158
       3     C     2.97990  2.97990  0.00000  0.04021
       4     C     3.08923  3.08923  0.00000 -0.17846
       5     H     0.44861  0.44861  0.00000  0.10278
       6     H     0.46994  0.46994  0.00000  0.06013
       7     C     3.10209  3.10209  0.00000 -0.20418
       8     H     0.45089  0.45089  0.00000  0.09823
       9     H     0.45594  0.45594  0.00000  0.08812
      10     C     3.09020  3.09020  0.00000 -0.18041
      11     H     0.45712  0.45712  0.00000  0.08576
      12     H     0.45376  0.45376  0.00000  0.09247
      13     C     3.09020  3.09020  0.00000 -0.18040
      14     H     0.45209  0.45209  0.00000  0.09581
      15     H     0.45360  0.45360  0.00000  0.09280
      16     C     3.08650  3.08650  0.00000 -0.17300
      17     H     0.45647  0.45647  0.00000  0.08706
      18     H     0.45262  0.45262  0.00000  0.09477
      19     C     3.08451  3.08451  0.00000 -0.16902
      20     H     0.45518  0.45518  0.00000  0.08965
      21     H     0.45458  0.45458  0.00000  0.09084
      22     C     3.15021  3.15021  0.00000 -0.30042
      23     H     0.45487  0.45487  0.00000  0.09025
      24     H     0.45449  0.45449  0.00000  0.09101
      25     H     0.45538  0.45538  0.00000  0.08925
      26     H     0.44846  0.44846  0.00000  0.10309
      27     H     0.45503  0.45503  0.00000  0.08994

   Total alpha = 37.00000, Total beta = 37.00000, Total charge = -0.00000

*** Psi4 exiting successfully. Buy a developer a beer!
