                              Psi4 1.0.54 Driver

  ==> Input File <==

--------------------------------------------------------------------------
set {
	reference rhf
	basis cc-pvtz
}

set_num_threads( 4 )
memory 2 gb

molecule MOL {
0 1

H	 1.446530	 1.048537	 0.689494
C	 0.848385	 0.440008	 0.000011
C	 -0.623497	 0.751021	 0.000090
O	 1.368629	 -0.383552	 -0.669570
C	 -1.523725	 -0.474323	 -0.000013
H	 -0.813143	 1.382932	 -0.864897
H	 -0.813071	 1.382716	 0.865253
H	 -1.342980	 -1.087348	 -0.873016
H	 -2.565269	 -0.177464	 0.000070
H	 -1.342898	 -1.087564	 0.872820

	symmetry c1
}
set optking {
	frozen_dihedral = ("
		4 2 3 6
	")
}

ee,wfn = optimize('scf', return_wfn=True)
oeprop( wfn, 'DIPOLE', 'QUADRUPOLE', 'MULLIKEN_CHARGES')
f=open( 'psi4out.xyz', 'w' )
f.write( "10  " )
f.write( str(ee) + "\n" )
f.write( MOL.save_string_xyz() )
f.close()
--------------------------------------------------------------------------

    Molecular point group: c1
  Charge       = 0
  Multiplicity = 1
  Basis Set: CC-PVTZ
  Basis Set:
  @DF-RHF Final Energy:  -192.02168882961371
    Total Energy =                       -192.0216888296137654
    Molecular point group: c1
  Basis Set: CC-PVTZ
  Basis Set:
  Basis Set: CC-PVTZ
  Basis Set:
  @DF-RHF Final Energy:  -192.02142424396720
    Total Energy =                       -192.0214242439672887
  Basis Set: CC-PVTZ
  Basis Set:
  Basis Set: CC-PVTZ
  Basis Set:
  @DF-RHF Final Energy:  -192.02166637011265
    Total Energy =                       -192.0216663701126549
  Basis Set: CC-PVTZ
  Basis Set:
  Basis Set: CC-PVTZ
  Basis Set:
  @DF-RHF Final Energy:  -192.02234217955680
    Total Energy =                       -192.0223421795566878
  Basis Set: CC-PVTZ
  Basis Set:
  Charge       = 0
  Multiplicity = 1
  Basis Set: CC-PVTZ
  Basis Set:

    Orbital Energies (a.u.)
    -----------------------

    Doubly Occupied:

       1A    -20.553467     2A    -11.323706     3A    -11.238573
       4A    -11.221204     5A     -1.409284     6A     -1.060757
       7A     -0.908400     8A     -0.779099     9A     -0.686406
      10A     -0.640971    11A     -0.621633    12A     -0.557541
      13A     -0.536596    14A     -0.515274    15A     -0.494296
      16A     -0.415140

  @DF-RHF Final Energy:  -192.02234501279412

   => Energetics <=

    Nuclear Repulsion Energy =            119.0844475317196185
    One-Electron Energy =                -496.2888929606790498
    Two-Electron Energy =                 185.1821004161652979
    DFT Exchange-Correlation Energy =       0.0000000000000000
    Empirical Dispersion Energy =           0.0000000000000000
    PCM Polarization Energy =               0.0000000000000000
    EFP Energy =                            0.0000000000000000
    Total Energy =                       -192.0223450127941476
    Molecular point group: c1
  Basis Set: CC-PVTZ
  Basis Set:

  -Total Gradient:
     Atom            X                  Y                   Z
    ------   -----------------  -----------------  -----------------
       1       -0.000065515624    -0.000009500292    -0.000011741098
       2       -0.000404838658    -0.002505101749     0.002080407166
       3        0.000544174382     0.002586938016     0.000670631233
       4        0.000188043429     0.001576447100    -0.001574757157
       5        0.000056490733     0.000106217479     0.000008896221
       6       -0.000350877163    -0.001732186283    -0.001141184110
       7        0.000037349704    -0.000003326180    -0.000011048426
       8       -0.000003891174    -0.000010472060    -0.000012846833
       9       -0.000003681360    -0.000008594061    -0.000007766379
      10        0.000002745729    -0.000000421971    -0.000000590615

  **** Optimization is complete! (in 5 steps) ****
    Final optimized geometry and variables:
    Molecular point group: c1

    Geometry (in Angstrom), charge = 0, multiplicity = 1:

    H            1.474373576397     1.023244732670     0.801998665555
    C            0.839798778765     0.382964743929     0.178101337014
    C           -0.637765946777     0.696028588090     0.195573547091
    O            1.328509186086    -0.462604996569    -0.488064066811
    C           -1.516839624160    -0.550367412451     0.144507650419
    H           -0.823982559902     1.305389456029    -0.685738787418
    H           -0.865728817511     1.306707983101     1.061249018904
    H           -1.279113230673    -1.149181596958    -0.723087530866
    H           -2.562458822646    -0.273073205640     0.096751496082
    H           -1.372315777661    -1.165468631537     1.024847391936

  Mulliken Charges: (a.u.)
   Center  Symbol    Alpha    Beta     Spin     Total
       1     H     0.45463  0.45463  0.00000  0.09073
       2     C     2.91385  2.91385  0.00000  0.17230
       3     C     3.08391  3.08391  0.00000 -0.16781
       4     O     4.16670  4.16670  0.00000 -0.33340
       5     C     3.14250  3.14250  0.00000 -0.28499
       6     H     0.44624  0.44624  0.00000  0.10752
       7     H     0.44849  0.44849  0.00000  0.10301
       8     H     0.44170  0.44170  0.00000  0.11661
       9     H     0.44904  0.44904  0.00000  0.10193
      10     H     0.45294  0.45294  0.00000  0.09411

   Total alpha = 16.00000, Total beta = 16.00000, Total charge =  0.00000

*** Psi4 exiting successfully. Buy a developer a beer!
