  ==> Input File <==

--------------------------------------------------------------------------
set {
	reference rhf
	basis cc-pvtz
}

set_num_threads( 4 )
memory 2 gb

molecule MOL {
0 1

H	 2.555388	 -0.751045	 -1.325369
O	 1.836529	 -1.061409	 -0.795603
C	 0.868720	 -0.149711	 -0.823406
C	 -0.318151	 -0.570512	 0.000144
O	 0.969957	 0.857150	 -1.434922
C	 -1.454884	 0.441630	 -0.000560
H	 -0.646819	 -1.532391	 -0.380194
H	 0.041319	 -0.758553	 1.006783
C	 -2.822577	 -0.232186	 0.000063
H	 -1.359760	 1.084704	 -0.867077
H	 -1.359641	 1.085996	 0.864983
H	 -2.954352	 -0.858985	 -0.875745
H	 -3.615886	 0.505352	 0.000019
H	 -2.953878	 -0.858359	 0.876394

	symmetry c1
}
set optking {
	frozen_dihedral = ("
		7 4 6 10
	")
}

ee = optimize('scf')
oeprop('DIPOLE', 'QUADRUPOLE', 'MULLIKEN_CHARGES')
f=open( 'psi4out.xyz', 'w' )
f.write( "14  " )
f.write( str(ee) + "\n" )
f.write( MOL.save_string_xyz() )
f.close()
--------------------------------------------------------------------------

    Molecular point group: c1
  Charge       = 0
  Multiplicity = 1
  Basis Set: CC-PVTZ
  Basis Set:
  @DF-RHF Final Energy:  -305.99753873785437
    Total Energy =                       -305.9975387378542564
    Molecular point group: c1
  Basis Set: CC-PVTZ
  Basis Set:
  Basis Set: CC-PVTZ
  Basis Set:
  @DF-RHF Final Energy:  -305.99782230551216
    Total Energy =                       -305.9978223055122726
  Basis Set: CC-PVTZ
  Basis Set:
  Basis Set: CC-PVTZ
  Basis Set:
  @DF-RHF Final Energy:  -305.99774254205897
    Total Energy =                       -305.9977425420593136
  Basis Set: CC-PVTZ
  Basis Set:
  Basis Set: CC-PVTZ
  Basis Set:
  @DF-RHF Final Energy:  -305.99788835190748
    Total Energy =                       -305.9978883519075907
  Basis Set: CC-PVTZ
  Basis Set:
  Basis Set: CC-PVTZ
  Basis Set:
  @DF-RHF Final Energy:  -305.99788963557080
    Total Energy =                       -305.9978896355707434
  Basis Set: CC-PVTZ
  Basis Set:
  Charge       = 0
  Multiplicity = 1
  Basis Set: CC-PVTZ
  Basis Set:

    Orbital Energies (a.u.)
    -----------------------

    Doubly Occupied:

       1A    -20.604693     2A    -20.541693     3A    -11.374919
       4A    -11.239673     5A    -11.222745     6A    -11.215322
       7A     -1.478623     8A     -1.370086     9A     -1.082265
      10A     -0.981391    11A     -0.859915    12A     -0.792966
      13A     -0.705051    14A     -0.694789    15A     -0.665358
      16A     -0.616367    17A     -0.598121    18A     -0.572910
      19A     -0.550382    20A     -0.503684    21A     -0.492267
      22A     -0.485087    23A     -0.478034    24A     -0.449524

  @DF-RHF Final Energy:  -305.99789010385791

   => Energetics <=

    Nuclear Repulsion Energy =            240.3975108371001852
    One-Electron Energy =                -893.6390725749836292
    Two-Electron Energy =                 347.2436716340256453
    DFT Exchange-Correlation Energy =       0.0000000000000000
    Empirical Dispersion Energy =           0.0000000000000000
    PCM Polarization Energy =               0.0000000000000000
    EFP Energy =                            0.0000000000000000
    Total Energy =                       -305.9978901038577987
    Molecular point group: c1
  Basis Set: CC-PVTZ
  Basis Set:

  -Total Gradient:
     Atom            X                  Y                   Z
    ------   -----------------  -----------------  -----------------
       1       -0.000000935351    -0.000004603634    -0.000000264972
       2        0.000009882690     0.000002419481     0.000002582932
       3       -0.000000689481     0.000017615516    -0.000012385449
       4        0.001621344303     0.001866327215    -0.003815707374
       5       -0.000009696299    -0.000019763298     0.000004945498
       6       -0.002748651021    -0.003136785415    -0.001502291885
       7       -0.000895327894    -0.001041353677     0.003395822742
       8       -0.000000070974    -0.000009242983    -0.000003368824
       9       -0.000014394204     0.000005361924     0.000005729674
      10        0.002035256798     0.002314313303     0.001920954686
      11       -0.000006978818    -0.000005613398     0.000001985545
      12        0.000008849391     0.000009320008     0.000004603623
      13       -0.000004087356     0.000000905487     0.000000866223
      14        0.000005498219     0.000001099470    -0.000003472421

  **** Optimization is complete! (in 6 steps) ****
    Final optimized geometry and variables:
    Molecular point group: c1

    Geometry (in Angstrom), charge = 0, multiplicity = 1:

    H            2.696812024048    -0.620036364494    -0.749629287672
    O            1.960904791737    -0.930762908293    -0.244091119538
    C            0.997076731399    -0.016049011634    -0.298724069725
    C           -0.212784538073    -0.442344067682     0.487777468848
    O            1.122608756107     0.993007453993    -0.901912092070
    C           -1.364132947246     0.565540089996     0.494188999678
    H           -0.529243302806    -1.408127390917     0.108110946974
    H            0.132180130764    -0.649184470649     1.495516398629
    C           -2.733408827314    -0.101133166745     0.548496593645
    H           -1.280432831236     1.210798927587    -0.369192771576
    H           -1.250655928410     1.220784332473     1.351190683802
    H           -2.904013022493    -0.716223578732    -0.328618811546
    H           -3.522352079603     0.639938604903     0.592122056720
    H           -2.829597495103    -0.737421979651     1.422298220844

  Mulliken Charges: (a.u.)
   Center  Symbol    Alpha    Beta     Spin     Total
       1     H     0.38245  0.38245  0.00000  0.23511
       2     O     4.16010  4.16010  0.00000 -0.32021
       3     C     2.80176  2.80176  0.00000  0.39648
       4     C     3.11043  3.11043  0.00000 -0.22087
       5     O     4.19039  4.19039  0.00000 -0.38079
       6     C     3.08545  3.08545  0.00000 -0.17090
       7     H     0.43866  0.43866  0.00000  0.12269
       8     H     0.43596  0.43596  0.00000  0.12809
       9     C     3.14891  3.14891  0.00000 -0.29782
      10     H     0.43739  0.43739  0.00000  0.12521
      11     H     0.45231  0.45231  0.00000  0.09538
      12     H     0.45457  0.45457  0.00000  0.09085
      13     H     0.44642  0.44642  0.00000  0.10715
      14     H     0.45518  0.45518  0.00000  0.08963

   Total alpha = 24.00000, Total beta = 24.00000, Total charge =  0.00000
