  ==> Input File <==

--------------------------------------------------------------------------
set {
	reference rhf
	basis cc-pvtz
}

set_num_threads( 4 )
memory 2 gb

molecule MOL {
0 1

O	 -0.988175	 -1.402891	 0.050086
C	 -0.675048	 -0.248293	 -0.009686
C	 -1.742492	 0.826599	 -0.011538
N	 0.622280	 0.144970	 -0.099307
H	 -1.692153	 1.431066	 -0.908439
H	 -2.698310	 0.331559	 0.031353
H	 -1.642148	 1.483784	 0.843455
C	 1.159902	 0.490420	 -1.398374
C	 1.603552	 -0.069592	 0.937430
H	 1.829187	 1.336235	 -1.298991
H	 0.356951	 0.747376	 -2.065025
H	 1.718086	 -0.337661	 -1.827728
H	 2.319348	 0.742241	 0.923304
H	 1.152843	 -0.088854	 1.914868
H	 2.150787	 -0.998349	 0.792562

	symmetry c1
}
set optking {
	frozen_dihedral = ("
		8 4 2 3
	")
}

ee = optimize('scf')
oeprop('DIPOLE', 'QUADRUPOLE', 'MULLIKEN_CHARGES')
f=open( 'psi4out.xyz', 'w' )
f.write( "15  " )
f.write( str(ee) + "\n" )
f.write( MOL.save_string_xyz() )
f.close()
--------------------------------------------------------------------------

    Molecular point group: c1
  Charge       = 0
  Multiplicity = 1
  Basis Set: CC-PVTZ
  Basis Set:
  @DF-RHF Final Energy:  -286.10378213634908
    Total Energy =                       -286.1037821363489684
    Molecular point group: c1
  Basis Set: CC-PVTZ
  Basis Set:
  Basis Set: CC-PVTZ
  Basis Set:
  @DF-RHF Final Energy:  -286.11237287672429
    Total Energy =                       -286.1123728767245211
  Basis Set: CC-PVTZ
  Basis Set:
  Basis Set: CC-PVTZ
  Basis Set:
  @DF-RHF Final Energy:  -286.11793188763539
    Total Energy =                       -286.1179318876356206
  Basis Set: CC-PVTZ
  Basis Set:
  Basis Set: CC-PVTZ
  Basis Set:
  @DF-RHF Final Energy:  -286.12097203249209
    Total Energy =                       -286.1209720324920340
  Basis Set: CC-PVTZ
  Basis Set:
  @DF-RHF Final Energy:  -286.12219667094968
    Total Energy =                       -286.1221966709495632
  @DF-RHF Final Energy:  -286.12254931733384
    Total Energy =                       -286.1225493173335508
  @DF-RHF Final Energy:  -286.12267444080885
    Total Energy =                       -286.1226744408089644
  Basis Set: CC-PVTZ
  Basis Set:
  @DF-RHF Final Energy:  -286.12272043336031
    Total Energy =                       -286.1227204333601435
  Basis Set: CC-PVTZ
  Basis Set:
  Basis Set: CC-PVTZ
  Basis Set:
  @DF-RHF Final Energy:  -286.12272990578862
    Total Energy =                       -286.1227299057887308
  Basis Set: CC-PVTZ
  Basis Set:
  Basis Set: CC-PVTZ
  Basis Set:
  @DF-RHF Final Energy:  -286.12273568473796
    Total Energy =                       -286.1227356847379610
  Basis Set: CC-PVTZ
  Basis Set:
  Charge       = 0
  Multiplicity = 1
  Basis Set: CC-PVTZ
  Basis Set:

    Orbital Energies (a.u.)
    -----------------------

    Doubly Occupied:

       1A    -20.532905     2A    -15.566750     3A    -11.341405
       4A    -11.259716     5A    -11.242367     6A    -11.227039
       7A     -1.408927     8A     -1.238475     9A     -1.013880
      10A     -0.965654    11A     -0.904313    12A     -0.737720
      13A     -0.682794    14A     -0.659944    15A     -0.647251
      16A     -0.604472    17A     -0.583187    18A     -0.569478
      19A     -0.557335    20A     -0.538831    21A     -0.523398
      22A     -0.498229    23A     -0.427478    24A     -0.383973

  @DF-RHF Final Energy:  -286.12273580276849

   => Energetics <=

    Nuclear Repulsion Energy =            253.1217206380785285
    One-Electron Energy =                -890.2578707586062592
    Two-Electron Energy =                 351.0134143177593842
    DFT Exchange-Correlation Energy =       0.0000000000000000
    Empirical Dispersion Energy =           0.0000000000000000
    PCM Polarization Energy =               0.0000000000000000
    EFP Energy =                            0.0000000000000000
    Total Energy =                       -286.1227358027683749
    Molecular point group: c1
  Basis Set: CC-PVTZ
  Basis Set:

  -Total Gradient:
     Atom            X                  Y                   Z
    ------   -----------------  -----------------  -----------------
       1        0.000008711417    -0.000013913391    -0.000019413630
       2        0.001791024878    -0.005428256636    -0.009426407664
       3       -0.000323057149     0.001934473502     0.006693167045
       4       -0.004654841382     0.009859925384     0.002039178851
       5       -0.000004549842     0.000004491043    -0.000002180929
       6        0.000002615583     0.000000624194    -0.000000760256
       7        0.000003659429    -0.000000342664     0.000000853924
       8        0.003175846273    -0.006361864447     0.000722995193
       9       -0.000009996102     0.000011051398     0.000015964849
      10        0.000000784026    -0.000000150544    -0.000000162223
      11        0.000001702720     0.000004545086    -0.000010905903
      12        0.000002945953    -0.000000415818    -0.000001225016
      13       -0.000000197089     0.000002019666    -0.000004460807
      14       -0.000000070409    -0.000006338735    -0.000004475004
      15        0.000005421696    -0.000005848043    -0.000002168430

  **** Optimization is complete! (in 11 steps) ****
    Final optimized geometry and variables:
    Molecular point group: c1

    Geometry (in Angstrom), charge = 0, multiplicity = 1:

    O           -0.810772621728    -1.261219086007     0.595340219628
    C           -0.665980628409    -0.182240619289     0.122238223240
    C           -1.847649579413     0.703389853730    -0.189341297092
    N            0.590179832666     0.433863157109     0.003655514000
    H           -1.649298373954     1.418959582479    -0.973539510821
    H           -2.710488494508     0.102883444892    -0.434281922448
    H           -2.054131467109     1.260033276022     0.717719466047
    C            1.068088289658     0.523220630986    -1.370483796045
    C            1.603595394004    -0.165540658150     0.859684019270
    H            1.936196431550     1.166756319216    -1.405541295055
    H            0.312860863463     0.949495437766    -2.015807551258
    H            1.344973937887    -0.452522607201    -1.764124602463
    H            2.484095161094     0.462879330857     0.833917311186
    H            1.243738966936    -0.215596748484     1.875855696166
    H            1.877521868601    -1.168741383141     0.547520341709

  Mulliken Charges: (a.u.)
   Center  Symbol    Alpha    Beta     Spin     Total
       1     O     4.18565  4.18565  0.00000 -0.37129
       2     C     2.84088  2.84088  0.00000  0.31824
       3     C     3.13494  3.13494  0.00000 -0.26988
       4     N     3.60805  3.60805  0.00000 -0.21610
       5     H     0.45045  0.45045  0.00000  0.09910
       6     H     0.44075  0.44075  0.00000  0.11851
       7     H     0.44427  0.44427  0.00000  0.11146
       8     C     3.09242  3.09242  0.00000 -0.18485
       9     C     3.09089  3.09089  0.00000 -0.18179
      10     H     0.44951  0.44951  0.00000  0.10097
      11     H     0.44943  0.44943  0.00000  0.10113
      12     H     0.45787  0.45787  0.00000  0.08426
      13     H     0.45382  0.45382  0.00000  0.09235
      14     H     0.44427  0.44427  0.00000  0.11146
      15     H     0.45679  0.45679  0.00000  0.08642

   Total alpha = 24.00000, Total beta = 24.00000, Total charge =  0.00000
