  ==> Input File <==

--------------------------------------------------------------------------
set {
	reference rhf
	basis 6-31G*
}

set_num_threads( 4 )
memory 2 gb

molecule MOL {
0 1

H	 -2.646374	 -0.642757	 1.268656
C	 -2.083525	 -0.384536	 0.393091
O	 -0.807605	 -0.127164	 0.768327
F	 -2.118945	 -1.383102	 -0.486752
F	 -2.621877	 0.670592	 -0.209486
C	 0.034752	 -1.204991	 0.971820
C	 0.757869	 -0.961558	 2.290153
Cl	 1.195451	 -1.358788	 -0.357217
H	 -0.501017	 -2.135118	 1.046572
F	 1.572998	 -1.959464	 2.558269
F	 -0.135039	 -0.891376	 3.257226
F	 1.445760	 0.154078	 2.278461

	symmetry c1
}
set optking {
	frozen_dihedral = ("
		6 3 2 4
	")
}

ee = optimize('scf')
oeprop('DIPOLE', 'QUADRUPOLE', 'MULLIKEN_CHARGES')
f=open( 'psi4out.xyz', 'w' )
f.write( "12  " )
f.write( str(ee) + "\n" )
f.write( MOL.save_string_xyz() )
f.close()
--------------------------------------------------------------------------

    Molecular point group: c1
  Charge       = 0
  Multiplicity = 1
  Basis Set: 6-31G*
  Basis Set:
  @DF-RHF Final Energy: -1146.30710124311804
    Total Energy =                      -1146.3071012431182680
    Molecular point group: c1
  Basis Set: 6-31G*
  Basis Set:
  Basis Set: 6-31G*
  Basis Set:
  @DF-RHF Final Energy: -1146.30878075385181
    Total Energy =                      -1146.3087807538515790
  Basis Set: 6-31G*
  Basis Set:
  Basis Set: 6-31G*
  Basis Set:
  @DF-RHF Final Energy: -1146.30912075853121
    Total Energy =                      -1146.3091207585316624
  Basis Set: 6-31G*
  Basis Set:
  Basis Set: 6-31G*
  Basis Set:
  @DF-RHF Final Energy: -1146.30915422566090
    Total Energy =                      -1146.3091542256611319
  Basis Set: 6-31G*
  Basis Set:
  Basis Set: 6-31G*
  Basis Set:
  @DF-RHF Final Energy: -1146.30915814463992
    Total Energy =                      -1146.3091581446396958
  Basis Set: 6-31G*
  Basis Set:
  Charge       = 0
  Multiplicity = 1
  Basis Set: 6-31G*
  Basis Set:

    Orbital Energies (a.u.)
    -----------------------

    Doubly Occupied:

       1A   -104.844198     2A    -26.363288     3A    -26.363250
       4A    -26.360430     5A    -26.350522     6A    -26.346220
       7A    -20.646963     8A    -11.530434     9A    -11.492085
      10A    -11.404404    11A    -10.578949    12A     -8.048305
      13A     -8.044752    14A     -8.044659    15A     -1.764366
      16A     -1.719844    17A     -1.660846    18A     -1.659833
      19A     -1.643912    20A     -1.484326    21A     -1.179553
      22A     -1.051960    23A     -0.986990    24A     -0.927475
      25A     -0.860159    26A     -0.852160    27A     -0.842242
      28A     -0.837041    29A     -0.818714    30A     -0.790436
      31A     -0.731526    32A     -0.728501    33A     -0.702133
      34A     -0.697986    35A     -0.682167    36A     -0.677761
      37A     -0.663106    38A     -0.661540    39A     -0.645685
      40A     -0.633970    41A     -0.615449    42A     -0.573976
      43A     -0.514698    44A     -0.476686    45A     -0.469637

  @DF-RHF Final Energy: -1146.30915895512680

   => Energetics <=

    Nuclear Repulsion Energy =            730.1750786644020081
    One-Electron Energy =               -3043.0221944703389454
    Two-Electron Energy =                1166.5379568508096781
    DFT Exchange-Correlation Energy =       0.0000000000000000
    Empirical Dispersion Energy =           0.0000000000000000
    PCM Polarization Energy =               0.0000000000000000
    EFP Energy =                            0.0000000000000000
    Total Energy =                      -1146.3091589551272591
    Molecular point group: c1
  Basis Set: 6-31G*
  Basis Set:

  -Total Gradient:
     Atom            X                  Y                   Z
    ------   -----------------  -----------------  -----------------
       1        0.000009387469     0.000027230707    -0.000007783853
       2        0.000411091649     0.001169794751    -0.001791441024
       3       -0.000616636261    -0.000361139476     0.002151979014
       4       -0.000170472316    -0.000808516218     0.000842331707
       5       -0.000025321850    -0.000085376026     0.000019887670
       6        0.000433385754     0.000062016013    -0.001239123088
       7        0.000019987619    -0.000045986857    -0.000002247231
       8       -0.000029999683     0.000028880910     0.000009692648
       9       -0.000005037758     0.000009342511     0.000014476893
      10        0.000014520558    -0.000027929949     0.000046164747
      11       -0.000023175812     0.000044130249    -0.000020342976
      12       -0.000017729386    -0.000012446610    -0.000023594479

  **** Optimization is complete! (in 6 steps) ****
    Final optimized geometry and variables:
    Molecular point group: c1

    Geometry (in Angstrom), charge = 0, multiplicity = 1:

    H           -2.598600555753     0.135615241820     0.208594133626
    C           -1.968460245433     0.404915618012    -0.623037007806
    O           -0.684031757611     0.654041876531    -0.235683851399
    F           -2.004599062602    -0.580412589351    -1.517219837090
    F           -2.421209169643     1.503038092255    -1.185856592133
    C            0.167741773621    -0.408596382914    -0.038888947109
    C            0.900807883182    -0.152628979959     1.271432198018
    CL           1.314773344835    -0.568521222943    -1.379491800957
    H           -0.352270717159    -1.347910411464     0.048375145518
    F            1.721240291581    -1.144239543185     1.544329691550
    F            0.006208526260    -0.086244690551     2.241706999141
    F            1.579202367564     0.966687219096     1.255969654424

  Mulliken Charges: (a.u.)
   Center  Symbol    Alpha    Beta     Spin     Total
       1     H     0.41586  0.41586  0.00000  0.16829
       2     C     2.56737  2.56737  0.00000  0.86527
       3     O     4.30086  4.30086  0.00000 -0.60171
       4     F     4.68264  4.68264  0.00000 -0.36527
       5     F     4.66891  4.66891  0.00000 -0.33782
       6     C     3.03985  3.03985  0.00000 -0.07971
       7     C     2.43316  2.43316  0.00000  1.13367
       8    CL     8.49846  8.49846  0.00000  0.00307
       9     H     0.37271  0.37271  0.00000  0.25457
      10     F     4.67355  4.67355  0.00000 -0.34711
      11     F     4.68027  4.68027  0.00000 -0.36054
      12     F     4.66635  4.66635  0.00000 -0.33270

   Total alpha = 45.00000, Total beta = 45.00000, Total charge = -0.00000
