  ==> Input File <==

--------------------------------------------------------------------------
set {
	reference rhf
	basis 6-31G*
}

set_num_threads( 1 )
memory 2 gb

molecule MOL {
0 1

O	 -0.682937	 1.318834	 -0.186099
C	 -0.860635	 0.152188	 -0.042321
C	 -2.173363	 -0.477127	 0.338347
O	 0.083258	 -0.765189	 -0.202595
H	 -2.477673	 -1.180929	 -0.427595
H	 -2.923125	 0.290956	 0.455536
H	 -2.058825	 -1.029004	 1.264191
C	 0.408394	 -1.179386	 -1.527557
C	 1.400258	 -0.233390	 -2.178667
H	 -0.498558	 -1.257110	 -2.107676
H	 0.835118	 -2.164644	 -1.406420
H	 1.685601	 -0.615031	 -3.154198
H	 0.965796	 0.749394	 -2.311879
H	 2.295445	 -0.143200	 -1.572927

	symmetry c1
}
set optking {
	frozen_dihedral = ("
		10 8 4 2
	")
}

ee = energy('scf')
oeprop('DIPOLE', 'QUADRUPOLE', 'MULLIKEN_CHARGES')
f=open( 'psi4out.xyz', 'w' )
f.write( "14  " )
f.write( str(ee) + "\n" )
f.write( MOL.save_string_xyz() )
f.close()
--------------------------------------------------------------------------

    Molecular point group: c1

    Geometry (in Angstrom), charge = 0, multiplicity = 1:

       Center              X                  Y                   Z               Mass
    ------------   -----------------  -----------------  -----------------  -----------------
           O         -0.382102411392     1.516312980832     0.455256826729    15.994914619560
           C         -0.559800411392     0.349666980832     0.599034826729    12.000000000000
           C         -1.872528411392    -0.279648019168     0.979702826729    12.000000000000
           O          0.384092588608    -0.567710019168     0.438760826729    15.994914619560
           H         -2.176838411392    -0.983450019168     0.213760826729     1.007825032070
           H         -2.622290411392     0.488434980832     1.096891826729     1.007825032070
           H         -1.757990411392    -0.831525019168     1.905546826729     1.007825032070
           C          0.709228588608    -0.981907019168    -0.886201173271    12.000000000000
           C          1.701092588608    -0.035911019168    -1.537311173271    12.000000000000
           H         -0.197723411392    -1.059631019168    -1.466320173271     1.007825032070
           H          1.135952588608    -1.967165019168    -0.765064173271     1.007825032070
           H          1.986435588608    -0.417552019168    -2.512842173271     1.007825032070
           H          1.266630588608     0.946872980832    -1.670523173271     1.007825032070
           H          2.596279588608     0.054278980832    -0.931571173271     1.007825032070

  Charge       = 0
  Multiplicity = 1
  Basis Set: 6-31G*
  Basis Set:

    Orbital Energies (a.u.)
    -----------------------

    Doubly Occupied:

       1A    -20.584481     2A    -20.554453     3A    -11.376767
       4A    -11.299018     5A    -11.234067     6A    -11.218603
       7A     -1.462563     8A     -1.366495     9A     -1.051593
      10A     -1.003786    11A     -0.886452    12A     -0.771443
      13A     -0.692727    14A     -0.683045    15A     -0.667518
      16A     -0.606926    17A     -0.590879    18A     -0.578967
      19A     -0.555857    20A     -0.539743    21A     -0.516532
      22A     -0.484150    23A     -0.451866    24A     -0.436738

  @DF-RHF Final Energy:  -305.85536968600343

   => Energetics <=

    Nuclear Repulsion Energy =            248.6810340635589682
    One-Electron Energy =                -909.8436179025435422
    Two-Electron Energy =                 355.3072141529822829
    DFT Exchange-Correlation Energy =       0.0000000000000000
    Empirical Dispersion Energy =           0.0000000000000000
    PCM Polarization Energy =               0.0000000000000000
    EFP Energy =                            0.0000000000000000
    Total Energy =                       -305.8553696860022910

  Mulliken Charges: (a.u.)
   Center  Symbol    Alpha    Beta     Spin     Total
       1     O     4.25904  4.25904  0.00000 -0.51808
       2     C     2.63009  2.63009  0.00000  0.73981
       3     C     3.28257  3.28257  0.00000 -0.56515
       4     O     4.31171  4.31171  0.00000 -0.62343
       5     H     0.40733  0.40733  0.00000  0.18535
       6     H     0.39928  0.39928  0.00000  0.20145
       7     H     0.39860  0.39860  0.00000  0.20280
       8     C     3.00612  3.00612  0.00000 -0.01225
       9     C     3.24846  3.24846  0.00000 -0.49693
      10     H     0.42034  0.42034  0.00000  0.15931
      11     H     0.40561  0.40561  0.00000  0.18879
      12     H     0.42162  0.42162  0.00000  0.15675
      13     H     0.40082  0.40082  0.00000  0.19836
      14     H     0.40840  0.40840  0.00000  0.18320

   Total alpha = 24.00000, Total beta = 24.00000, Total charge =  0.00000
