  ==> Input File <==

--------------------------------------------------------------------------
set {
	reference rhf
	basis 6-31G*
}

set_num_threads( 1 )
memory 2 gb

molecule MOL {
0 1

O	 -2.635017	 -0.786502	 0.377280
C	 -1.921153	 0.064240	 -0.045697
C	 -2.348099	 1.162855	 -0.981170
O	 -0.632575	 0.154573	 0.251549
H	 -1.768866	 1.110699	 -1.895891
H	 -3.399931	 1.061702	 -1.203100
H	 -2.155666	 2.127204	 -0.525366
C	 0.160891	 -1.019931	 0.106212
C	 1.589627	 -0.672828	 0.480843
H	 0.089836	 -1.367806	 -0.916050
H	 -0.238459	 -1.792301	 0.749618
C	 2.246377	 0.346236	 -0.452210
H	 2.163194	 -1.597435	 0.473358
H	 1.604769	 -0.303424	 1.502885
C	 3.691736	 0.652107	 -0.061850
H	 2.219579	 -0.032311	 -1.472055
H	 1.666466	 1.263317	 -0.447249
H	 4.134505	 1.377213	 -0.737283
H	 4.305508	 -0.243868	 -0.089969
H	 3.748266	 1.059562	 0.943567

	symmetry c1
}
set optking {
	frozen_dihedral = ("
		16 12 9 8,
		2 4 8 10,
		12 9 8 10
	")
}

ee = energy('scf')
oeprop('DIPOLE', 'QUADRUPOLE', 'MULLIKEN_CHARGES')
f=open( 'psi4out.xyz', 'w' )
f.write( "20  " )
f.write( str(ee) + "\n" )
f.write( MOL.save_string_xyz() )
f.close()
--------------------------------------------------------------------------

    Molecular point group: c1

    Geometry (in Angstrom), charge = 0, multiplicity = 1:

       Center              X                  Y                   Z               Mass
    ------------   -----------------  -----------------  -----------------  -----------------
           O         -2.645644530206    -0.777610867288     0.420647319248    15.994914619560
           C         -1.931780530206     0.073131132712    -0.002329680752    12.000000000000
           C         -2.358726530206     1.171746132712    -0.937802680752    12.000000000000
           O         -0.643202530206     0.163464132712     0.294916319248    15.994914619560
           H         -1.779493530206     1.119590132712    -1.852523680752     1.007825032070
           H         -3.410558530206     1.070593132712    -1.159732680752     1.007825032070
           H         -2.166293530206     2.136095132712    -0.481998680752     1.007825032070
           C          0.150263469794    -1.011039867288     0.149579319248    12.000000000000
           C          1.578999469794    -0.663936867288     0.524210319248    12.000000000000
           H          0.079208469794    -1.358914867288    -0.872682680752     1.007825032070
           H         -0.249086530206    -1.783409867288     0.792985319248     1.007825032070
           C          2.235749469794     0.355127132712    -0.408842680752    12.000000000000
           H          2.152566469794    -1.588543867288     0.516725319248     1.007825032070
           H          1.594141469794    -0.294532867288     1.546252319248     1.007825032070
           C          3.681108469794     0.660998132712    -0.018482680752    12.000000000000
           H          2.208951469794    -0.023419867288    -1.428687680752     1.007825032070
           H          1.655838469794     1.272208132712    -0.403881680752     1.007825032070
           H          4.123877469794     1.386104132712    -0.693915680752     1.007825032070
           H          4.294880469794    -0.234976867288    -0.046601680752     1.007825032070
           H          3.737638469794     1.068453132712     0.986934319248     1.007825032070

  Charge       = 0
  Multiplicity = 1
  Basis Set: 6-31G*
  Basis Set:

    Orbital Energies (a.u.)
    -----------------------

    Doubly Occupied:

       1A    -20.590814     2A    -20.549012     3A    -11.375207
       4A    -11.288748     5A    -11.233413     6A    -11.227635
       7A    -11.222365     8A    -11.214675     9A     -1.464733
      10A     -1.363611    11A     -1.086924    12A     -1.026411
      13A     -0.984735    14A     -0.882730    15A     -0.812325
      16A     -0.777964    17A     -0.693474    18A     -0.683606
      19A     -0.656965    20A     -0.634578    21A     -0.607960
      22A     -0.594019    23A     -0.571506    24A     -0.562162
      25A     -0.545963    26A     -0.526114    27A     -0.507574
      28A     -0.484949    29A     -0.477639    30A     -0.475113
      31A     -0.447372    32A     -0.436151

  @DF-RHF Final Energy:  -383.93401420799142

   => Energetics <=

    Nuclear Repulsion Energy =            385.3706737333608885
    One-Electron Energy =               -1286.5963947718678355
    Two-Electron Energy =                 517.2917068305157500
    DFT Exchange-Correlation Energy =       0.0000000000000000
    Empirical Dispersion Energy =           0.0000000000000000
    PCM Polarization Energy =               0.0000000000000000
    EFP Energy =                            0.0000000000000000
    Total Energy =                       -383.9340142079911402

  Mulliken Charges: (a.u.)
   Center  Symbol    Alpha    Beta     Spin     Total
       1     O     4.27070  4.27070  0.00000 -0.54141
       2     C     2.62032  2.62032  0.00000  0.75935
       3     C     3.28329  3.28329  0.00000 -0.56658
       4     O     4.31201  4.31201  0.00000 -0.62401
       5     H     0.40439  0.40439  0.00000  0.19121
       6     H     0.39852  0.39852  0.00000  0.20296
       7     H     0.39964  0.39964  0.00000  0.20073
       8     C     3.00479  3.00479  0.00000 -0.00958
       9     C     3.16477  3.16477  0.00000 -0.32953
      10     H     0.42023  0.42023  0.00000  0.15954
      11     H     0.40191  0.40191  0.00000  0.19618
      12     C     3.15516  3.15516  0.00000 -0.31032
      13     H     0.41841  0.41841  0.00000  0.16317
      14     H     0.41086  0.41086  0.00000  0.17828
      15     C     3.24053  3.24053  0.00000 -0.48106
      16     H     0.42472  0.42472  0.00000  0.15057
      17     H     0.41089  0.41089  0.00000  0.17821
      18     H     0.41753  0.41753  0.00000  0.16494
      19     H     0.42165  0.42165  0.00000  0.15669
      20     H     0.41967  0.41967  0.00000  0.16066

   Total alpha = 32.00000, Total beta = 32.00000, Total charge =  0.00000
