  ==> Input File <==

--------------------------------------------------------------------------
set {
	reference rhf
	basis 6-31G*
}

set_num_threads( 4 )
memory 2 gb

molecule MOL {
0 1

O	 1.362844	 2.139343	 0.060452
C	 0.274821	 2.607605	 0.160722
C	 -1.019475	 1.831308	 0.155185
O	 0.054167	 3.908960	 0.298285
C	 -0.823008	 0.326187	 0.001381
H	 -1.543836	 2.067792	 1.077050
H	 -1.634917	 2.231942	 -0.645716
C	 -2.149452	 -0.435131	 -0.000098
H	 -0.190640	 -0.035920	 0.805854
H	 -0.282856	 0.128253	 -0.919144
C	 -3.368779	 0.488503	 -0.000883
H	 -2.193746	 -1.087250	 -0.871175
H	 -2.195311	 -1.087803	 0.870418
C	 -4.693822	 -0.272754	 -0.001129
H	 -3.325798	 1.139422	 -0.871284
H	 -3.326423	 1.139959	 0.869145
H	 -4.781274	 -0.907928	 -0.878124
H	 -5.538651	 0.408946	 -0.001420
H	 -4.781694	 -0.907783	 0.875984
C	 1.189762	 4.754455	 0.321021
H	 1.836312	 4.500242	 1.148594
H	 0.808949	 5.757015	 0.438197
H	 1.744876	 4.670229	 -0.602159

	symmetry c1
}
set optking {
	frozen_dihedral = ("
		9 5 8 12
	")
}

ee = optimize('scf')
oeprop('DIPOLE', 'QUADRUPOLE', 'MULLIKEN_CHARGES')
f=open( 'psi4out.xyz', 'w' )
f.write( "23  " )
f.write( str(ee) + "\n" )
f.write( MOL.save_string_xyz() )
f.close()
--------------------------------------------------------------------------

    Molecular point group: c1
  Charge       = 0
  Multiplicity = 1
  Basis Set: 6-31G*
  Basis Set:
  @DF-RHF Final Energy:  -422.96119014761979
    Total Energy =                       -422.9611901476199591
    Molecular point group: c1
  Basis Set: 6-31G*
  Basis Set:
  Basis Set: 6-31G*
  Basis Set:
  @DF-RHF Final Energy:  -422.96081092172813
    Total Energy =                       -422.9608109217278979
  Basis Set: 6-31G*
  Basis Set:
  Basis Set: 6-31G*
  Basis Set:
  @DF-RHF Final Energy:  -422.96549353880931
    Total Energy =                       -422.9654935388085732
  Basis Set: 6-31G*
  Basis Set:
  Basis Set: 6-31G*
  Basis Set:
  @DF-RHF Final Energy:  -422.96623651401251
    Total Energy =                       -422.9662365140117117
  Basis Set: 6-31G*
  Basis Set:
  Basis Set: 6-31G*
  Basis Set:
  @DF-RHF Final Energy:  -422.96501809976519
    Total Energy =                       -422.9650180997653024
  Basis Set: 6-31G*
  Basis Set:
  Basis Set: 6-31G*
  Basis Set:
  @DF-RHF Final Energy:  -422.96603494488130
    Total Energy =                       -422.9660349448804482
  Basis Set: 6-31G*
  Basis Set:
  Basis Set: 6-31G*
  Basis Set:
  @DF-RHF Final Energy:  -422.96637770499467
    Total Energy =                       -422.9663777049947839
  Basis Set: 6-31G*
  Basis Set:
  Charge       = 0
  Multiplicity = 1
  Basis Set: 6-31G*
  Basis Set:

    Orbital Energies (a.u.)
    -----------------------

    Doubly Occupied:

       1A    -20.603274     2A    -20.545258     3A    -11.371922
       4A    -11.280638     5A    -11.234892     6A    -11.219582
       7A    -11.219456     8A    -11.218031     9A    -11.211271
      10A     -1.469044    11A     -1.362518    12A     -1.090218
      13A     -1.041883    14A     -0.985817    15A     -0.932403
      16A     -0.854029    17A     -0.792365    18A     -0.758633
      19A     -0.698648    20A     -0.683526    21A     -0.670372
      22A     -0.650188    23A     -0.608706    24A     -0.601275
      25A     -0.577347    26A     -0.560039    27A     -0.549108
      28A     -0.524431    29A     -0.522724    30A     -0.512103
      31A     -0.496747    32A     -0.466726    33A     -0.458020
      34A     -0.456087    35A     -0.450102    36A     -0.437601

  @DF-RHF Final Energy:  -422.96637865142264

   => Energetics <=

    Nuclear Repulsion Energy =            458.2061688250090015
    One-Electron Energy =               -1484.1151245649716657
    Two-Electron Energy =                 602.9425770885402471
    DFT Exchange-Correlation Energy =       0.0000000000000000
    Empirical Dispersion Energy =           0.0000000000000000
    PCM Polarization Energy =               0.0000000000000000
    EFP Energy =                            0.0000000000000000
    Total Energy =                       -422.9663786514224739
    Molecular point group: c1
  Basis Set: 6-31G*
  Basis Set:

  -Total Gradient:
     Atom            X                  Y                   Z
    ------   -----------------  -----------------  -----------------
       1       -0.000004107137    -0.000015199406    -0.000002447019
       2        0.000031778317    -0.000015702118    -0.000004846615
       3        0.000011990986    -0.000004101153     0.000022709396
       4       -0.000037535050    -0.000001062317     0.000006964940
       5        0.000848510992    -0.001342236563    -0.001766917915
       6        0.000013631406     0.000004960878    -0.000004404703
       7       -0.000017980220     0.000001364838    -0.000016301587
       8        0.000865434834    -0.001467710375     0.001604556211
       9       -0.000838219428     0.001395824225     0.001254877113
      10        0.000014964744     0.000004971446     0.000000397979
      11        0.000009513355    -0.000004230939    -0.000012808283
      12       -0.000902522023     0.001481175172    -0.001074748019
      13       -0.000008927825    -0.000006858242    -0.000005909751
      14        0.000003575170    -0.000021849887     0.000010538222
      15        0.000013311956     0.000008570227    -0.000006718710
      16       -0.000002579053    -0.000003429177     0.000002404335
      17       -0.000004078503     0.000001884982    -0.000002704946
      18        0.000010268126     0.000005509554     0.000004139372
      19       -0.000002939584    -0.000008141394    -0.000001306249
      20       -0.000004437239    -0.000012913973    -0.000012073699
      21       -0.000001175112    -0.000002311568     0.000000707045
      22       -0.000000929750     0.000000020423     0.000001656657
      23        0.000002451037     0.000001465373     0.000002236227

  **** Optimization is complete! (in 8 steps) ****
    Final optimized geometry and variables:
    Molecular point group: c1

    Geometry (in Angstrom), charge = 0, multiplicity = 1:

    O            2.377003446201     0.373632655438    -0.059421587956
    C            1.318191554273     0.902555863341     0.051434373478
    C           -0.021807234949     0.206007739215     0.054801428634
    O            1.174139081845     2.214784140645     0.190773610311
    C            0.106563590786    -1.310009490168    -0.103261007188
    H           -0.516340513300     0.476565764078     0.982228087530
    H           -0.612364171652     0.652548964631    -0.738147005828
    C           -1.223031827752    -2.114289104492    -0.106190030626
    H            0.736088600290    -1.665138719895     0.704165393003
    H            0.656213033004    -1.507873307277    -1.015603300266
    C           -2.535394239456    -1.319993377972    -0.116677529296
    H           -1.231754220586    -2.758629428301    -0.980983036888
    H           -1.238058888024    -2.776591875331     0.754757768507
    C           -3.756199131385    -2.240082867870    -0.133103289391
    H           -2.572005507659    -0.669861486742    -0.987081434761
    H           -2.593690553385    -0.673020483473     0.754285651545
    H           -3.755499160968    -2.877723954898    -1.012559247617
    H           -4.678542955166    -1.667629115391    -0.140183873721
    H           -3.773334835842    -2.884662671111     0.741158900248
    C            2.356813446662     2.993150534943     0.204040159354
    H            2.994433146821     2.701862569923     1.026314420127
    H            2.035567058660     4.016072260973     0.324231651769
    H            2.898600542246     2.877375705063    -0.723643564639

  Mulliken Charges: (a.u.)
   Center  Symbol    Alpha    Beta     Spin     Total
       1     O     4.28595  4.28595  0.00000 -0.57190
       2     C     2.60456  2.60456  0.00000  0.79088
       3     C     3.21135  3.21135  0.00000 -0.42270
       4     O     4.30766  4.30766  0.00000 -0.61533
       5     C     3.15747  3.15747  0.00000 -0.31494
       6     H     0.39999  0.39999  0.00000  0.20001
       7     H     0.39950  0.39950  0.00000  0.20101
       8     C     3.15620  3.15620  0.00000 -0.31241
       9     H     0.40929  0.40929  0.00000  0.18142
      10     H     0.40896  0.40896  0.00000  0.18208
      11     C     3.15660  3.15660  0.00000 -0.31320
      12     H     0.41914  0.41914  0.00000  0.16172
      13     H     0.41940  0.41940  0.00000  0.16120
      14     C     3.23897  3.23897  0.00000 -0.47795
      15     H     0.42266  0.42266  0.00000  0.15469
      16     H     0.42251  0.42251  0.00000  0.15498
      17     H     0.42100  0.42100  0.00000  0.15800
      18     H     0.41859  0.41859  0.00000  0.16283
      19     H     0.42107  0.42107  0.00000  0.15787
      20     C     3.09233  3.09233  0.00000 -0.18466
      21     H     0.40915  0.40915  0.00000  0.18169
      22     H     0.40850  0.40850  0.00000  0.18300
      23     H     0.40915  0.40915  0.00000  0.18169

   Total alpha = 36.00000, Total beta = 36.00000, Total charge =  0.00000
