  ==> Input File <==

--------------------------------------------------------------------------
set {
	reference rhf
	basis 6-31G*
}

set_num_threads( 1 )
memory 2 gb

molecule MOL {
0 1

H	 3.893188	 0.355400	 -0.101367
N	 3.092854	 -0.246221	 -0.068770
C	 1.865559	 0.531981	 0.018834
H	 3.199514	 -0.826043	 0.741946
C	 0.645745	 -0.382037	 -0.029944
H	 1.841966	 1.207024	 -0.831236
H	 1.815756	 1.155410	 0.915079
C	 -0.679275	 0.379305	 0.025956
H	 0.698998	 -0.976915	 -0.937203
H	 0.693479	 -1.083846	 0.802235
C	 -1.771008	 -0.246377	 -0.844110
H	 -0.517402	 1.408829	 -0.289841
H	 -1.028178	 0.428532	 1.056340
C	 -3.092044	 0.519958	 -0.788395
H	 -1.425173	 -0.295397	 -1.874260
H	 -1.936806	 -1.274464	 -0.529143
H	 -2.966217	 1.543505	 -1.130207
H	 -3.845131	 0.052578	 -1.415308
H	 -3.481851	 0.556683	 0.225061

	symmetry c1
}
set optking {
	frozen_dihedral = ("
		6 3 5 9,
		12 8 11 15,
		1 2 3 6
	")
}

ee = energy('scf')
oeprop('DIPOLE', 'QUADRUPOLE', 'MULLIKEN_CHARGES')
f=open( 'psi4out.xyz', 'w' )
f.write( "19  " )
f.write( str(ee) + "\n" )
f.write( MOL.save_string_xyz() )
f.close()
--------------------------------------------------------------------------

    Molecular point group: c1

    Geometry (in Angstrom), charge = 0, multiplicity = 1:

       Center              X                  Y                   Z               Mass
    ------------   -----------------  -----------------  -----------------  -----------------
           H          3.848926344563     0.258332770238     0.171512996440     1.007825032070
           N          3.048592344563    -0.343288229762     0.204109996440    14.003074004780
           C          1.821297344563     0.434913770238     0.291713996440    12.000000000000
           H          3.155252344563    -0.923110229762     1.014825996440     1.007825032070
           C          0.601483344563    -0.479104229762     0.242935996440    12.000000000000
           H          1.797704344563     1.109956770238    -0.558356003560     1.007825032070
           H          1.771494344563     1.058342770238     1.187958996440     1.007825032070
           C         -0.723536655437     0.282237770238     0.298835996440    12.000000000000
           H          0.654736344563    -1.073982229762    -0.664323003560     1.007825032070
           H          0.649217344563    -1.180913229762     1.075114996440     1.007825032070
           C         -1.815269655437    -0.343444229762    -0.571230003560    12.000000000000
           H         -0.561663655437     1.311761770238    -0.016961003560     1.007825032070
           H         -1.072439655437     0.331464770238     1.329219996440     1.007825032070
           C         -3.136305655437     0.422890770238    -0.515515003560    12.000000000000
           H         -1.469434655437    -0.392464229762    -1.601380003560     1.007825032070
           H         -1.981067655437    -1.371531229762    -0.256263003560     1.007825032070
           H         -3.010478655437     1.446437770238    -0.857327003560     1.007825032070
           H         -3.889392655437    -0.044489229762    -1.142428003560     1.007825032070
           H         -3.526112655437     0.459615770238     0.497940996440     1.007825032070

  Charge       = 0
  Multiplicity = 1
  Basis Set: 6-31G*
  Basis Set:

    Orbital Energies (a.u.)
    -----------------------

    Doubly Occupied:

       1A    -15.532348     2A    -11.240111     3A    -11.213727
       4A    -11.211830     5A    -11.208407     6A    -11.206933
       7A     -1.176593     8A     -1.072754     9A     -0.997955
      10A     -0.899738    11A     -0.814574    12A     -0.788515
      13A     -0.661881    14A     -0.639486    15A     -0.621560
      16A     -0.585437    17A     -0.569093    18A     -0.549212
      19A     -0.525665    20A     -0.500682    21A     -0.480628
      22A     -0.465673    23A     -0.456021    24A     -0.449688
      25A     -0.380906

  @DF-RHF Final Energy:  -251.34828202350903

   => Energetics <=

    Nuclear Repulsion Energy =            246.1141082615012863
    One-Electron Energy =                -826.4257789205224753
    Two-Electron Energy =                 328.9633886355119330
    DFT Exchange-Correlation Energy =       0.0000000000000000
    Empirical Dispersion Energy =           0.0000000000000000
    PCM Polarization Energy =               0.0000000000000000
    EFP Energy =                            0.0000000000000000
    Total Energy =                       -251.3482820235092277

  Mulliken Charges: (a.u.)
   Center  Symbol    Alpha    Beta     Spin     Total
       1     H     0.33256  0.33256  0.00000  0.33487
       2     N     3.92197  3.92197  0.00000 -0.84395
       3     C     3.06265  3.06265  0.00000 -0.12530
       4     H     0.33536  0.33536  0.00000  0.32928
       5     C     3.15280  3.15280  0.00000 -0.30560
       6     H     0.42067  0.42067  0.00000  0.15866
       7     H     0.43436  0.43436  0.00000  0.13129
       8     C     3.15625  3.15625  0.00000 -0.31250
       9     H     0.41157  0.41157  0.00000  0.17687
      10     H     0.42587  0.42587  0.00000  0.14826
      11     C     3.15243  3.15243  0.00000 -0.30486
      12     H     0.42356  0.42356  0.00000  0.15288
      13     H     0.42249  0.42249  0.00000  0.15502
      14     C     3.23979  3.23979  0.00000 -0.47957
      15     H     0.42158  0.42158  0.00000  0.15683
      16     H     0.42239  0.42239  0.00000  0.15522
      17     H     0.42203  0.42203  0.00000  0.15594
      18     H     0.41941  0.41941  0.00000  0.16118
      19     H     0.42226  0.42226  0.00000  0.15548

   Total alpha = 25.00000, Total beta = 25.00000, Total charge = -0.00000
