  ==> Input File <==

--------------------------------------------------------------------------
set {
	reference rhf
	basis 6-31G*
}

set_num_threads( 1 )
memory 2 gb

molecule MOL {
0 1

H	 -2.272418	 0.282195	 0.827002
N	 -1.852125	 0.165761	 -0.074816
C	 -0.563778	 -0.502042	 0.037919
H	 -1.739537	 1.083231	 -0.462536
C	 0.575259	 0.508231	 -0.048326
H	 -0.482092	 -1.204004	 -0.786564
H	 -0.460411	 -1.085169	 0.956626
C	 1.954651	 -0.143624	 0.035137
H	 0.475158	 1.060484	 -0.977307
H	 0.469181	 1.234488	 0.755973
H	 2.103292	 -0.853109	 -0.774172
H	 2.742821	 0.599562	 -0.030094
H	 2.083613	 -0.679371	 0.971560

	symmetry c1
}
set optking {
	frozen_dihedral = ("
		6 3 5 9
	")
}

ee = energy('scf')
oeprop('DIPOLE', 'QUADRUPOLE', 'MULLIKEN_CHARGES')
f=open( 'psi4out.xyz', 'w' )
f.write( "13  " )
f.write( str(ee) + "\n" )
f.write( MOL.save_string_xyz() )
f.close()
--------------------------------------------------------------------------

    Molecular point group: c1

    Geometry (in Angstrom), charge = 0, multiplicity = 1:

       Center              X                  Y                   Z               Mass
    ------------   -----------------  -----------------  -----------------  -----------------
           H         -2.282584886751     0.263342547889     0.831515803210     1.007825032070
           N         -1.862291886751     0.146908547889    -0.070302196790    14.003074004780
           C         -0.573944886751    -0.520894452111     0.042432803210    12.000000000000
           H         -1.749703886751     1.064378547889    -0.458022196790     1.007825032070
           C          0.565092113249     0.489378547889    -0.043812196790    12.000000000000
           H         -0.492258886751    -1.222856452111    -0.782050196790     1.007825032070
           H         -0.470577886751    -1.104021452111     0.961139803210     1.007825032070
           C          1.944484113249    -0.162476452111     0.039650803210    12.000000000000
           H          0.464991113249     1.041631547889    -0.972793196790     1.007825032070
           H          0.459014113249     1.215635547889     0.760486803210     1.007825032070
           H          2.093125113249    -0.871961452111    -0.769658196790     1.007825032070
           H          2.732654113249     0.580709547889    -0.025580196790     1.007825032070
           H          2.073446113249    -0.698223452111     0.976073803210     1.007825032070

  Charge       = 0
  Multiplicity = 1
  Basis Set: 6-31G*
  Basis Set:

    Orbital Energies (a.u.)
    -----------------------

    Doubly Occupied:

       1A    -15.530085     2A    -11.239927     3A    -11.217228
       4A    -11.212109     5A     -1.177995     6A     -1.036960
       7A     -0.899179     8A     -0.809014     9A     -0.670334
      10A     -0.616097    11A     -0.604822    12A     -0.558397
      13A     -0.540526    14A     -0.503093    15A     -0.486603
      16A     -0.471555    17A     -0.374572

  @DF-RHF Final Energy:  -173.27757647582055

   => Energetics <=

    Nuclear Repulsion Energy =            132.1949855015714945
    One-Electron Energy =                -495.0481191704461708
    Two-Electron Energy =                 189.5755571930541237
    DFT Exchange-Correlation Energy =       0.0000000000000000
    Empirical Dispersion Energy =           0.0000000000000000
    PCM Polarization Energy =               0.0000000000000000
    EFP Energy =                            0.0000000000000000
    Total Energy =                       -173.2775764758205241

  Mulliken Charges: (a.u.)
   Center  Symbol    Alpha    Beta     Spin     Total
       1     H     0.33325  0.33325  0.00000  0.33350
       2     N     3.92526  3.92526  0.00000 -0.85051
       3     C     3.05249  3.05249  0.00000 -0.10498
       4     H     0.33188  0.33188  0.00000  0.33624
       5     C     3.16522  3.16522  0.00000 -0.33045
       6     H     0.41924  0.41924  0.00000  0.16151
       7     H     0.42345  0.42345  0.00000  0.15309
       8     C     3.24346  3.24346  0.00000 -0.48692
       9     H     0.42223  0.42223  0.00000  0.15554
      10     H     0.42470  0.42470  0.00000  0.15060
      11     H     0.41947  0.41947  0.00000  0.16106
      12     H     0.41811  0.41811  0.00000  0.16377
      13     H     0.42123  0.42123  0.00000  0.15754

   Total alpha = 17.00000, Total beta = 17.00000, Total charge = -0.00000
