  ==> Input File <==

--------------------------------------------------------------------------
set {
	reference rhf
	basis 6-31G*
}

set_num_threads( 1 )
memory 2 gb

molecule MOL {
0 1

H	 -2.698709	 -0.000305	 0.034435
C	 -1.693833	 0.000034	 0.434417
O	 -0.828952	 -0.000968	 -0.659236
H	 -1.574200	 0.882896	 1.055746
H	 -1.574147	 -0.881698	 1.057355
C	 0.544705	 -0.215580	 -0.432276
C	 1.179957	 0.893409	 0.404095
C	 0.835005	 -1.605646	 0.130219
H	 0.969622	 -0.165141	 -1.427732
H	 0.911655	 1.865849	 0.005443
H	 2.261357	 0.802446	 0.380978
H	 0.871485	 0.851942	 1.443946
H	 0.327380	 -2.362841	 -0.457514
H	 1.901488	 -1.805138	 0.094434
H	 0.519359	 -1.704923	 1.163830

	symmetry c1
}
set optking {
	frozen_dihedral = ("
		9 6 3 2
	")
}

ee = energy('scf')
oeprop('DIPOLE', 'QUADRUPOLE', 'MULLIKEN_CHARGES')
f=open( 'psi4out.xyz', 'w' )
f.write( "15  " )
f.write( str(ee) + "\n" )
f.write( MOL.save_string_xyz() )
f.close()
--------------------------------------------------------------------------

    Molecular point group: c1

    Geometry (in Angstrom), charge = 0, multiplicity = 1:

       Center              X                  Y                   Z               Mass
    ------------   -----------------  -----------------  -----------------  -----------------
           H         -2.686035972477     0.184451342102     0.044287710768     1.007825032070
           C         -1.681159972477     0.184790342102     0.444269710768    12.000000000000
           O         -0.816278972477     0.183788342102    -0.649383289232    15.994914619560
           H         -1.561526972477     1.067652342102     1.065598710768     1.007825032070
           H         -1.561473972477    -0.696941657898     1.067207710768     1.007825032070
           C          0.557378027523    -0.030823657898    -0.422423289232    12.000000000000
           C          1.192630027523     1.078165342102     0.413947710768    12.000000000000
           C          0.847678027523    -1.420889657898     0.140071710768    12.000000000000
           H          0.982295027523     0.019615342102    -1.417879289232     1.007825032070
           H          0.924328027523     2.050605342102     0.015295710768     1.007825032070
           H          2.274030027523     0.987202342102     0.390830710768     1.007825032070
           H          0.884158027523     1.036698342102     1.453798710768     1.007825032070
           H          0.340053027523    -2.178084657898    -0.447661289232     1.007825032070
           H          1.914161027523    -1.620381657898     0.104286710768     1.007825032070
           H          0.532032027523    -1.520166657898     1.173682710768     1.007825032070

  Charge       = 0
  Multiplicity = 1
  Basis Set: 6-31G*
  Basis Set:

    Orbital Energies (a.u.)
    -----------------------

    Doubly Occupied:

       1A    -20.548326     2A    -11.274342     3A    -11.260921
       4A    -11.210606     5A    -11.210470     6A     -1.370434
       7A     -1.050533     8A     -0.939594     9A     -0.931293
      10A     -0.781277    11A     -0.674366    12A     -0.640191
      13A     -0.633440    14A     -0.572724    15A     -0.565437
      16A     -0.552726    17A     -0.534173    18A     -0.497421
      19A     -0.496826    20A     -0.443071    21A     -0.406516

  @DF-RHF Final Energy:  -232.13757916326250

   => Energetics <=

    Nuclear Repulsion Energy =            198.7719575001013936
    One-Electron Energy =                -708.6293934861715798
    Two-Electron Energy =                 277.7198568228070599
    DFT Exchange-Correlation Energy =       0.0000000000000000
    Empirical Dispersion Energy =           0.0000000000000000
    PCM Polarization Energy =               0.0000000000000000
    EFP Energy =                            0.0000000000000000
    Total Energy =                       -232.1375791632631262

  Mulliken Charges: (a.u.)
   Center  Symbol    Alpha    Beta     Spin     Total
       1     H     0.41287  0.41287  0.00000  0.17426
       2     C     3.08170  3.08170  0.00000 -0.16341
       3     O     4.31191  4.31191  0.00000 -0.62382
       4     H     0.42861  0.42861  0.00000  0.14279
       5     H     0.42989  0.42989  0.00000  0.14023
       6     C     2.90884  2.90884  0.00000  0.18232
       7     C     3.25316  3.25316  0.00000 -0.50633
       8     C     3.25354  3.25354  0.00000 -0.50709
       9     H     0.41515  0.41515  0.00000  0.16970
      10     H     0.41145  0.41145  0.00000  0.17710
      11     H     0.41947  0.41947  0.00000  0.16105
      12     H     0.42149  0.42149  0.00000  0.15702
      13     H     0.41137  0.41137  0.00000  0.17727
      14     H     0.41919  0.41919  0.00000  0.16161
      15     H     0.42136  0.42136  0.00000  0.15729

   Total alpha = 21.00000, Total beta = 21.00000, Total charge =  0.00000
