                              Psi4 1.0.54 Driver

  ==> Input File <==

--------------------------------------------------------------------------
set {
	reference rhf
	basis cc-pvtz
}

set_num_threads( 4 )
memory 2 gb

molecule MOL {
0 1

O	 0.395927	 1.296676	 -0.000076
C	 0.503051	 0.114301	 -0.000074
C	 -0.701422	 -0.805636	 -0.000109
C	 1.858118	 -0.556123	 0.000212
C	 -2.035342	 -0.080492	 0.082978
H	 -0.647283	 -1.416341	 -0.897630
H	 -0.584480	 -1.498685	 0.829015
H	 -2.163971	 0.592212	 -0.754370
H	 -2.851618	 -0.792904	 0.078686
H	 -2.100629	 0.509139	 0.987579
H	 1.961106	 -1.191101	 -0.872843
H	 2.636688	 0.191085	 -0.000109
H	 1.961070	 -1.190284	 0.873873

	symmetry c1
}
set optking {
	frozen_dihedral = ("
		6 3 2 1
	")
}

ee,wfn = optimize('scf', return_wfn=True)
oeprop( wfn, 'DIPOLE', 'QUADRUPOLE', 'MULLIKEN_CHARGES')
f=open( 'psi4out.xyz', 'w' )
f.write( "13  " )
f.write( str(ee) + "\n" )
f.write( MOL.save_string_xyz() )
f.close()
--------------------------------------------------------------------------

    Molecular point group: c1
  Charge       = 0
  Multiplicity = 1
  Basis Set: CC-PVTZ
  Basis Set:
  @DF-RHF Final Energy:  -231.08358120534234
    Total Energy =                       -231.0835812053422842
    Molecular point group: c1
  Basis Set: CC-PVTZ
  Basis Set:
  Basis Set: CC-PVTZ
  Basis Set:
  @DF-RHF Final Energy:  -231.08347066775281
    Total Energy =                       -231.0834706677528629
  Basis Set: CC-PVTZ
  Basis Set:
  Basis Set: CC-PVTZ
  Basis Set:
  @DF-RHF Final Energy:  -231.08359061660829
    Total Energy =                       -231.0835906166082623
  Basis Set: CC-PVTZ
  Basis Set:
  Basis Set: CC-PVTZ
  Basis Set:
  @DF-RHF Final Energy:  -231.08359353952974
    Total Energy =                       -231.0835935395298293
  Basis Set: CC-PVTZ
  Basis Set:
  Basis Set: CC-PVTZ
  Basis Set:
  @DF-RHF Final Energy:  -231.08359574768286
    Total Energy =                       -231.0835957476827502
  Basis Set: CC-PVTZ
  Basis Set:
  Basis Set: CC-PVTZ
  Basis Set:
  @DF-RHF Final Energy:  -231.08359772126380
    Total Energy =                       -231.0835977212636294
  Basis Set: CC-PVTZ
  Basis Set:
  Charge       = 0
  Multiplicity = 1
  Basis Set: CC-PVTZ
  Basis Set:

    Orbital Energies (a.u.)
    -----------------------

    Doubly Occupied:

       1A    -20.539926     2A    -11.321290     3A    -11.233655
       4A    -11.227533     5A    -11.212573     6A     -1.400044
       7A     -1.062827     8A     -1.001305     9A     -0.879089
      10A     -0.731162    11A     -0.661150    12A     -0.642143
      13A     -0.624605    14A     -0.583629    15A     -0.571616
      16A     -0.522227    17A     -0.513174    18A     -0.509778
      19A     -0.489204    20A     -0.405304

  @DF-RHF Final Energy:  -231.08359815645460

   => Energetics <=

    Nuclear Repulsion Energy =            177.3063493561305961
    One-Electron Energy =                -664.5154242179903576
    Two-Electron Energy =                 256.1254767054051626
    DFT Exchange-Correlation Energy =       0.0000000000000000
    Empirical Dispersion Energy =           0.0000000000000000
    PCM Polarization Energy =               0.0000000000000000
    EFP Energy =                            0.0000000000000000
    Total Energy =                       -231.0835981564546273
    Molecular point group: c1
  Basis Set: CC-PVTZ
  Basis Set:

  -Total Gradient:
     Atom            X                  Y                   Z
    ------   -----------------  -----------------  -----------------
       1       -0.000008901117     0.000022042575    -0.000065701381
       2        0.000028644119    -0.000025589121     0.000083305388
       3        0.000036607753    -0.000053623829     0.000006750584
       4       -0.000039710994     0.000053612614    -0.000001844511
       5       -0.000002595188     0.000002121183     0.000004971061
       6       -0.000036073287     0.000039291325    -0.000034294624
       7       -0.000000895570     0.000002720168    -0.000002984195
       8        0.000002415371     0.000000334034     0.000000638332
       9        0.000000187680    -0.000003202946     0.000001324481
      10       -0.000000886885     0.000001911354     0.000001587723
      11        0.000000321806    -0.000030718972    -0.000025410099
      12        0.000022098974     0.000020479773    -0.000000798137
      13       -0.000001212661    -0.000029378157     0.000032455380

  **** Optimization is complete! (in 7 steps) ****
    Final optimized geometry and variables:
    Molecular point group: c1

    Geometry (in Angstrom), charge = 0, multiplicity = 1:

    O            0.396127195633     1.296845355263     0.003611193459
    C            0.502876497223     0.114516084518    -0.013459258936
    C           -0.701936954507    -0.804727549642    -0.028820127961
    C            1.857532438306    -0.556369182402    -0.020194622198
    C           -2.035824268533    -0.079584711561     0.055049801668
    H           -0.642677008118    -1.400260514856    -0.936395077844
    H           -0.590892733099    -1.511322539791     0.789292467651
    H           -2.157468148373     0.605105793998    -0.773290129677
    H           -2.852601887784    -0.791135721849     0.035031860233
    H           -2.107342334994     0.497021471978     0.967761780808
    H            1.938114127133    -1.241135575721    -0.856961311465
    H            2.635498458851     0.189042652279    -0.080631370121
    H            1.983612510053    -1.138768714643     0.886278285578

  Mulliken Charges: (a.u.)
   Center  Symbol    Alpha    Beta     Spin     Total
       1     O     4.16948  4.16948  0.00000 -0.33897
       2     C     2.86315  2.86315  0.00000  0.27369
       3     C     3.10038  3.10038  0.00000 -0.20076
       4     C     3.14935  3.14935  0.00000 -0.29870
       5     C     3.14142  3.14142  0.00000 -0.28285
       6     H     0.44634  0.44634  0.00000  0.10731
       7     H     0.44711  0.44711  0.00000  0.10579
       8     H     0.44699  0.44699  0.00000  0.10601
       9     H     0.45075  0.45075  0.00000  0.09849
      10     H     0.44844  0.44844  0.00000  0.10312
      11     H     0.45110  0.45110  0.00000  0.09780
      12     H     0.43555  0.43555  0.00000  0.12891
      13     H     0.44993  0.44993  0.00000  0.10015

   Total alpha = 20.00000, Total beta = 20.00000, Total charge = -0.00000

*** Psi4 exiting successfully. Buy a developer a beer!
