  ==> Input File <==

--------------------------------------------------------------------------
set {
	reference rhf
	basis 6-31G*
}

set_num_threads( 4 )
memory 2 gb

molecule MOL {
0 1

H	 2.095845	 0.069849	 0.369554
C	 1.193199	 -0.484033	 0.210393
C	 1.185326	 -1.867295	 0.209005
C	 0.000000	 0.183220	 0.000000
H	 2.101477	 -2.404452	 0.370547
C	 0.000000	 -2.555744	 0.000000
N	 0.000000	 1.642018	 0.000000
C	 -1.193199	 -0.484034	 -0.210393
H	 0.000000	 -3.630640	 0.000000
C	 -1.185326	 -1.867295	 -0.209005
O	 1.057097	 2.196749	 0.000000
O	 -1.057097	 2.196749	 0.000000
H	 -2.095845	 0.069849	 -0.369554
H	 -2.101477	 -2.404452	 -0.370547

	symmetry c1
}
set optking {
	frozen_dihedral = ("
		2 4 7 11
	")
}

ee = optimize('scf')
oeprop('DIPOLE', 'QUADRUPOLE', 'MULLIKEN_CHARGES')
f=open( 'psi4out.xyz', 'w' )
f.write( "14  " )
f.write( str(ee) + "\n" )
f.write( MOL.save_string_xyz() )
f.close()
--------------------------------------------------------------------------

    Molecular point group: c1
  Charge       = 0
  Multiplicity = 1
  Basis Set: 6-31G*
  Basis Set:
  @DF-RHF Final Energy:  -434.17412701930277
    Total Energy =                       -434.1741270193033415
    Molecular point group: c1
  Basis Set: 6-31G*
  Basis Set:
  Basis Set: 6-31G*
  Basis Set:
  @DF-RHF Final Energy:  -434.17306983741554
    Total Energy =                       -434.1730698374150279
  Basis Set: 6-31G*
  Basis Set:
  Basis Set: 6-31G*
  Basis Set:
  @DF-RHF Final Energy:  -434.17413359954600
    Total Energy =                       -434.1741335995465079
  Basis Set: 6-31G*
  Basis Set:
  Charge       = 0
  Multiplicity = 1
  Basis Set: 6-31G*
  Basis Set:

    Orbital Energies (a.u.)
    -----------------------

    Doubly Occupied:

       1A    -20.601007     2A    -20.600950     3A    -15.855710
       4A    -11.303749     5A    -11.270734     6A    -11.270696
       7A    -11.268268     8A    -11.261122     9A    -11.261011
      10A     -1.634277    11A     -1.417504    12A     -1.201341
      13A     -1.094440    14A     -1.052525    15A     -0.957969
      16A     -0.864526    17A     -0.825110    18A     -0.784334
      19A     -0.733473    20A     -0.728706    21A     -0.709016
      22A     -0.654707    23A     -0.650126    24A     -0.624480
      25A     -0.553083    26A     -0.535735    27A     -0.529467
      28A     -0.488983    29A     -0.487017    30A     -0.451442
      31A     -0.373869    32A     -0.365556

  @DF-RHF Final Energy:  -434.17414205723344

   => Energetics <=

    Nuclear Repulsion Energy =            417.1738533149570003
    One-Electron Energy =               -1417.8741292417139448
    Two-Electron Energy =                 566.5261338695238464
    DFT Exchange-Correlation Energy =       0.0000000000000000
    Empirical Dispersion Energy =           0.0000000000000000
    PCM Polarization Energy =               0.0000000000000000
    EFP Energy =                            0.0000000000000000
    Total Energy =                       -434.1741420572330981
    Molecular point group: c1
  Basis Set: 6-31G*
  Basis Set:

  -Total Gradient:
     Atom            X                  Y                   Z
    ------   -----------------  -----------------  -----------------
       1        0.000006648590     0.000001998329    -0.000011740102
       2       -0.000160227943    -0.000002985536     0.000853448737
       3        0.000016894008     0.000004704400    -0.000059145623
       4        0.000220968134    -0.000005943781    -0.001561916226
       5       -0.000002388229     0.000000548055     0.000012279430
       6       -0.000012505277    -0.000005392462     0.000048547699
       7       -0.000061607889    -0.000062757452     0.001733314908
       8        0.000001324253    -0.000006187856    -0.000042733525
       9        0.000002781944    -0.000001089648    -0.000008179165
      10       -0.000005454595    -0.000006718229     0.000004717809
      11       -0.000030754475     0.000028811163    -0.000962471262
      12        0.000022294266     0.000060295572    -0.000018543653
      13        0.000000414225    -0.000005144695     0.000018725799
      14        0.000001612992    -0.000000137873    -0.000006304826

  **** Optimization is complete! (in 4 steps) ****
    Final optimized geometry and variables:
    Molecular point group: c1

    Geometry (in Angstrom), charge = 0, multiplicity = 1:

    H            2.096942718575     0.070447158965     0.363007906224
    C            1.193765392174    -0.483631805620     0.206971341737
    C            1.185212194098    -1.866917393730     0.209975154661
    C            0.000829455619     0.183217317931    -0.005197446524
    H            2.100643733235    -2.403900594138     0.375848512130
    C           -0.000077107339    -2.555341919987     0.000187157947
    N           -0.000061761951     1.641626835956     0.002353800176
    C           -1.193583392946    -0.483621669511    -0.209038684639
    H           -0.000273557682    -3.630270676757     0.001333498992
    C           -1.185281921195    -1.866916008637    -0.210165750497
    O            1.056961538282     2.196505257425     0.009818606375
    O           -1.057476295987     2.195698858135    -0.006765523714
    H           -2.097265573811     0.070375663003    -0.362247259934
    H           -2.101314486912    -2.403939147079    -0.372560281448

  Mulliken Charges: (a.u.)
   Center  Symbol    Alpha    Beta     Spin     Total
       1     H     0.36454  0.36454  0.00000  0.27093
       2     C     3.08514  3.08514  0.00000 -0.17028
       3     C     3.10838  3.10838  0.00000 -0.21676
       4     C     2.92220  2.92220  0.00000  0.15561
       5     H     0.38850  0.38850  0.00000  0.22301
       6     C     3.08609  3.08609  0.00000 -0.17218
       7     N     3.24171  3.24171  0.00000  0.51658
       8     C     3.08494  3.08494  0.00000 -0.16989
       9     H     0.38889  0.38889  0.00000  0.22222
      10     C     3.10839  3.10839  0.00000 -0.21678
      11     O     4.23400  4.23400  0.00000 -0.46800
      12     O     4.23419  4.23419  0.00000 -0.46839
      13     H     0.36454  0.36454  0.00000  0.27092
      14     H     0.38849  0.38849  0.00000  0.22301

   Total alpha = 32.00000, Total beta = 32.00000, Total charge =  0.00000
