                              Psi4 1.0.54 Driver

  ==> Input File <==

--------------------------------------------------------------------------
set {
	reference rhf
	basis cc-pvtz
}

set_num_threads( 4 )
memory 2 gb

molecule MOL {
0 1

H	 -3.144994	 -1.202467	 -0.018751
O	 -2.321472	 -0.864941	 -0.318626
C	 -2.021813	 0.336996	 0.342658
C	 -0.669613	 0.837286	 -0.127252
H	 -2.780861	 1.084746	 0.127159
H	 -2.006390	 0.184138	 1.420053
C	 0.490865	 -0.082543	 0.241244
H	 -0.708709	 0.967192	 -1.204587
H	 -0.507562	 1.822272	 0.303070
C	 1.839800	 0.429565	 -0.255472
H	 0.305636	 -1.070211	 -0.165276
H	 0.527397	 -0.195943	 1.322876
C	 1.854296	 0.720417	 -1.752462
H	 2.101834	 1.332970	 0.288496
H	 2.611784	 -0.299726	 -0.023382
H	 1.116522	 1.472589	 -2.011003
H	 2.823936	 1.083796	 -2.073490
H	 1.629128	 -0.172205	 -2.326892

	symmetry c1
}
set optking {
	frozen_dihedral = ("
		14 10 7 11
	")
}

ee,wfn = optimize('scf', return_wfn=True)
oeprop( wfn, 'DIPOLE', 'QUADRUPOLE', 'MULLIKEN_CHARGES')
f=open( 'psi4out.xyz', 'w' )
f.write( "18  " )
f.write( str(ee) + "\n" )
f.write( MOL.save_string_xyz() )
f.close()
--------------------------------------------------------------------------

    Molecular point group: c1
  Charge       = 0
  Multiplicity = 1
  Basis Set: CC-PVTZ
  Basis Set:
  @DF-RHF Final Energy:  -271.28335927504043
    Total Energy =                       -271.2833592750404250
    Molecular point group: c1
  Basis Set: CC-PVTZ
  Basis Set:
  Basis Set: CC-PVTZ
  Basis Set:
  @DF-RHF Final Energy:  -271.28364935099273
    Total Energy =                       -271.2836493509929028
  Basis Set: CC-PVTZ
  Basis Set:
  Basis Set: CC-PVTZ
  Basis Set:
  @DF-RHF Final Energy:  -271.28474808693937
    Total Energy =                       -271.2847480869394872
  Basis Set: CC-PVTZ
  Basis Set:
  Basis Set: CC-PVTZ
  Basis Set:
  @DF-RHF Final Energy:  -271.28481302583486
    Total Energy =                       -271.2848130258349784
  Basis Set: CC-PVTZ
  Basis Set:
  Basis Set: CC-PVTZ
  Basis Set:
  @DF-RHF Final Energy:  -271.28481866217749
    Total Energy =                       -271.2848186621773152
  Basis Set: CC-PVTZ
  Basis Set:
  Charge       = 0
  Multiplicity = 1
  Basis Set: CC-PVTZ
  Basis Set:

    Orbital Energies (a.u.)
    -----------------------

    Doubly Occupied:

       1A    -20.546092     2A    -11.265829     3A    -11.209979
       4A    -11.209575     5A    -11.205334     6A    -11.202195
       7A     -1.363988     8A     -1.075994     9A     -1.007266
      10A     -0.915962    11A     -0.831203    12A     -0.770990
      13A     -0.707213    14A     -0.644140    15A     -0.614491
      16A     -0.604198    17A     -0.564558    18A     -0.557015
      19A     -0.525786    20A     -0.505788    21A     -0.491909
      22A     -0.462582    23A     -0.456313    24A     -0.450444
      25A     -0.430137

  @DF-RHF Final Energy:  -271.28481905976741

   => Energetics <=

    Nuclear Repulsion Energy =            252.3207079700690372
    One-Electron Energy =                -867.9730843433092105
    Two-Electron Energy =                 344.3675573134727301
    DFT Exchange-Correlation Energy =       0.0000000000000000
    Empirical Dispersion Energy =           0.0000000000000000
    PCM Polarization Energy =               0.0000000000000000
    EFP Energy =                            0.0000000000000000
    Total Energy =                       -271.2848190597674147
    Molecular point group: c1
  Basis Set: CC-PVTZ
  Basis Set:

  -Total Gradient:
     Atom            X                  Y                   Z
    ------   -----------------  -----------------  -----------------
       1        0.000001681182    -0.000002064459     0.000001779426
       2       -0.000001430730    -0.000010908518     0.000008354106
       3       -0.000005802792     0.000018931446    -0.000017441784
       4        0.000000286965    -0.000004726453     0.000007969145
       5       -0.000001086637     0.000004696771     0.000006927218
       6       -0.000000367749    -0.000010104639    -0.000008648808
       7       -0.000826019182     0.000791292473    -0.001657703941
       8       -0.000003794844    -0.000000639218     0.000001149165
       9        0.000002434451     0.000001192702     0.000000025355
      10       -0.000898238895     0.001176861472    -0.001329698849
      11        0.000838386569    -0.000844636611     0.001596704034
      12        0.000005175099     0.000000003956    -0.000000876320
      13        0.000004331648    -0.000000603104     0.000005443872
      14        0.000879669712    -0.001117688088     0.001379075932
      15        0.000008219491     0.000003378850    -0.000005239079
      16       -0.000001055630     0.000000939533     0.000004959252
      17       -0.000000381118    -0.000004850615     0.000005763306
      18       -0.000002007547    -0.000001075500     0.000001457970

  **** Optimization is complete! (in 6 steps) ****
    Final optimized geometry and variables:
    Molecular point group: c1

    Geometry (in Angstrom), charge = 0, multiplicity = 1:

    H           -2.967153486744    -1.430019788145     0.429532164962
    O           -2.161465982242    -1.093726071867     0.083595934329
    C           -1.838582447637     0.122950148113     0.705798422877
    C           -0.518006676455     0.625385861053     0.154283030469
    H           -2.615018527719     0.860152377692     0.517339126685
    H           -1.764367516975    -0.009726754230     1.783323283236
    C            0.662594277634    -0.285598972386     0.481503357557
    H           -0.624552705516     0.740813574848    -0.918172352859
    H           -0.338893572040     1.616872744575     0.563806807208
    C            2.028418292804     0.247838268010     0.044205271048
    H            0.499179965311    -1.265792212904     0.048153225279
    H            0.691192646296    -0.439288846564     1.557867432566
    C            2.165155836907     0.533650982258    -1.448752697059
    H            2.267299053851     1.142109228793     0.614491710227
    H            2.778161396085    -0.485792633329     0.325895734772
    H            1.523760610285     1.346332255932    -1.767519679409
    H            3.184650623878     0.808662798675    -1.694189968495
    H            1.907712881685    -0.340885530993    -2.037570554474

  Mulliken Charges: (a.u.)
   Center  Symbol    Alpha    Beta     Spin     Total
       1     H     0.39581  0.39581  0.00000  0.20837
       2     O     4.19868  4.19868  0.00000 -0.39735
       3     C     2.97412  2.97412  0.00000  0.05175
       4     C     3.09368  3.09368  0.00000 -0.18736
       5     H     0.46563  0.46563  0.00000  0.06875
       6     H     0.47299  0.47299  0.00000  0.05402
       7     C     3.09369  3.09369  0.00000 -0.18738
       8     H     0.45011  0.45011  0.00000  0.09979
       9     H     0.45371  0.45371  0.00000  0.09259
      10     C     3.09002  3.09002  0.00000 -0.18004
      11     H     0.44346  0.44346  0.00000  0.11308
      12     H     0.45519  0.45519  0.00000  0.08961
      13     C     3.15355  3.15355  0.00000 -0.30710
      14     H     0.45568  0.45568  0.00000  0.08863
      15     H     0.45013  0.45013  0.00000  0.09974
      16     H     0.45383  0.45383  0.00000  0.09235
      17     H     0.44724  0.44724  0.00000  0.10553
      18     H     0.45248  0.45248  0.00000  0.09503

   Total alpha = 25.00000, Total beta = 25.00000, Total charge = -0.00000

*** Psi4 exiting successfully. Buy a developer a beer!
