  ==> Input File <==

--------------------------------------------------------------------------
set {
	reference rhf
	basis cc-pvtz
}

set_num_threads( 4 )
memory 2 gb

molecule MOL {
0 1

H	 -0.005843	 -6.115392	 -0.424046
C	 0.327854	 -5.096301	 -0.268459
C	 -0.842023	 -4.120498	 -0.330492
H	 0.821408	 -5.054980	 0.696806
H	 1.069629	 -4.872629	 -1.027905
C	 -0.417585	 -2.674999	 -0.117529
H	 -1.582891	 -4.378487	 0.418054
H	 -1.334172	 -4.209719	 -1.296104
N	 -1.551883	 -1.777555	 -0.158726
H	 0.051909	 -2.579280	 0.856936
H	 0.345928	 -2.409236	 -0.854754
C	 -1.215959	 -0.382435	 0.027143
H	 -2.042658	 -1.894072	 -1.020632
C	 -2.451944	 0.502410	 -0.038737
H	 -0.750355	 -0.275548	 1.002318
H	 -0.481331	 -0.033722	 -0.704839
C	 -3.752217	 -0.292550	 0.005776
H	 -2.407325	 1.093801	 -0.946480
H	 -2.431979	 1.206234	 0.790023
H	 -3.817783	 -0.982946	 -0.828547
H	 -4.612613	 0.364348	 -0.042306
H	 -3.830160	 -0.871666	 0.919868

	symmetry c1
}
set optking {
	frozen_dihedral = ("
		15 12 14 18
	")
}

ee = optimize('scf')
oeprop('DIPOLE', 'QUADRUPOLE', 'MULLIKEN_CHARGES')
f=open( 'psi4out.xyz', 'w' )
f.write( "22  " )
f.write( str(ee) + "\n" )
f.write( MOL.save_string_xyz() )
f.close()
--------------------------------------------------------------------------

    Molecular point group: c1
  Charge       = 0
  Multiplicity = 1
  Basis Set: CC-PVTZ
  Basis Set:
  @DF-RHF Final Energy:  -290.47832837509083
    Total Energy =                       -290.4783283750905412
    Molecular point group: c1
  Basis Set: CC-PVTZ
  Basis Set:
  Basis Set: CC-PVTZ
  Basis Set:
  @DF-RHF Final Energy:  -290.47928149501325
    Total Energy =                       -290.4792814950130833
  Basis Set: CC-PVTZ
  Basis Set:
  Basis Set: CC-PVTZ
  Basis Set:
  @DF-RHF Final Energy:  -290.48150414579999
    Total Energy =                       -290.4815041457999882
  Basis Set: CC-PVTZ
  Basis Set:
  Basis Set: CC-PVTZ
  Basis Set:
  @DF-RHF Final Energy:  -290.48169860750164
    Total Energy =                       -290.4816986075017553
  Basis Set: CC-PVTZ
  Basis Set:
  Basis Set: CC-PVTZ
  Basis Set:
  @DF-RHF Final Energy:  -290.48171684519093
    Total Energy =                       -290.4817168451908174
  Basis Set: CC-PVTZ
  Basis Set:
  Basis Set: CC-PVTZ
  Basis Set:
  @DF-RHF Final Energy:  -290.48172003499974
    Total Energy =                       -290.4817200349997393
  Basis Set: CC-PVTZ
  Basis Set:
  Charge       = 0
  Multiplicity = 1
  Basis Set: CC-PVTZ
  Basis Set:

    Orbital Energies (a.u.)
    -----------------------

    Doubly Occupied:

       1A    -15.528833     2A    -11.236967     3A    -11.236611
       4A    -11.212194     5A    -11.212064     6A    -11.207848
       7A    -11.201508     8A     -1.207675     9A     -1.057005
      10A     -1.021820    11A     -0.927455    12A     -0.880945
      13A     -0.805795    14A     -0.787343    15A     -0.665808
      16A     -0.629842    17A     -0.619596    18A     -0.604518
      19A     -0.574980    20A     -0.566671    21A     -0.531844
      22A     -0.531089    23A     -0.505145    24A     -0.487637
      25A     -0.484775    26A     -0.470963    27A     -0.458215
      28A     -0.450890    29A     -0.359814

  @DF-RHF Final Energy:  -290.48172039317319

   => Energetics <=

    Nuclear Repulsion Energy =            318.3459626250946712
    One-Electron Energy =               -1022.7236654224714130
    Two-Electron Energy =                 413.8959824042035507
    DFT Exchange-Correlation Energy =       0.0000000000000000
    Empirical Dispersion Energy =           0.0000000000000000
    PCM Polarization Energy =               0.0000000000000000
    EFP Energy =                            0.0000000000000000
    Total Energy =                       -290.4817203931731910
    Molecular point group: c1
  Basis Set: CC-PVTZ
  Basis Set:

  -Total Gradient:
     Atom            X                  Y                   Z
    ------   -----------------  -----------------  -----------------
       1        0.000002439385    -0.000002454884     0.000000264672
       2       -0.000001046233    -0.000005529158    -0.000000391301
       3        0.000001976903     0.000000421002     0.000002183751
       4       -0.000000363660     0.000000318931    -0.000000753024
       5       -0.000000782112     0.000000147193     0.000000277614
       6        0.000005884117     0.000004384388     0.000001150427
       7        0.000000627103    -0.000000568870    -0.000001070271
       8        0.000000675936     0.000000559232     0.000000959432
       9       -0.000006604146     0.000006163579    -0.000008560596
      10        0.000001713659    -0.000001762617    -0.000001659721
      11       -0.000000187269    -0.000000874419     0.000001976658
      12       -0.003101769890    -0.003811593297     0.002953870635
      13       -0.000007535750    -0.000003262175    -0.000009695003
      14       -0.002634636935    -0.003682925777    -0.003544095510
      15        0.003049605563     0.003799443700    -0.001895594134
      16       -0.000008620713    -0.000008875394    -0.000000299739
      17       -0.000002379113     0.000004453380     0.000011022312
      18        0.002695640509     0.003710893053     0.002502465980
      19       -0.000002403527    -0.000008057305    -0.000005197574
      20        0.000005741755    -0.000004434849    -0.000003838997
      21        0.000002992942     0.000002314064    -0.000004167306
      22       -0.000000968526     0.000001240224     0.000001151695

  **** Optimization is complete! (in 7 steps) ****
    Final optimized geometry and variables:
    Molecular point group: c1

    Geometry (in Angstrom), charge = 0, multiplicity = 1:

    H            1.523289681252    -4.140007467653    -0.293888287938
    C            1.820998952206    -3.115559355977    -0.104152763177
    C            0.634288016557    -2.166876531660    -0.232025596786
    H            2.248420485801    -3.075755701067     0.892214659817
    H            2.605621622575    -2.864011799685    -0.809905154187
    C            1.008503702857    -0.715124082521     0.027637202438
    H           -0.148146110433    -2.453320900523     0.461863845136
    H            0.210217574135    -2.253903397890    -1.229612364962
    N           -0.142475421247     0.155778838977    -0.076322180440
    H            1.410463695124    -0.622363098350     1.032053508846
    H            1.811956421464    -0.420443412599    -0.654117816161
    C            0.163226044758     1.553362489705     0.139893711888
    H           -0.570024041431     0.035157062813    -0.970429831166
    C           -1.058869270272     2.494700681984     0.067145873557
    H            0.639481163226     1.656209473546     1.108535621604
    H            0.911105519479     1.911218713469    -0.572801340007
    C           -2.429501868839     1.841405490862     0.213174843499
    H           -1.013156827256     3.078794542825    -0.846349008959
    H           -0.950105469219     3.229076254052     0.859263184105
    H           -2.647823020902     1.160072559135    -0.599794428763
    H           -3.201493216591     2.602859531492     0.218653772792
    H           -2.501033206075     1.278996569182     1.135086236779

  Mulliken Charges: (a.u.)
   Center  Symbol    Alpha    Beta     Spin     Total
       1     H     0.44762  0.44762  0.00000  0.10477
       2     C     3.15376  3.15376  0.00000 -0.30753
       3     C     3.08088  3.08088  0.00000 -0.16177
       4     H     0.45470  0.45470  0.00000  0.09061
       5     H     0.45610  0.45610  0.00000  0.08781
       6     C     3.02123  3.02123  0.00000 -0.04245
       7     H     0.44889  0.44889  0.00000  0.10222
       8     H     0.45988  0.45988  0.00000  0.08025
       9     N     3.63815  3.63815  0.00000 -0.27631
      10     H     0.45916  0.45916  0.00000  0.08167
      11     H     0.47496  0.47496  0.00000  0.05008
      12     C     3.03551  3.03551  0.00000 -0.07103
      13     H     0.44282  0.44282  0.00000  0.11437
      14     C     3.09845  3.09845  0.00000 -0.19690
      15     H     0.45725  0.45725  0.00000  0.08549
      16     H     0.46733  0.46733  0.00000  0.06535
      17     C     3.14046  3.14046  0.00000 -0.28093
      18     H     0.45094  0.45094  0.00000  0.09812
      19     H     0.45260  0.45260  0.00000  0.09481
      20     H     0.45905  0.45905  0.00000  0.08189
      21     H     0.45077  0.45077  0.00000  0.09846
      22     H     0.44950  0.44950  0.00000  0.10101

   Total alpha = 29.00000, Total beta = 29.00000, Total charge =  0.00000
