  ==> Input File <==

--------------------------------------------------------------------------
set {
	reference rhf
	basis 6-31G*
}

set_num_threads( 1 )
memory 2 gb

molecule MOL {
0 1

O	 -3.594760	 -0.259929	 0.635989
C	 -2.668563	 0.129746	 -0.000350
C	 -2.714969	 1.341296	 -0.895481
O	 -1.481751	 -0.454642	 0.000584
H	 -2.993448	 2.202936	 -0.300597
H	 -1.766703	 1.520669	 -1.380307
H	 -3.487620	 1.193956	 -1.640586
C	 -0.334255	 0.388708	 0.000906
C	 0.891947	 -0.504646	 0.000751
H	 -0.365390	 1.025305	 -0.873475
H	 -0.365484	 1.024911	 0.875569
C	 2.191998	 0.301789	 0.000897
H	 0.855148	 -1.151283	 -0.871571
H	 0.855132	 -1.151660	 0.872805
C	 3.441114	 -0.581407	 0.000108
H	 2.215074	 0.954890	 -0.869742
H	 2.215465	 0.953923	 0.872248
C	 4.739576	 0.224112	 -0.001102
H	 3.419457	 -1.233487	 -0.870178
H	 3.420834	 -1.233096	 0.870717
H	 4.804918	 0.861552	 -0.878265
H	 5.606527	 -0.429058	 -0.001824
H	 4.806469	 0.861674	 0.875853

	symmetry c1
}
set optking {
	frozen_dihedral = ("
		13 9 8 10,
		2 4 8 10,
		16 12 9 13,
		19 15 12 16
	")
}

ee = energy('scf')
oeprop('DIPOLE', 'QUADRUPOLE', 'MULLIKEN_CHARGES')
f=open( 'psi4out.xyz', 'w' )
f.write( "23  " )
f.write( str(ee) + "\n" )
f.write( MOL.save_string_xyz() )
f.close()
--------------------------------------------------------------------------

    Molecular point group: c1

    Geometry (in Angstrom), charge = 0, multiplicity = 1:

       Center              X                  Y                   Z               Mass
    ------------   -----------------  -----------------  -----------------  -----------------
           O         -3.631152141786    -0.333789234400     0.665924947957    15.994914619560
           C         -2.704955141786     0.055885765600     0.029585947957    12.000000000000
           C         -2.751361141786     1.267435765600    -0.865545052043    12.000000000000
           O         -1.518143141786    -0.528502234400     0.030519947957    15.994914619560
           H         -3.029840141786     2.129075765600    -0.270661052043     1.007825032070
           H         -1.803095141786     1.446808765600    -1.350371052043     1.007825032070
           H         -3.524012141786     1.120095765600    -1.610650052043     1.007825032070
           C         -0.370647141786     0.314847765600     0.030841947957    12.000000000000
           C          0.855554858214    -0.578506234400     0.030686947957    12.000000000000
           H         -0.401782141786     0.951444765600    -0.843539052043     1.007825032070
           H         -0.401876141786     0.951050765600     0.905504947957     1.007825032070
           C          2.155605858214     0.227928765600     0.030832947957    12.000000000000
           H          0.818755858214    -1.225143234400    -0.841635052043     1.007825032070
           H          0.818739858214    -1.225520234400     0.902740947957     1.007825032070
           C          3.404721858214    -0.655267234400     0.030043947957    12.000000000000
           H          2.178681858214     0.881029765600    -0.839806052043     1.007825032070
           H          2.179072858214     0.880062765600     0.902183947957     1.007825032070
           C          4.703183858214     0.150251765600     0.028833947957    12.000000000000
           H          3.383064858214    -1.307347234400    -0.840242052043     1.007825032070
           H          3.384441858214    -1.306956234400     0.900652947957     1.007825032070
           H          4.768525858214     0.787691765600    -0.848329052043     1.007825032070
           H          5.570134858214    -0.502918234400     0.028111947957     1.007825032070
           H          4.770076858214     0.787813765600     0.905788947957     1.007825032070

  Charge       = 0
  Multiplicity = 1
  Basis Set: 6-31G*
  Basis Set:

    Orbital Energies (a.u.)
    -----------------------

    Doubly Occupied:

       1A    -20.598371     2A    -20.543799     3A    -11.375818
       4A    -11.297729     5A    -11.234210     6A    -11.231608
       7A    -11.230624     8A    -11.226386     9A    -11.217043
      10A     -1.464973    11A     -1.366907    12A     -1.099494
      13A     -1.037540    14A     -1.016610    15A     -0.945405
      16A     -0.850439    17A     -0.809964    18A     -0.780139
      19A     -0.705990    20A     -0.695067    21A     -0.661865
      22A     -0.651835    23A     -0.621482    24A     -0.596969
      25A     -0.584237    26A     -0.576481    27A     -0.561570
      28A     -0.541471    29A     -0.523505    30A     -0.508110
      31A     -0.494476    32A     -0.482588    33A     -0.476698
      34A     -0.475562    35A     -0.450993    36A     -0.430093

  @DF-RHF Final Energy:  -422.95014186400522

   => Energetics <=

    Nuclear Repulsion Energy =            452.0909390013910070
    One-Electron Energy =               -1471.3500629340674095
    Two-Electron Energy =                 596.3089820686703888
    DFT Exchange-Correlation Energy =       0.0000000000000000
    Empirical Dispersion Energy =           0.0000000000000000
    PCM Polarization Energy =               0.0000000000000000
    EFP Energy =                            0.0000000000000000
    Total Energy =                       -422.9501418640060137

  Mulliken Charges: (a.u.)
   Center  Symbol    Alpha    Beta     Spin     Total
       1     O     4.26544  4.26544  0.00000 -0.53088
       2     C     2.61199  2.61199  0.00000  0.77601
       3     C     3.30597  3.30597  0.00000 -0.61195
       4     O     4.30770  4.30770  0.00000 -0.61539
       5     H     0.39571  0.39571  0.00000  0.20857
       6     H     0.40974  0.40974  0.00000  0.18052
       7     H     0.39203  0.39203  0.00000  0.21593
       8     C     3.00264  3.00264  0.00000 -0.00527
       9     C     3.16139  3.16139  0.00000 -0.32277
      10     H     0.41974  0.41974  0.00000  0.16052
      11     H     0.41367  0.41367  0.00000  0.17266
      12     C     3.16138  3.16138  0.00000 -0.32276
      13     H     0.41090  0.41090  0.00000  0.17819
      14     H     0.40745  0.40745  0.00000  0.18511
      15     C     3.15197  3.15197  0.00000 -0.30393
      16     H     0.42249  0.42249  0.00000  0.15502
      17     H     0.42108  0.42108  0.00000  0.15784
      18     C     3.24009  3.24009  0.00000 -0.48019
      19     H     0.42040  0.42040  0.00000  0.15919
      20     H     0.41949  0.41949  0.00000  0.16102
      21     H     0.42125  0.42125  0.00000  0.15749
      22     H     0.41675  0.41675  0.00000  0.16651
      23     H     0.42072  0.42072  0.00000  0.15855

   Total alpha = 36.00000, Total beta = 36.00000, Total charge =  0.00000
