                              Psi4 1.0.54 Driver

  ==> Input File <==

--------------------------------------------------------------------------
set {
	reference rhf
	basis cc-pvtz
}

set_num_threads( 4 )
memory 2 gb

molecule MOL {
0 1

H	 1.239981	 4.739627	 -1.038575
C	 2.006521	 4.702284	 -0.252504
C	 1.550096	 4.102180	 1.049588
O	 3.090175	 5.125207	 -0.462592
C	 0.888638	 2.732365	 0.871391
H	 2.397165	 4.051945	 1.721367
H	 0.827327	 4.795434	 1.474215
C	 1.852820	 1.641692	 0.409905
H	 0.441531	 2.442072	 1.815935
H	 0.068203	 2.818347	 0.163092
C	 1.181757	 0.280428	 0.247371
H	 2.666025	 1.560805	 1.126328
H	 2.310995	 1.930118	 -0.532599
C	 2.151032	 -0.811012	 -0.202643
H	 0.719040	 0.001860	 1.188986
H	 0.374799	 0.362569	 -0.477453
C	 3.580021	 -0.656538	 0.320835
H	 2.170545	 -0.847575	 -1.289412
H	 1.766632	 -1.772905	 0.124928
C	 4.327657	 0.562694	 -0.213579
H	 4.138806	 -1.549270	 0.057813
H	 3.561991	 -0.620783	 1.406976
H	 4.355973	 0.557257	 -1.298551
H	 3.867136	 1.491650	 0.100501
H	 5.351524	 0.571613	 0.142204

	symmetry c1
}
set optking {
	frozen_dihedral = ("
		8 11 14 18
	")
}

ee,wfn = optimize('scf', return_wfn=True)
oeprop( wfn, 'DIPOLE', 'QUADRUPOLE', 'MULLIKEN_CHARGES')
f=open( 'psi4out.xyz', 'w' )
f.write( "25  " )
f.write( str(ee) + "\n" )
f.write( MOL.save_string_xyz() )
f.close()
--------------------------------------------------------------------------

    Molecular point group: c1
  Charge       = 0
  Multiplicity = 1
  Basis Set: CC-PVTZ
  Basis Set:
  @DF-RHF Final Energy:  -387.22959603796778
    Total Energy =                       -387.2295960379675535
    Molecular point group: c1
  Basis Set: CC-PVTZ
  Basis Set:
  Basis Set: CC-PVTZ
  Basis Set:
  @DF-RHF Final Energy:  -387.24622044987404
    Total Energy =                       -387.2462204498742722
  Basis Set: CC-PVTZ
  Basis Set:
  Basis Set: CC-PVTZ
  Basis Set:
  @DF-RHF Final Energy:  -387.25030273328878
    Total Energy =                       -387.2503027332886631
  Basis Set: CC-PVTZ
  Basis Set:
  Basis Set: CC-PVTZ
  Basis Set:
  @DF-RHF Final Energy:  -387.25161162640006
    Total Energy =                       -387.2516116264000630
  Basis Set: CC-PVTZ
  Basis Set:
  @DF-RHF Final Energy:  -387.24968046809920
    Total Energy =                       -387.2496804680993137
  @DF-RHF Final Energy:  -387.25207106269556
    Total Energy =                       -387.2520710626952223
  @DF-RHF Final Energy:  -387.25244082317357
    Total Energy =                       -387.2524408231734014
  Basis Set: CC-PVTZ
  Basis Set:
  @DF-RHF Final Energy:  -387.25245732003361
    Total Energy =                       -387.2524573200338409
  Basis Set: CC-PVTZ
  Basis Set:
  Basis Set: CC-PVTZ
  Basis Set:
  @DF-RHF Final Energy:  -387.25247323638320
    Total Energy =                       -387.2524732363835938
  Basis Set: CC-PVTZ
  Basis Set:
  Basis Set: CC-PVTZ
  Basis Set:
  @DF-RHF Final Energy:  -387.25247533021076
    Total Energy =                       -387.2524753302107001
  Basis Set: CC-PVTZ
  Basis Set:
  Charge       = 0
  Multiplicity = 1
  Basis Set: CC-PVTZ
  Basis Set:

    Orbital Energies (a.u.)
    -----------------------

    Doubly Occupied:

       1A    -20.551577     2A    -11.321149     3A    -11.233860
       4A    -11.232799     5A    -11.221155     6A    -11.219062
       7A    -11.216100     8A    -11.215326     9A    -11.205191
      10A     -1.406542    11A     -1.104313    12A     -1.067424
      13A     -1.011317    14A     -0.948177    15A     -0.873948
      16A     -0.826993    17A     -0.789318    18A     -0.773502
      19A     -0.669016    20A     -0.661777    21A     -0.629453
      22A     -0.624429    23A     -0.610513    24A     -0.594846
      25A     -0.569751    26A     -0.556441    27A     -0.533954
      28A     -0.523336    29A     -0.518484    30A     -0.495852
      31A     -0.488439    32A     -0.487222    33A     -0.455611
      34A     -0.451364    35A     -0.442949    36A     -0.411992

  @DF-RHF Final Energy:  -387.25247611285857

   => Energetics <=

    Nuclear Repulsion Energy =            451.3858202206650390
    One-Electron Energy =               -1419.3902272812038063
    Two-Electron Energy =                 580.7519309476801936
    DFT Exchange-Correlation Energy =       0.0000000000000000
    Empirical Dispersion Energy =           0.0000000000000000
    PCM Polarization Energy =               0.0000000000000000
    EFP Energy =                            0.0000000000000000
    Total Energy =                       -387.2524761128586306
    Molecular point group: c1
  Basis Set: CC-PVTZ
  Basis Set:

  -Total Gradient:
     Atom            X                  Y                   Z
    ------   -----------------  -----------------  -----------------
       1       -0.000045309930    -0.000002146545    -0.000038409672
       2       -0.000009548263    -0.000050915949     0.000052833538
       3       -0.000020651748     0.000024663965     0.000019617949
       4        0.000039552367     0.000006923645     0.000012482824
       5        0.000048852764    -0.000020889398     0.000009399757
       6       -0.000013106916    -0.000000246433     0.000003291951
       7        0.000018879904     0.000015091587    -0.000041002792
       8        0.000828060295    -0.000897233908     0.004221724492
       9        0.000017732789     0.000000604495    -0.000006946529
      10        0.000000689951     0.000001085826     0.000014838862
      11       -0.002241004724     0.000385792399    -0.006195958217
      12       -0.000021418075     0.000002250697    -0.000011542506
      13       -0.000017014953     0.000018310836     0.000022617807
      14        0.005802681244     0.004436399488     0.001903412990
      15       -0.000000752503     0.000001829312     0.000008350862
      16        0.000020875176    -0.000017077054    -0.000010256338
      17        0.000002071707    -0.000020654975     0.000048614798
      18       -0.004340078219    -0.003916916422     0.000023178488
      19        0.000004839305     0.000002262869     0.000015395430
      20       -0.000030019037     0.000036202496    -0.000046842166
      21       -0.000052669774     0.000007969441     0.000003750892
      22       -0.000013537455    -0.000013410522    -0.000021084481
      23        0.000003946694     0.000017410397     0.000024584086
      24        0.000022023612    -0.000021136559    -0.000015177146
      25       -0.000005094210     0.000003830315     0.000003125121

  **** Optimization is complete! (in 11 steps) ****
    Final optimized geometry and variables:
    Molecular point group: c1

    Geometry (in Angstrom), charge = 0, multiplicity = 1:

    H           -1.302081945840     2.830097535948    -1.193494262934
    C           -0.562814166276     2.840140811420    -0.380834845634
    C           -1.010093242168     2.172751156301     0.891118132413
    O            0.487497940793     3.357933439599    -0.542937681934
    C           -1.525867871293     0.748865536766     0.661967521838
    H           -0.189399056165     2.190765751946     1.596461586895
    H           -1.813703193787     2.783204457859     1.296941117640
    C           -0.441922409812    -0.228577002939     0.210102616960
    H           -1.970717601694     0.392896504283     1.584899844417
    H           -2.328410052319     0.770245160135    -0.071125770128
    C           -0.988204469478    -1.642051104338     0.019003271702
    H            0.352604407419    -0.233138661057     0.947673263318
    H            0.001891975998     0.127160261717    -0.715500054955
    C            0.001429221432    -2.744172250133    -0.405367952334
    H           -1.436265178719    -1.942032847228     0.963556280029
    H           -1.801917977366    -1.618407554374    -0.699374190435
    C            1.414924187287    -2.721097051979     0.189048745920
    H            0.047211683397    -2.801307814512    -1.489706206277
    H           -0.460437924710    -3.683335383538    -0.114729799765
    C            2.432771413817    -1.868046712180    -0.566348491245
    H            1.784821596898    -3.741130583629     0.203426721825
    H            1.370801302967    -2.410320954263     1.229118567480
    H            2.519886628881    -2.200588991976    -1.595354557147
    H            2.169683246487    -0.819321897017    -0.581926695751
    H            3.413078288292    -1.952099116102    -0.110674758704

  Mulliken Charges: (a.u.)
   Center  Symbol    Alpha    Beta     Spin     Total
       1     H     0.46387  0.46387  0.00000  0.07226
       2     C     2.90489  2.90489  0.00000  0.19022
       3     C     3.08912  3.08912  0.00000 -0.17824
       4     O     4.16650  4.16650  0.00000 -0.33299
       5     C     3.11693  3.11693  0.00000 -0.23386
       6     H     0.44292  0.44292  0.00000  0.11416
       7     H     0.44038  0.44038  0.00000  0.11924
       8     C     3.10030  3.10030  0.00000 -0.20059
       9     H     0.44302  0.44302  0.00000  0.11396
      10     H     0.44905  0.44905  0.00000  0.10189
      11     C     3.09436  3.09436  0.00000 -0.18872
      12     H     0.44548  0.44548  0.00000  0.10903
      13     H     0.44677  0.44677  0.00000  0.10647
      14     C     3.09751  3.09751  0.00000 -0.19501
      15     H     0.45285  0.45285  0.00000  0.09430
      16     H     0.44847  0.44847  0.00000  0.10306
      17     C     3.10163  3.10163  0.00000 -0.20326
      18     H     0.45257  0.45257  0.00000  0.09486
      19     H     0.44694  0.44694  0.00000  0.10613
      20     C     3.15005  3.15005  0.00000 -0.30010
      21     H     0.44408  0.44408  0.00000  0.11185
      22     H     0.45193  0.45193  0.00000  0.09613
      23     H     0.45444  0.45444  0.00000  0.09112
      24     H     0.44846  0.44846  0.00000  0.10307
      25     H     0.44750  0.44750  0.00000  0.10501

   Total alpha = 36.00000, Total beta = 36.00000, Total charge =  0.00000

*** Psi4 exiting successfully. Buy a developer a beer!
