  ==> Input File <==

--------------------------------------------------------------------------
set {
	reference rhf
	basis cc-pvtz
}

set_num_threads( 4 )
memory 2 gb

molecule MOL {
0 1

H	 1.206861	 -0.085305	 -0.893864
C	 0.848385	 0.440008	 0.000011
C	 -0.623497	 0.751021	 0.000090
O	 1.601355	 0.717443	 0.867945
C	 -1.523725	 -0.474323	 -0.000013
H	 -0.813143	 1.382932	 -0.864897
H	 -0.813071	 1.382716	 0.865253
H	 -1.342980	 -1.087348	 -0.873016
H	 -2.565269	 -0.177464	 0.000070
H	 -1.342898	 -1.087564	 0.872820

	symmetry c1
}
set optking {
	frozen_dihedral = ("
		4 2 3 6
	")
}

ee = optimize('scf')
oeprop('DIPOLE', 'QUADRUPOLE', 'MULLIKEN_CHARGES')
f=open( 'psi4out.xyz', 'w' )
f.write( "10  " )
f.write( str(ee) + "\n" )
f.write( MOL.save_string_xyz() )
f.close()
--------------------------------------------------------------------------

    Molecular point group: c1
  Charge       = 0
  Multiplicity = 1
  Basis Set: CC-PVTZ
  Basis Set:
  @DF-RHF Final Energy:  -192.02256141361090
    Total Energy =                       -192.0225614136109016
    Molecular point group: c1
  Basis Set: CC-PVTZ
  Basis Set:
  Basis Set: CC-PVTZ
  Basis Set:
  @DF-RHF Final Energy:  -192.02326813204206
    Total Energy =                       -192.0232681320421193
  Basis Set: CC-PVTZ
  Basis Set:
  Basis Set: CC-PVTZ
  Basis Set:
  @DF-RHF Final Energy:  -192.02310730073191
    Total Energy =                       -192.0231073007319651
  Basis Set: CC-PVTZ
  Basis Set:
  Basis Set: CC-PVTZ
  Basis Set:
  @DF-RHF Final Energy:  -192.02327720676033
    Total Energy =                       -192.0232772067603548
  Basis Set: CC-PVTZ
  Basis Set:
  Charge       = 0
  Multiplicity = 1
  Basis Set: CC-PVTZ
  Basis Set:

    Orbital Energies (a.u.)
    -----------------------

    Doubly Occupied:

       1A    -20.553608     2A    -11.322698     3A    -11.238243
       4A    -11.232612     5A     -1.408433     6A     -1.068227
       7A     -0.905134     8A     -0.794166     9A     -0.678075
      10A     -0.644067    11A     -0.616245    12A     -0.570353
      13A     -0.545056    14A     -0.515778    15A     -0.499749
      16A     -0.415049

  @DF-RHF Final Energy:  -192.02332853545340

   => Energetics <=

    Nuclear Repulsion Energy =            117.6745798827074623
    One-Electron Energy =                -493.3808333138986200
    Two-Electron Energy =                 183.6829248957377558
    DFT Exchange-Correlation Energy =       0.0000000000000000
    Empirical Dispersion Energy =           0.0000000000000000
    PCM Polarization Energy =               0.0000000000000000
    EFP Energy =                            0.0000000000000000
    Total Energy =                       -192.0233285354534019
    Molecular point group: c1
  Basis Set: CC-PVTZ
  Basis Set:

  -Total Gradient:
     Atom            X                  Y                   Z
    ------   -----------------  -----------------  -----------------
       1        0.000020930933    -0.000014926402     0.000032452197
       2        0.000008874763     0.000332186002    -0.000342848471
       3       -0.000024800799     0.000138678886     0.000309341844
       4        0.000025061275    -0.000213278349     0.000208689201
       5        0.000067921288     0.000130793239     0.000008229985
       6       -0.000049013731    -0.000215837666    -0.000185976426
       7        0.000041055162    -0.000073483793    -0.000029991614
       8       -0.000016891549    -0.000014400267    -0.000003324341
       9       -0.000043256422    -0.000025409705    -0.000007880573
      10       -0.000029880917    -0.000044321945     0.000011308199

  **** Optimization is complete! (in 5 steps) ****
    Final optimized geometry and variables:
    Molecular point group: c1

    Geometry (in Angstrom), charge = 0, multiplicity = 1:

    H            1.081406084546    -0.504106253986    -1.097218359060
    C            0.757219752147     0.073726468847    -0.221420099610
    C           -0.705015820446     0.425060425571    -0.195863364304
    O            1.536884824210     0.364494029350     0.618068997470
    C           -1.583649635263    -0.826997852723    -0.223340914988
    H           -0.911790963307     1.029536568558    -1.075428199963
    H           -0.899263722463     1.024445386245     0.682760316721
    H           -1.373630786370    -1.437822048054    -1.094424123932
    H           -2.630367891909    -0.554256294019    -0.256252699306
    H           -1.423168539853    -1.434630458691     0.659164284268

  Mulliken Charges: (a.u.)
   Center  Symbol    Alpha    Beta     Spin     Total
       1     H     0.46606  0.46606  0.00000  0.06787
       2     C     2.90017  2.90017  0.00000  0.19965
       3     C     3.08040  3.08040  0.00000 -0.16080
       4     O     4.16392  4.16392  0.00000 -0.32784
       5     C     3.15077  3.15077  0.00000 -0.30153
       6     H     0.45138  0.45138  0.00000  0.09723
       7     H     0.44209  0.44209  0.00000  0.11581
       8     H     0.45360  0.45360  0.00000  0.09280
       9     H     0.44442  0.44442  0.00000  0.11117
      10     H     0.44718  0.44718  0.00000  0.10564

   Total alpha = 16.00000, Total beta = 16.00000, Total charge =  0.00000
