  ==> Input File <==

--------------------------------------------------------------------------
set {
	reference rhf
	basis 6-31G*
}

set_num_threads( 1 )
memory 2 gb

molecule MOL {
0 1

H	 -3.612575	 1.133704	 1.130025
O	 -2.752932	 1.425312	 0.862156
C	 -2.026376	 0.340750	 0.341611
C	 -0.673256	 0.843270	 -0.132153
H	 -1.887574	 -0.423601	 1.104132
H	 -2.564334	 -0.116774	 -0.487802
C	 0.486613	 -0.083066	 0.235839
H	 -0.715586	 0.970948	 -1.210718
H	 -0.508072	 1.829858	 0.297090
C	 1.840406	 0.433480	 -0.254303
H	 0.300215	 -1.068318	 -0.178947
H	 0.519509	 -0.203625	 1.318070
C	 3.000220	 -0.489290	 0.118523
H	 1.809207	 0.553576	 -1.335192
H	 2.021860	 1.424500	 0.157276
H	 2.864959	 -1.479103	 -0.307933
H	 3.946603	 -0.099227	 -0.243630
H	 3.080049	 -0.602997	 1.196117

	symmetry c1
}
set optking {
	frozen_dihedral = ("
		14 10 7 11,
		10 7 4 8,
		1 2 3 4
	")
}

ee = energy('scf')
oeprop('DIPOLE', 'QUADRUPOLE', 'MULLIKEN_CHARGES')
f=open( 'psi4out.xyz', 'w' )
f.write( "18  " )
f.write( str(ee) + "\n" )
f.write( MOL.save_string_xyz() )
f.close()
--------------------------------------------------------------------------

    Molecular point group: c1

    Geometry (in Angstrom), charge = 0, multiplicity = 1:

       Center              X                  Y                   Z               Mass
    ------------   -----------------  -----------------  -----------------  -----------------
           H         -3.530768330989     0.710569365719     0.914855119209     1.007825032070
           O         -2.671125330989     1.002177365719     0.646986119209    15.994914619560
           C         -1.944569330989    -0.082384634281     0.126441119209    12.000000000000
           C         -0.591449330989     0.420135365719    -0.347322880791    12.000000000000
           H         -1.805767330989    -0.846735634281     0.888962119209     1.007825032070
           H         -2.482527330989    -0.539908634281    -0.702971880791     1.007825032070
           C          0.568419669011    -0.506200634281     0.020669119209    12.000000000000
           H         -0.633779330989     0.547813365719    -1.425887880791     1.007825032070
           H         -0.426265330989     1.406723365719     0.081920119209     1.007825032070
           C          1.922212669011     0.010345365719    -0.469472880791    12.000000000000
           H          0.382021669011    -1.491452634281    -0.394116880791     1.007825032070
           H          0.601315669011    -0.626759634281     1.102900119209     1.007825032070
           C          3.082026669011    -0.912424634281    -0.096646880791    12.000000000000
           H          1.891013669011     0.130441365719    -1.550361880791     1.007825032070
           H          2.103666669011     1.001365365719    -0.057893880791     1.007825032070
           H          2.946765669011    -1.902237634281    -0.523102880791     1.007825032070
           H          4.028409669011    -0.522361634281    -0.458799880791     1.007825032070
           H          3.161855669011    -1.026131634281     0.980947119209     1.007825032070

  Charge       = 0
  Multiplicity = 1
  Basis Set: 6-31G*
  Basis Set:

    Orbital Energies (a.u.)
    -----------------------

    Doubly Occupied:

       1A    -20.551731     2A    -11.266359     3A    -11.215122
       4A    -11.214527     5A    -11.209479     6A    -11.208112
       7A     -1.358276     8A     -1.079616     9A     -1.010499
      10A     -0.913293    11A     -0.819111    12A     -0.791829
      13A     -0.698867    14A     -0.651161    15A     -0.624705
      16A     -0.583644    17A     -0.571221    18A     -0.558638
      19A     -0.528155    20A     -0.495753    21A     -0.489520
      22A     -0.468804    23A     -0.463700    24A     -0.451757
      25A     -0.428623

  @DF-RHF Final Energy:  -271.17479417064254

   => Energetics <=

    Nuclear Repulsion Energy =            245.6775664358040672
    One-Electron Energy =                -854.3998108545181367
    Two-Electron Energy =                 337.5474502480711863
    DFT Exchange-Correlation Energy =       0.0000000000000000
    Empirical Dispersion Energy =           0.0000000000000000
    PCM Polarization Energy =               0.0000000000000000
    EFP Energy =                            0.0000000000000000
    Total Energy =                       -271.1747941706429401

  Mulliken Charges: (a.u.)
   Center  Symbol    Alpha    Beta     Spin     Total
       1     H     0.28188  0.28188  0.00000  0.43625
       2     O     4.37117  4.37117  0.00000 -0.74235
       3     C     2.99299  2.99299  0.00000  0.01402
       4     C     3.16440  3.16440  0.00000 -0.32880
       5     H     0.43039  0.43039  0.00000  0.13921
       6     H     0.43120  0.43120  0.00000  0.13760
       7     C     3.15883  3.15883  0.00000 -0.31765
       8     H     0.41996  0.41996  0.00000  0.16008
       9     H     0.40533  0.40533  0.00000  0.18935
      10     C     3.15188  3.15188  0.00000 -0.30377
      11     H     0.42466  0.42466  0.00000  0.15068
      12     H     0.42127  0.42127  0.00000  0.15745
      13     C     3.23929  3.23929  0.00000 -0.47859
      14     H     0.42272  0.42272  0.00000  0.15457
      15     H     0.42099  0.42099  0.00000  0.15803
      16     H     0.42229  0.42229  0.00000  0.15542
      17     H     0.41912  0.41912  0.00000  0.16175
      18     H     0.42163  0.42163  0.00000  0.15674

   Total alpha = 25.00000, Total beta = 25.00000, Total charge = -0.00000
