  ==> Input File <==

--------------------------------------------------------------------------
set {
	reference rhf
	basis 6-31G*
}

set_num_threads( 4 )
memory 2 gb

molecule MOL {
0 1

H	 2.591676	 2.013956	 0.335017
O	 3.341076	 1.666752	 -0.126416
C	 3.569581	 0.339145	 0.272707
C	 2.539767	 -0.640285	 -0.279495
H	 4.553106	 0.084646	 -0.100901
H	 3.608576	 0.269204	 1.359154
C	 1.115811	 -0.397273	 0.226630
H	 2.556196	 -0.582511	 -1.364741
H	 2.852081	 -1.648031	 -0.010655
C	 0.383051	 -1.695483	 0.576675
H	 0.554930	 0.143012	 -0.530911
H	 1.149242	 0.242867	 1.108358
C	 -1.017823	 -1.504461	 1.169469
H	 0.315417	 -2.319377	 -0.312723
H	 0.986309	 -2.251515	 1.291244
C	 -2.048600	 -0.906953	 0.207720
H	 -1.380394	 -2.472709	 1.508371
H	 -0.949620	 -0.879767	 2.058818
C	 -3.453462	 -0.833883	 0.809765
H	 -2.079407	 -1.504674	 -0.702165
H	 -1.743700	 0.092126	 -0.094242
C	 -4.483029	 -0.231905	 -0.145891
H	 -3.772523	 -1.832275	 1.101143
H	 -3.422822	 -0.245119	 1.724262
H	 -4.560947	 -0.817363	 -1.057698
H	 -5.468246	 -0.195580	 0.308711
H	 -4.211564	 0.781672	 -0.427551

	symmetry c1
}
set optking {
	frozen_dihedral = ("
		10 7 4 8
	")
}

ee = optimize('scf')
oeprop('DIPOLE', 'QUADRUPOLE', 'MULLIKEN_CHARGES')
f=open( 'psi4out.xyz', 'w' )
f.write( "27  " )
f.write( str(ee) + "\n" )
f.write( MOL.save_string_xyz() )
f.close()
--------------------------------------------------------------------------

    Molecular point group: c1
  Charge       = 0
  Multiplicity = 1
  Basis Set: 6-31G*
  Basis Set:
  @DF-RHF Final Energy:  -388.27757938002867
    Total Energy =                       -388.2775793800279871
    Molecular point group: c1
  Basis Set: 6-31G*
  Basis Set:
  Basis Set: 6-31G*
  Basis Set:
  @DF-RHF Final Energy:  -388.27795689834238
    Total Energy =                       -388.2779568983423815
  Basis Set: 6-31G*
  Basis Set:
  Basis Set: 6-31G*
  Basis Set:
  @DF-RHF Final Energy:  -388.27798908945346
    Total Energy =                       -388.2779890894531718
  Basis Set: 6-31G*
  Basis Set:
  Basis Set: 6-31G*
  Basis Set:
  @DF-RHF Final Energy:  -388.27804144763581
    Total Energy =                       -388.2780414476362694
  Basis Set: 6-31G*
  Basis Set:
  Basis Set: 6-31G*
  Basis Set:
  @DF-RHF Final Energy:  -388.27804747473255
    Total Energy =                       -388.2780474747323751
  Basis Set: 6-31G*
  Basis Set:
  Basis Set: 6-31G*
  Basis Set:
  @DF-RHF Final Energy:  -388.27804888726081
    Total Energy =                       -388.2780488872606384
  Basis Set: 6-31G*
  Basis Set:
  Charge       = 0
  Multiplicity = 1
  Basis Set: 6-31G*
  Basis Set:

    Orbital Energies (a.u.)
    -----------------------

    Doubly Occupied:

       1A    -20.551556     2A    -11.266427     3A    -11.221277
       4A    -11.218900     5A    -11.216578     6A    -11.216480
       7A    -11.215544     8A    -11.214854     9A    -11.209659
      10A     -1.358550    11A     -1.095434    12A     -1.061038
      13A     -1.011547    14A     -0.948706    15A     -0.888402
      16A     -0.821698    17A     -0.801736    18A     -0.779461
      19A     -0.695170    20A     -0.648530    21A     -0.629822
      22A     -0.620770    23A     -0.605046    24A     -0.584666
      25A     -0.576414    26A     -0.554503    27A     -0.542833
      28A     -0.526934    29A     -0.508666    30A     -0.496888
      31A     -0.485962    32A     -0.475600    33A     -0.469029
      34A     -0.461706    35A     -0.448624    36A     -0.440931
      37A     -0.423868

  @DF-RHF Final Energy:  -388.27804935800310

   => Energetics <=

    Nuclear Repulsion Energy =            458.7424865191534877
    One-Electron Energy =               -1435.4534577865758820
    Two-Electron Energy =                 588.4329219094194059
    DFT Exchange-Correlation Energy =       0.0000000000000000
    Empirical Dispersion Energy =           0.0000000000000000
    PCM Polarization Energy =               0.0000000000000000
    EFP Energy =                            0.0000000000000000
    Total Energy =                       -388.2780493580029315
    Molecular point group: c1
  Basis Set: 6-31G*
  Basis Set:

  -Total Gradient:
     Atom            X                  Y                   Z
    ------   -----------------  -----------------  -----------------
       1        0.000001323187     0.000007488220     0.000003394639
       2       -0.000014810879    -0.000002556637     0.000008264411
       3        0.000022325821    -0.000007081894    -0.000025314501
       4       -0.000550173389    -0.004485520875     0.000594596368
       5        0.000006991624    -0.000012660203     0.000009310589
       6       -0.000015203676     0.000009522109    -0.000005381018
       7       -0.001188239936     0.000800736979    -0.003417818021
       8        0.000744009648     0.003647113829     0.000330034667
       9        0.000006794145    -0.000005163700    -0.000007520318
      10        0.000984001405     0.000050605131     0.002505001883
      11       -0.000002331336    -0.000004551235    -0.000000030013
      12        0.000005018549     0.000005322497    -0.000003982465
      13        0.000004160900     0.000003611263     0.000002633908
      14       -0.000001471995    -0.000008503173     0.000005328274
      15       -0.000001973118     0.000004683819     0.000004742050
      16       -0.000000869156     0.000010591040    -0.000000759241
      17       -0.000000123354    -0.000002357705    -0.000004839153
      18        0.000000575979    -0.000005169380     0.000000684873
      19        0.000001129428    -0.000000447593    -0.000000461823
      20        0.000003564593    -0.000003580501     0.000003477794
      21       -0.000003292227    -0.000000215161    -0.000001636382
      22        0.000000899448    -0.000000043534    -0.000000080337
      23       -0.000003226914    -0.000000030378    -0.000002374594
      24        0.000000399791    -0.000002375609     0.000002465032
      25       -0.000001058603    -0.000000194033    -0.000000034542
      26        0.000000688165     0.000001118447     0.000000680791
      27        0.000000891902    -0.000000341722    -0.000000382870

  **** Optimization is complete! (in 7 steps) ****
    Final optimized geometry and variables:
    Molecular point group: c1

    Geometry (in Angstrom), charge = 0, multiplicity = 1:

    H            2.492066814016     2.389867988207     0.008676513421
    O            3.279397989466     2.090788960146    -0.423716810084
    C            3.549925242832     0.765567116939    -0.044640159800
    C            2.517358674323    -0.221779140789    -0.577674959207
    H            4.526700046170     0.536914006955    -0.451236353206
    H            3.621534571034     0.685719833355     1.039600793037
    C            1.097942040671     0.019918229391    -0.025628069920
    H            2.514924585996    -0.125023169033    -1.659182847535
    H            2.850174575632    -1.228535751597    -0.336936652509
    C            0.348395315020    -1.276767146500     0.296855334001
    H            0.531454058978     0.622473035597    -0.727414824953
    H            1.157571542362     0.601774571086     0.895505152110
    C           -1.055146940334    -1.081724536018     0.880985942485
    H            0.282643487017    -1.889733405647    -0.600854012125
    H            0.943824069150    -1.845337918916     1.007742897119
    C           -2.080054774025    -0.487553758897    -0.089156103476
    H           -1.420825486425    -2.048072313593     1.221926308538
    H           -0.991294363879    -0.453570373393     1.768416955880
    C           -3.486535853894    -0.403142911573     0.507664694933
    H           -2.110579018698    -1.093534149565    -0.993548331946
    H           -1.769961662762     0.507286288985    -0.399338813441
    C           -4.510666667192     0.192914937753    -0.457474284861
    H           -3.810337009793    -1.397291988656     0.808229857410
    H           -3.456638545365     0.194889834428     1.416150359710
    H           -4.588290805387    -0.401915926345    -1.363217091919
    H           -5.497059650648     0.238047369900    -0.006261164541
    H           -4.234104321564     1.202274770972    -0.749013397789

  Mulliken Charges: (a.u.)
   Center  Symbol    Alpha    Beta     Spin     Total
       1     H     0.27951  0.27951  0.00000  0.44098
       2     O     4.37169  4.37169  0.00000 -0.74338
       3     C     2.99884  2.99884  0.00000  0.00231
       4     C     3.16288  3.16288  0.00000 -0.32577
       5     H     0.41535  0.41535  0.00000  0.16929
       6     H     0.43218  0.43218  0.00000  0.13565
       7     C     3.16619  3.16619  0.00000 -0.33237
       8     H     0.41289  0.41289  0.00000  0.17422
       9     H     0.42112  0.42112  0.00000  0.15776
      10     C     3.15411  3.15411  0.00000 -0.30823
      11     H     0.41394  0.41394  0.00000  0.17212
      12     H     0.42988  0.42988  0.00000  0.14024
      13     C     3.15428  3.15428  0.00000 -0.30855
      14     H     0.42170  0.42170  0.00000  0.15661
      15     H     0.42137  0.42137  0.00000  0.15726
      16     C     3.15243  3.15243  0.00000 -0.30485
      17     H     0.42103  0.42103  0.00000  0.15794
      18     H     0.42450  0.42450  0.00000  0.15099
      19     C     3.15122  3.15122  0.00000 -0.30244
      20     H     0.42376  0.42376  0.00000  0.15248
      21     H     0.42307  0.42307  0.00000  0.15387
      22     C     3.23923  3.23923  0.00000 -0.47847
      23     H     0.42290  0.42290  0.00000  0.15420
      24     H     0.42328  0.42328  0.00000  0.15344
      25     H     0.42155  0.42155  0.00000  0.15691
      26     H     0.41917  0.41917  0.00000  0.16167
      27     H     0.42193  0.42193  0.00000  0.15613

   Total alpha = 37.00000, Total beta = 37.00000, Total charge =  0.00000
