                              Psi4 1.0.54 Driver

  ==> Input File <==

--------------------------------------------------------------------------
set {
	reference rhf
	basis cc-pvtz
}

set_num_threads( 4 )
memory 2 gb

molecule MOL {
0 1

H	 -0.951290	 -1.096107	 -0.670592
N	 -1.173824	 -0.310545	 -0.096857
C	 -0.022588	 0.563366	 0.065815
H	 -1.928203	 0.172904	 -0.538219
C	 1.270420	 -0.230572	 -0.014245
H	 -0.045354	 1.293678	 -0.735129
H	 -0.043155	 1.123061	 1.001180
H	 1.336273	 -0.754933	 -0.959364
H	 2.130728	 0.422015	 0.082222
H	 1.323344	 -0.967006	 0.781773

	symmetry c1
}
set optking {
	frozen_dihedral = ("
		1 2 3 6
	")
}

ee,wfn = optimize('scf', return_wfn=True)
oeprop( wfn, 'DIPOLE', 'QUADRUPOLE', 'MULLIKEN_CHARGES')
f=open( 'psi4out.xyz', 'w' )
f.write( "10  " )
f.write( str(ee) + "\n" )
f.write( MOL.save_string_xyz() )
f.close()
--------------------------------------------------------------------------

    Molecular point group: c1
  Charge       = 0
  Multiplicity = 1
  Basis Set: CC-PVTZ
  Basis Set:
  @DF-RHF Final Energy:  -134.30118695835733
    Total Energy =                       -134.3011869583573628
    Molecular point group: c1
  Basis Set: CC-PVTZ
  Basis Set:
  Basis Set: CC-PVTZ
  Basis Set:
  @DF-RHF Final Energy:  -134.24899411480845
    Total Energy =                       -134.2489941148084540
  Basis Set: CC-PVTZ
  Basis Set:
  Basis Set: CC-PVTZ
  Basis Set:
  @DF-RHF Final Energy:  -134.29589366039670
    Total Energy =                       -134.2958936603967572
  Basis Set: CC-PVTZ
  Basis Set:
  Basis Set: CC-PVTZ
  Basis Set:
  @DF-RHF Final Energy:  -134.30283221012604
    Total Energy =                       -134.3028322101259846
  Basis Set: CC-PVTZ
  Basis Set:
  Basis Set: CC-PVTZ
  Basis Set:
  @DF-RHF Final Energy:  -134.30294499582729
    Total Energy =                       -134.3029449958273744
  Basis Set: CC-PVTZ
  Basis Set:
  Basis Set: CC-PVTZ
  Basis Set:
  @DF-RHF Final Energy:  -134.30299987693337
    Total Energy =                       -134.3029998769334270
  Basis Set: CC-PVTZ
  Basis Set:
  Basis Set: CC-PVTZ
  Basis Set:
  @DF-RHF Final Energy:  -134.30300126427704
    Total Energy =                       -134.3030012642770714
  Basis Set: CC-PVTZ
  Basis Set:
  Charge       = 0
  Multiplicity = 1
  Basis Set: CC-PVTZ
  Basis Set:

    Orbital Energies (a.u.)
    -----------------------

    Doubly Occupied:

       1A    -15.524253     2A    -11.240470     3A    -11.209472
       4A     -1.175975     5A     -0.989873     6A     -0.828137
       7A     -0.661459     8A     -0.627940     9A     -0.591776
      10A     -0.521420    11A     -0.502332    12A     -0.496078
      13A     -0.379669

  @DF-RHF Final Energy:  -134.30300138086065

   => Energetics <=

    Nuclear Repulsion Energy =             83.5396162095061356
    One-Electron Energy =                -346.1875262332061993
    Two-Electron Energy =                 128.3449086428394139
    DFT Exchange-Correlation Energy =       0.0000000000000000
    Empirical Dispersion Energy =           0.0000000000000000
    PCM Polarization Energy =               0.0000000000000000
    EFP Energy =                            0.0000000000000000
    Total Energy =                       -134.3030013808606782
    Molecular point group: c1
  Basis Set: CC-PVTZ
  Basis Set:

  -Total Gradient:
     Atom            X                  Y                   Z
    ------   -----------------  -----------------  -----------------
       1        0.000195073957    -0.002627293702     0.001742336987
       2       -0.000492645593     0.003712176356    -0.001507715510
       3        0.001059194344    -0.002591232631    -0.002589386435
       4        0.000012784996    -0.000006600699     0.000001089764
       5       -0.000020670504    -0.000001897440    -0.000000685441
       6       -0.000753818120     0.001514419177     0.002364131486
       7       -0.000011874131     0.000000802546     0.000000884207
       8        0.000004423296    -0.000007346033    -0.000009277971
       9        0.000004259108    -0.000000485529     0.000001150080
      10        0.000003272649     0.000007457955    -0.000002527167

  **** Optimization is complete! (in 8 steps) ****
    Final optimized geometry and variables:
    Molecular point group: c1

    Geometry (in Angstrom), charge = 0, multiplicity = 1:

    H           -1.321268469385    -0.360402169364    -0.839197409746
    N           -1.208428953788     0.194696180895    -0.018851963102
    C            0.193567190744     0.477353607654     0.250344280135
    H           -1.751692018696     1.023497191579    -0.118600685367
    C            1.076381170281    -0.684288022970    -0.169631318803
    H            0.532553596625     1.394055489320    -0.229938486630
    H            0.309507644823     0.639477042845     1.317385398006
    H            1.029935122828    -0.841986532070    -1.242766446477
    H            2.110394345842    -0.497719379199     0.094330442551
    H            0.759847364424    -1.598165944448     0.319687563112

  Mulliken Charges: (a.u.)
   Center  Symbol    Alpha    Beta     Spin     Total
       1     H     0.42945  0.42945  0.00000  0.14109
       2     N     3.69295  3.69295  0.00000 -0.38591
       3     C     3.01116  3.01116  0.00000 -0.02232
       4     H     0.42848  0.42848  0.00000  0.14305
       5     C     3.14519  3.14519  0.00000 -0.29038
       6     H     0.46959  0.46959  0.00000  0.06081
       7     H     0.46216  0.46216  0.00000  0.07568
       8     H     0.45994  0.45994  0.00000  0.08013
       9     H     0.45197  0.45197  0.00000  0.09606
      10     H     0.44911  0.44911  0.00000  0.10178

   Total alpha = 13.00000, Total beta = 13.00000, Total charge = -0.00000

*** Psi4 exiting successfully. Buy a developer a beer!
