  ==> Input File <==

--------------------------------------------------------------------------
set {
	reference rhf
	basis 6-31G*
}

set_num_threads( 4 )
memory 2 gb

molecule MOL {
0 1

H	 2.795998	 0.478103	 2.242676
O	 1.870462	 0.312158	 2.354273
C	 1.214095	 0.418474	 1.178574
C	 1.861568	 0.732695	 -0.009428
C	 -0.152788	 0.201638	 1.185181
H	 2.925373	 0.901061	 -0.012383
C	 1.142511	 0.829796	 -1.188919
H	 -0.654137	 -0.041142	 2.102123
C	 -0.865228	 0.300799	 0.000000
H	 1.654549	 1.073579	 -2.102026
C	 -0.223820	 0.614700	 -1.191567
C	 -2.333960	 0.069074	 0.000000
H	 -0.784306	 0.689608	 -2.106580
O	 -2.847347	 -1.003763	 0.000000
H	 -2.943845	 0.977528	 0.000000

	symmetry c1
}
set optking {
	frozen_dihedral = ("
		11 9 12 14
	")
}

ee = optimize('scf')
oeprop('DIPOLE', 'QUADRUPOLE', 'MULLIKEN_CHARGES')
f=open( 'psi4out.xyz', 'w' )
f.write( "15  " )
f.write( str(ee) + "\n" )
f.write( MOL.save_string_xyz() )
f.close()
--------------------------------------------------------------------------

    Molecular point group: c1
  Charge       = 0
  Multiplicity = 1
  Basis Set: 6-31G*
  Basis Set:
  @DF-RHF Final Energy:  -418.27355903040740
    Total Energy =                       -418.2735590304072275
    Molecular point group: c1
  Basis Set: 6-31G*
  Basis Set:
  Basis Set: 6-31G*
  Basis Set:
  @DF-RHF Final Energy:  -418.27321981742699
    Total Energy =                       -418.2732198174265932
  Basis Set: 6-31G*
  Basis Set:
  Basis Set: 6-31G*
  Basis Set:
  @DF-RHF Final Energy:  -418.27366167833208
    Total Energy =                       -418.2736616783317913
  Basis Set: 6-31G*
  Basis Set:
  Basis Set: 6-31G*
  Basis Set:
  @DF-RHF Final Energy:  -418.27390570925718
    Total Energy =                       -418.2739057092571784
  Basis Set: 6-31G*
  Basis Set:
  Basis Set: 6-31G*
  Basis Set:
  @DF-RHF Final Energy:  -418.27390768845657
    Total Energy =                       -418.2739076884568021
  Basis Set: 6-31G*
  Basis Set:
  Charge       = 0
  Multiplicity = 1
  Basis Set: 6-31G*
  Basis Set:

    Orbital Energies (a.u.)
    -----------------------

    Doubly Occupied:

       1A    -20.602458     2A    -20.573413     3A    -11.336956
       4A    -11.313163     5A    -11.257239     6A    -11.251838
       7A    -11.241783     8A    -11.239898     9A    -11.239319
      10A     -1.422286    11A     -1.412584    12A     -1.167411
      13A     -1.047382    14A     -1.023478    15A     -0.898626
      16A     -0.841585    17A     -0.817354    18A     -0.738078
      19A     -0.699641    20A     -0.677907    21A     -0.659744
      22A     -0.639061    23A     -0.613173    24A     -0.600269
      25A     -0.581563    26A     -0.543804    27A     -0.528466
      28A     -0.511797    29A     -0.492064    30A     -0.423127
      31A     -0.352899    32A     -0.323643

  @DF-RHF Final Energy:  -418.27390831459786

   => Energetics <=

    Nuclear Repulsion Energy =            402.0123268901940037
    One-Electron Energy =               -1366.4284554628668502
    Two-Electron Energy =                 546.1422202580745306
    DFT Exchange-Correlation Energy =       0.0000000000000000
    Empirical Dispersion Energy =           0.0000000000000000
    PCM Polarization Energy =               0.0000000000000000
    EFP Energy =                            0.0000000000000000
    Total Energy =                       -418.2739083145983159
    Molecular point group: c1
  Basis Set: 6-31G*
  Basis Set:

  -Total Gradient:
     Atom            X                  Y                   Z
    ------   -----------------  -----------------  -----------------
       1       -0.000005700787     0.000010670724    -0.000004836010
       2       -0.000000109280     0.000024961397    -0.000008737147
       3        0.000002921977    -0.000099345260     0.000001020351
       4        0.000001061260     0.000037011204    -0.000016584709
       5       -0.000003810160     0.000010393713     0.000007357017
       6        0.000000436765    -0.000006687397     0.000005881494
       7        0.000066256271     0.000020229392     0.000041878646
       8        0.000012851506     0.000016963777    -0.000004537109
       9       -0.000596734866     0.003250714588    -0.000748057670
      10       -0.000006522081    -0.000003935667    -0.000002434937
      11        0.000287353357    -0.002279751742    -0.000318385904
      12        0.000154787990    -0.000998202314     0.003811916144
      13        0.000005530125     0.000010666626    -0.000003268228
      14        0.000055480422     0.000019651450    -0.002785672043
      15        0.000026197498    -0.000013340487     0.000024460106

  **** Optimization is complete! (in 6 steps) ****
    Final optimized geometry and variables:
    Molecular point group: c1

    Geometry (in Angstrom), charge = 0, multiplicity = 1:

    H            2.835628630074     0.197674145056     1.933558400493
    O            1.905602774262     0.057767138916     2.044758392325
    C            1.258039487902     0.166526028297     0.865510224504
    C            1.908650738836     0.475644049061    -0.317903705451
    C           -0.113649801038    -0.047817457618     0.872164673171
    H            2.973113239399     0.638313410123    -0.322943531042
    C            1.182682295018     0.571049978161    -1.494682996949
    H           -0.595485231037    -0.301951924103     1.798034918530
    C           -0.828207616786     0.061301449267    -0.306382131719
    H            1.693515880660     0.803169814082    -2.411726388809
    C           -0.184764130964     0.369577680066    -1.499642212047
    C           -2.309216473910    -0.187724417871    -0.304926843118
    H           -0.741095080377     0.444556673489    -2.416676469656
    O           -2.794036858853    -1.271081803742    -0.293846837237
    H           -2.942882572464     0.702971519154    -0.341787746865

  Mulliken Charges: (a.u.)
   Center  Symbol    Alpha    Beta     Spin     Total
       1     H     0.27014  0.27014  0.00000  0.45971
       2     O     4.37618  4.37618  0.00000 -0.75237
       3     C     2.79078  2.79078  0.00000  0.41844
       4     C     3.14234  3.14234  0.00000 -0.28468
       5     C     3.12629  3.12629  0.00000 -0.25257
       6     H     0.40065  0.40065  0.00000  0.19870
       7     C     3.08867  3.08867  0.00000 -0.17735
       8     H     0.38303  0.38303  0.00000  0.23393
       9     C     3.02132  3.02132  0.00000 -0.04263
      10     H     0.39368  0.39368  0.00000  0.21264
      11     C     3.11830  3.11830  0.00000 -0.23659
      12     C     2.85260  2.85260  0.00000  0.29480
      13     H     0.39363  0.39363  0.00000  0.21273
      14     O     4.22018  4.22018  0.00000 -0.44036
      15     H     0.42220  0.42220  0.00000  0.15559

   Total alpha = 32.00000, Total beta = 32.00000, Total charge = -0.00000
