  ==> Input File <==

--------------------------------------------------------------------------
set {
	reference rhf
	basis 6-31G*
}

set_num_threads( 4 )
memory 2 gb

molecule MOL {
0 1

H	 -1.289760	 1.377502	 -1.953626
C	 -1.005395	 0.760990	 -1.123894
C	 -1.926138	 0.444931	 -0.070393
C	 0.232448	 0.257215	 -1.038034
H	 -2.927946	 0.834559	 -0.110590
C	 -1.547408	 -0.328332	 0.957270
H	 0.980405	 0.446351	 -1.784487
N	 0.640212	 -0.532897	 -0.000111
H	 -2.207979	 -0.585460	 1.762184
C	 -0.200382	 -0.876438	 1.050441
C	 2.010177	 -1.032049	 0.000042
O	 0.178876	 -1.575229	 1.957116
H	 2.187698	 -1.635381	 -0.882279
H	 2.677579	 -0.189247	 -0.001871
H	 2.188882	 -1.632203	 0.884288

	symmetry c1
}
set optking {
	frozen_dihedral = ("
		10 8 11 13
	")
}

ee = optimize('scf')
oeprop('DIPOLE', 'QUADRUPOLE', 'MULLIKEN_CHARGES')
f=open( 'psi4out.xyz', 'w' )
f.write( "15  " )
f.write( str(ee) + "\n" )
f.write( MOL.save_string_xyz() )
f.close()
--------------------------------------------------------------------------

    Molecular point group: c1
  Charge       = 0
  Multiplicity = 1
  Basis Set: 6-31G*
  Basis Set:
  @DF-RHF Final Energy:  -360.59548556397084
    Total Energy =                       -360.5954855639711241
    Molecular point group: c1
  Basis Set: 6-31G*
  Basis Set:
  Basis Set: 6-31G*
  Basis Set:
  @DF-RHF Final Energy:  -360.59577701116842
    Total Energy =                       -360.5957770111683658
  Basis Set: 6-31G*
  Basis Set:
  Basis Set: 6-31G*
  Basis Set:
  @DF-RHF Final Energy:  -360.59581501251006
    Total Energy =                       -360.5958150125100019
  Basis Set: 6-31G*
  Basis Set:
  Basis Set: 6-31G*
  Basis Set:
  @DF-RHF Final Energy:  -360.59580683085630
    Total Energy =                       -360.5958068308563043
  Basis Set: 6-31G*
  Basis Set:
  Charge       = 0
  Multiplicity = 1
  Basis Set: 6-31G*
  Basis Set:

    Orbital Energies (a.u.)
    -----------------------

    Doubly Occupied:

       1A    -20.508660     2A    -15.621126     3A    -11.343597
       4A    -11.296511     5A    -11.264030     6A    -11.260468
       7A    -11.233874     8A    -11.229276     9A     -1.384258
      10A     -1.281033    11A     -1.114816    12A     -1.025747
      13A     -0.969908    14A     -0.872076    15A     -0.835285
      16A     -0.715369    17A     -0.698632    18A     -0.660623
      19A     -0.647830    20A     -0.621586    21A     -0.606744
      22A     -0.571908    23A     -0.553684    24A     -0.546927
      25A     -0.525959    26A     -0.476014    27A     -0.413487
      28A     -0.406107    29A     -0.305334

  @DF-RHF Final Energy:  -360.59581614715773

   => Energetics <=

    Nuclear Repulsion Energy =            357.5635810812426598
    One-Electron Energy =               -1198.3370627109557063
    Two-Electron Energy =                 480.1776654825551418
    DFT Exchange-Correlation Energy =       0.0000000000000000
    Empirical Dispersion Energy =           0.0000000000000000
    PCM Polarization Energy =               0.0000000000000000
    EFP Energy =                            0.0000000000000000
    Total Energy =                       -360.5958161471579047
    Molecular point group: c1
  Basis Set: 6-31G*
  Basis Set:

  -Total Gradient:
     Atom            X                  Y                   Z
    ------   -----------------  -----------------  -----------------
       1        0.000001126914     0.000001615215     0.000003030754
       2       -0.000013802336     0.000017380986     0.000007691619
       3        0.000004471111    -0.000008118812    -0.000015157019
       4        0.000014289616    -0.000031074110    -0.000008566765
       5       -0.000000690677     0.000002565351     0.000005444831
       6        0.000007619223    -0.000004695492     0.000003677885
       7       -0.000000132367     0.000002466798     0.000002551862
       8       -0.000014595934     0.000023454188     0.000002355174
       9       -0.000004115756     0.000003969824    -0.000000453835
      10       -0.000006107882    -0.000008512296     0.000003194568
      11        0.000012855349     0.000008862692    -0.000011795473
      12        0.000001115357     0.000002770732    -0.000005133238
      13       -0.000007621466    -0.000011325744     0.000008331706
      14        0.000000111060     0.000006449927     0.000006173192
      15        0.000005477788    -0.000005809256    -0.000001345262

  **** Optimization is complete! (in 5 steps) ****
    Final optimized geometry and variables:
    Molecular point group: c1

    Geometry (in Angstrom), charge = 0, multiplicity = 1:

    H           -1.149628815460     1.771808585144    -2.196768882590
    C           -0.863439744982     1.156227943309    -1.367031893474
    C           -1.782913325051     0.839491299707    -0.312469281110
    C            0.375140024123     0.654245137954    -1.282119340126
    H           -2.785234067238     1.227781284323    -0.352185103067
    C           -1.402195292153     0.067509256787     0.715319380214
    H            1.122187944692     0.843915487846    -2.029270277928
    N            0.785004070893    -0.134650591602    -0.244001802878
    H           -2.061577162589    -0.190114439868     1.521163440488
    C           -0.054028933193    -0.478378571724     0.807567406905
    C            2.156005614017    -0.631245142251    -0.244479847553
    O            0.327090516160    -1.175611185486     1.714656314387
    H            2.334007580965    -1.235332113758    -1.126161004679
    H            2.853731984266     0.197670478206    -0.233558189430
    H            2.298994687986    -1.231437756211     0.635922205051

  Mulliken Charges: (a.u.)
   Center  Symbol    Alpha    Beta     Spin     Total
       1     H     0.39282  0.39282  0.00000  0.21437
       2     C     3.16144  3.16144  0.00000 -0.32288
       3     C     3.05827  3.05827  0.00000 -0.11653
       4     C     2.92077  2.92077  0.00000  0.15846
       5     H     0.39083  0.39083  0.00000  0.21833
       6     C     3.16972  3.16972  0.00000 -0.33944
       7     H     0.38787  0.38787  0.00000  0.22425
       8     N     3.86569  3.86569  0.00000 -0.73138
       9     H     0.38632  0.38632  0.00000  0.22736
      10     C     2.59377  2.59377  0.00000  0.81246
      11     C     3.15655  3.15655  0.00000 -0.31310
      12     O     4.32205  4.32205  0.00000 -0.64409
      13     H     0.41046  0.41046  0.00000  0.17909
      14     H     0.41038  0.41038  0.00000  0.17924
      15     H     0.37306  0.37306  0.00000  0.25389

   Total alpha = 29.00000, Total beta = 29.00000, Total charge =  0.00000
