  ==> Input File <==

--------------------------------------------------------------------------
set {
	reference rhf
	basis 6-31G*
}

set_num_threads( 4 )
memory 2 gb

molecule MOL {
0 1

H	 -1.748661	 -2.220942	 -0.005015
C	 -1.343207	 -1.225221	 -0.013879
N	 -0.055091	 -1.100174	 -0.261126
C	 -2.150779	 -0.125890	 0.222726
C	 0.449969	 0.122615	 -0.277109
H	 -3.200618	 -0.238980	 0.422496
N	 -1.660212	 1.097703	 0.209594
C	 -0.371804	 1.219904	 -0.038265
C	 1.928147	 0.267347	 -0.541394
H	 0.029131	 2.217482	 -0.051283
C	 2.229115	 0.629704	 -1.999519
H	 2.316261	 1.042725	 0.110541
H	 2.435019	 -0.655892	 -0.278937
H	 3.297094	 0.752852	 -2.148698
H	 1.738524	 1.557371	 -2.270135
H	 1.882693	 -0.146269	 -2.674921

	symmetry c1
}
set optking {
	frozen_dihedral = ("
		12 9 5 3
	")
}

ee = optimize('scf')
oeprop('DIPOLE', 'QUADRUPOLE', 'MULLIKEN_CHARGES')
f=open( 'psi4out.xyz', 'w' )
f.write( "16  " )
f.write( str(ee) + "\n" )
f.write( MOL.save_string_xyz() )
f.close()
--------------------------------------------------------------------------

    Molecular point group: c1
  Charge       = 0
  Multiplicity = 1
  Basis Set: 6-31G*
  Basis Set:
  @DF-RHF Final Energy:  -340.75760060533236
    Total Energy =                       -340.7576006053323567
    Molecular point group: c1
  Basis Set: 6-31G*
  Basis Set:
  Basis Set: 6-31G*
  Basis Set:
  @DF-RHF Final Energy:  -340.75783718732146
    Total Energy =                       -340.7578371873216838
  Basis Set: 6-31G*
  Basis Set:
  Basis Set: 6-31G*
  Basis Set:
  @DF-RHF Final Energy:  -340.75789115105925
    Total Energy =                       -340.7578911510594821
  Basis Set: 6-31G*
  Basis Set:
  Basis Set: 6-31G*
  Basis Set:
  @DF-RHF Final Energy:  -340.75791075938628
    Total Energy =                       -340.7579107593863341
  Basis Set: 6-31G*
  Basis Set:
  Basis Set: 6-31G*
  Basis Set:
  @DF-RHF Final Energy:  -340.75791315115856
    Total Energy =                       -340.7579131511586183
  Basis Set: 6-31G*
  Basis Set:
  Charge       = 0
  Multiplicity = 1
  Basis Set: 6-31G*
  Basis Set:

    Orbital Energies (a.u.)
    -----------------------

    Doubly Occupied:

       1A    -15.586889     2A    -15.582337     3A    -11.281385
       4A    -11.275403     5A    -11.272752     6A    -11.271591
       7A    -11.232529     8A    -11.221522     9A     -1.313240
      10A     -1.221837    11A     -1.085139    12A     -1.014627
      13A     -0.903603    14A     -0.894989    15A     -0.829420
      16A     -0.715147    17A     -0.710623    18A     -0.658372
      19A     -0.610249    20A     -0.605227    21A     -0.583058
      22A     -0.561967    23A     -0.522605    24A     -0.508402
      25A     -0.502670    26A     -0.483537    27A     -0.429361
      28A     -0.395050    29A     -0.344921

  @DF-RHF Final Energy:  -340.75791980199961

   => Energetics <=

    Nuclear Repulsion Energy =            349.6550555185029907
    One-Electron Energy =               -1153.5890450391646027
    Two-Electron Energy =                 463.1760697186620064
    DFT Exchange-Correlation Energy =       0.0000000000000000
    Empirical Dispersion Energy =           0.0000000000000000
    PCM Polarization Energy =               0.0000000000000000
    EFP Energy =                            0.0000000000000000
    Total Energy =                       -340.7579198019996056
    Molecular point group: c1
  Basis Set: 6-31G*
  Basis Set:

  -Total Gradient:
     Atom            X                  Y                   Z
    ------   -----------------  -----------------  -----------------
       1       -0.000029972270     0.000001616649     0.000014044189
       2        0.000248709620    -0.000122397173    -0.000066236284
       3       -0.000043637252    -0.000214563759     0.000812089346
       4       -0.000010890766     0.000286446631     0.000076305576
       5       -0.000232148876     0.000363408284    -0.000886578338
       6       -0.000008383223    -0.000035335926    -0.000032321223
       7       -0.000256410199    -0.000189451697     0.000046177570
       8        0.000289851295    -0.000087494998    -0.000119308223
       9       -0.000173726795     0.000757872823    -0.000531676118
      10       -0.000000903661    -0.000012168058     0.000003586575
      11       -0.000004485605    -0.000041829663     0.000030700555
      12        0.000143385549    -0.000695710545     0.000666688598
      13        0.000076342173    -0.000019820269    -0.000012668741
      14        0.000008947312     0.000013234380    -0.000002221545
      15       -0.000000683155    -0.000004420320     0.000011133909
      16       -0.000005994148     0.000000613641    -0.000009715846

  **** Optimization is complete! (in 6 steps) ****
    Final optimized geometry and variables:
    Molecular point group: c1

    Geometry (in Angstrom), charge = 0, multiplicity = 1:

    H           -1.665723625746    -2.343963009693     0.352903227995
    C           -1.263819118000    -1.346872528648     0.344327015437
    N            0.031179923726    -1.220365033406     0.117562740407
    C           -2.075281719451    -0.251161855969     0.566483786360
    C            0.532692136090     0.001025494338     0.107186926060
    H           -3.127788488552    -0.364956863145     0.750835978388
    N           -1.585215755014     0.975778152491     0.563930503796
    C           -0.295951461742     1.098908227597     0.337571603862
    C            2.006462840703     0.163989994598    -0.173267898649
    H            0.107088083991     2.096338154736     0.340718708665
    C            2.293599253094     0.507645387051    -1.639524252866
    H            2.417053200037     0.933747938770     0.473845087343
    H            2.496703515618    -0.766542455998     0.085174008641
    H            3.361721884699     0.600048714228    -1.807301629263
    H            1.827916090328     1.445739225001    -1.925090245871
    H            1.914515806157    -0.268284078844    -2.295917190779

  Mulliken Charges: (a.u.)
   Center  Symbol    Alpha    Beta     Spin     Total
       1     H     0.39381  0.39381  0.00000  0.21238
       2     C     2.99111  2.99111  0.00000  0.01778
       3     N     3.75397  3.75397  0.00000 -0.50794
       4     C     2.99813  2.99813  0.00000  0.00373
       5     C     2.87631  2.87631  0.00000  0.24738
       6     H     0.39424  0.39424  0.00000  0.21151
       7     N     3.72963  3.72963  0.00000 -0.45925
       8     C     2.99414  2.99414  0.00000  0.01171
       9     C     3.17278  3.17278  0.00000 -0.34556
      10     H     0.39527  0.39527  0.00000  0.20946
      11     C     3.24228  3.24228  0.00000 -0.48457
      12     H     0.41333  0.41333  0.00000  0.17333
      13     H     0.40015  0.40015  0.00000  0.19971
      14     H     0.41546  0.41546  0.00000  0.16909
      15     H     0.41858  0.41858  0.00000  0.16285
      16     H     0.41080  0.41080  0.00000  0.17840

   Total alpha = 29.00000, Total beta = 29.00000, Total charge = -0.00000
