  ==> Input File <==

--------------------------------------------------------------------------
set {
	reference rhf
	basis cc-pvtz
}

set_num_threads( 4 )
memory 2 gb

molecule MOL {
0 1

H	 2.190573	 -0.629143	 -0.208718
O	 1.355408	 -0.529451	 0.208662
C	 0.700177	 0.619554	 -0.266242
C	 -0.713111	 0.588314	 0.266177
H	 0.678680	 0.627133	 -1.351786
H	 1.199747	 1.521489	 0.077736
O	 -1.421673	 -0.521378	 -0.196983
H	 -1.244794	 1.469161	 -0.069059
H	 -0.685100	 0.604721	 1.352683
H	 -2.232239	 -0.578518	 0.278141

	symmetry c1
}
set optking {
	frozen_dihedral = ("
		10 7 4 3
	")
}

ee = optimize('scf')
oeprop('DIPOLE', 'QUADRUPOLE', 'MULLIKEN_CHARGES')
f=open( 'psi4out.xyz', 'w' )
f.write( "10  " )
f.write( str(ee) + "\n" )
f.write( MOL.save_string_xyz() )
f.close()
--------------------------------------------------------------------------

    Molecular point group: c1
  Charge       = 0
  Multiplicity = 1
  Basis Set: CC-PVTZ
  Basis Set:
  @DF-RHF Final Energy:  -229.02226461582771
    Total Energy =                       -229.0222646158276234
    Molecular point group: c1
  Basis Set: CC-PVTZ
  Basis Set:
  Basis Set: CC-PVTZ
  Basis Set:
  @DF-RHF Final Energy:  -229.02392078348171
    Total Energy =                       -229.0239207834817421
  Basis Set: CC-PVTZ
  Basis Set:
  Basis Set: CC-PVTZ
  Basis Set:
  @DF-RHF Final Energy:  -229.02418342758466
    Total Energy =                       -229.0241834275846600
  Basis Set: CC-PVTZ
  Basis Set:
  Basis Set: CC-PVTZ
  Basis Set:
  @DF-RHF Final Energy:  -229.02420165705632
    Total Energy =                       -229.0242016570564374
  Basis Set: CC-PVTZ
  Basis Set:
  Basis Set: CC-PVTZ
  Basis Set:
  @DF-RHF Final Energy:  -229.02420608700984
    Total Energy =                       -229.0242060870099294
  Basis Set: CC-PVTZ
  Basis Set:
  Basis Set: CC-PVTZ
  Basis Set:
  @DF-RHF Final Energy:  -229.02420758171155
    Total Energy =                       -229.0242075817116074
  Basis Set: CC-PVTZ
  Basis Set:
  Charge       = 0
  Multiplicity = 1
  Basis Set: CC-PVTZ
  Basis Set:

    Orbital Energies (a.u.)
    -----------------------

    Doubly Occupied:

       1A    -20.546040     2A    -20.545856     3A    -11.268436
       4A    -11.267756     5A     -1.375147     6A     -1.355278
       7A     -1.003900     8A     -0.831596     9A     -0.714899
      10A     -0.714168    11A     -0.609974    12A     -0.607565
      13A     -0.592435    14A     -0.529480    15A     -0.473742
      16A     -0.445698    17A     -0.443268

  @DF-RHF Final Energy:  -229.02420785377262

   => Energetics <=

    Nuclear Repulsion Energy =            133.5116164036875261
    One-Electron Energy =                -578.4211694496736982
    Two-Electron Energy =                 215.8853451922136060
    DFT Exchange-Correlation Energy =       0.0000000000000000
    Empirical Dispersion Energy =           0.0000000000000000
    PCM Polarization Energy =               0.0000000000000000
    EFP Energy =                            0.0000000000000000
    Total Energy =                       -229.0242078537725661
    Molecular point group: c1
  Basis Set: CC-PVTZ
  Basis Set:

  -Total Gradient:
     Atom            X                  Y                   Z
    ------   -----------------  -----------------  -----------------
       1       -0.000004297347     0.000009440642    -0.000000778580
       2       -0.000009805793    -0.000020693588     0.000019343379
       3       -0.000018173578     0.000076536152    -0.000117063422
       4        0.000043285632    -0.000019444486     0.000131245549
       5       -0.000002099021     0.000001182214     0.000000822173
       6       -0.000012983484    -0.000008399754    -0.000002450061
       7        0.000080780299    -0.000135694444     0.000080494313
       8        0.000000465849    -0.000014822391    -0.000001669612
       9       -0.000003655446    -0.000003206160    -0.000002843500
      10       -0.000073517111     0.000115101813    -0.000107100238

  **** Optimization is complete! (in 7 steps) ****
    Final optimized geometry and variables:
    Molecular point group: c1

    Geometry (in Angstrom), charge = 0, multiplicity = 1:

    H            2.215808780494    -0.641715227309    -0.204689897450
    O            1.423952129698    -0.497896131029     0.278771536859
    C            0.698122184956     0.557485378462    -0.284529533693
    C           -0.700554295640     0.557506535471     0.279088418253
    H            0.638875276850     0.461697241962    -1.364452788594
    H            1.165912819811     1.511623795052    -0.051850519803
    O           -1.420164841942    -0.508655870414    -0.271660472908
    H           -1.172488641744     1.506589788572     0.034207481958
    H           -0.641876784979     0.475215805572     1.360291347103
    H           -2.237379730240    -0.614718407053     0.178423060912

  Mulliken Charges: (a.u.)
   Center  Symbol    Alpha    Beta     Spin     Total
       1     H     0.39430  0.39430  0.00000  0.21141
       2     O     4.19590  4.19590  0.00000 -0.39181
       3     C     2.96163  2.96163  0.00000  0.07675
       4     C     2.96111  2.96111  0.00000  0.07778
       5     H     0.47060  0.47060  0.00000  0.05879
       6     H     0.47767  0.47767  0.00000  0.04466
       7     O     4.19540  4.19540  0.00000 -0.39079
       8     H     0.47793  0.47793  0.00000  0.04415
       9     H     0.47070  0.47070  0.00000  0.05860
      10     H     0.39477  0.39477  0.00000  0.21047

   Total alpha = 17.00000, Total beta = 17.00000, Total charge =  0.00000
