  ==> Input File <==

--------------------------------------------------------------------------
set {
	reference rhf
	basis 6-31G*
}

set_num_threads( 4 )
memory 2 gb

molecule MOL {
0 1

O	 0.939055	 1.744841	 0.484413
C	 0.305568	 1.418975	 1.436016
C	 -0.970396	 0.613365	 1.407683
O	 0.649350	 1.731117	 2.679139
C	 -1.412532	 0.227344	 -0.000452
H	 -0.812721	 -0.266296	 2.025817
H	 -1.734299	 1.197142	 1.914054
C	 -2.706999	 -0.587347	 -0.000541
H	 -0.621269	 -0.338839	 -0.481955
H	 -1.543708	 1.126749	 -0.594058
C	 -3.956778	 0.291888	 0.000910
H	 -2.726114	 -1.239230	 -0.871609
H	 -2.725217	 -1.240844	 0.869333
H	 -3.985213	 0.933254	 -0.875158
H	 -4.860123	 -0.309979	 0.000519
H	 -3.984618	 0.931166	 0.878514
C	 1.833328	 2.489440	 2.847314
H	 2.686532	 1.953469	 2.457102
H	 1.939715	 2.638611	 3.910507
H	 1.750168	 3.440936	 2.342094

	symmetry c1
}
set optking {
	frozen_dihedral = ("
		9 5 8 12
	")
}

ee = optimize('scf')
oeprop('DIPOLE', 'QUADRUPOLE', 'MULLIKEN_CHARGES')
f=open( 'psi4out.xyz', 'w' )
f.write( "20  " )
f.write( str(ee) + "\n" )
f.write( MOL.save_string_xyz() )
f.close()
--------------------------------------------------------------------------

    Molecular point group: c1
  Charge       = 0
  Multiplicity = 1
  Basis Set: 6-31G*
  Basis Set:
  @DF-RHF Final Energy:  -383.93856693388096
    Total Energy =                       -383.9385669338807929
    Molecular point group: c1
  Basis Set: 6-31G*
  Basis Set:
  Basis Set: 6-31G*
  Basis Set:
  @DF-RHF Final Energy:  -383.93877891309057
    Total Energy =                       -383.9387789130910278
  Basis Set: 6-31G*
  Basis Set:
  Basis Set: 6-31G*
  Basis Set:
  @DF-RHF Final Energy:  -383.93848120939822
    Total Energy =                       -383.9384812093983328
  Basis Set: 6-31G*
  Basis Set:
  Basis Set: 6-31G*
  Basis Set:
  @DF-RHF Final Energy:  -383.93883488997989
    Total Energy =                       -383.9388348899798302
  Basis Set: 6-31G*
  Basis Set:
  Basis Set: 6-31G*
  Basis Set:
  @DF-RHF Final Energy:  -383.93884153034861
    Total Energy =                       -383.9388415303484408
  Basis Set: 6-31G*
  Basis Set:
  Charge       = 0
  Multiplicity = 1
  Basis Set: 6-31G*
  Basis Set:

    Orbital Energies (a.u.)
    -----------------------

    Doubly Occupied:

       1A    -20.603779     2A    -20.545631     3A    -11.372442
       4A    -11.280955     5A    -11.235862     6A    -11.220253
       7A    -11.219198     8A    -11.212555     9A     -1.469482
      10A     -1.362944    11A     -1.088177    12A     -1.023022
      13A     -0.968316    14A     -0.891804    15A     -0.801875
      16A     -0.766184    17A     -0.701165    18A     -0.682737
      19A     -0.672480    20A     -0.631741    21A     -0.611335
      22A     -0.595217    23A     -0.571602    24A     -0.547017
      25A     -0.529321    26A     -0.523389    27A     -0.512408
      28A     -0.473608    29A     -0.473021    30A     -0.466471
      31A     -0.455684    32A     -0.437343

  @DF-RHF Final Energy:  -383.93884165251472

   => Energetics <=

    Nuclear Repulsion Energy =            383.9586456741732263
    One-Electron Energy =               -1283.9009396238539011
    Two-Electron Energy =                 516.0034522971661772
    DFT Exchange-Correlation Energy =       0.0000000000000000
    Empirical Dispersion Energy =           0.0000000000000000
    PCM Polarization Energy =               0.0000000000000000
    EFP Energy =                            0.0000000000000000
    Total Energy =                       -383.9388416525144976
    Molecular point group: c1
  Basis Set: 6-31G*
  Basis Set:

  -Total Gradient:
     Atom            X                  Y                   Z
    ------   -----------------  -----------------  -----------------
       1        0.000005613434     0.000004993646    -0.000000137430
       2       -0.000013596461     0.000001690642     0.000001408827
       3       -0.000005413769    -0.000001872134    -0.000001130477
       4        0.000005913455     0.000002315612    -0.000006644799
       5        0.001216133358    -0.002146829202     0.003787865209
       6       -0.000003180628    -0.000001745243    -0.000008143291
       7        0.000005024292    -0.000003638585    -0.000003210976
       8       -0.001830959760     0.003126881879    -0.002649779650
       9       -0.000720660031     0.001289123940    -0.002734572206
      10       -0.000005322638     0.000008016886    -0.000009355381
      11        0.000000492571    -0.000008253169    -0.000018044189
      12        0.001314796931    -0.002264457048     0.001627590409
      13        0.000015308616     0.000000164895     0.000007279176
      14        0.000017518344     0.000008473459     0.000013479669
      15       -0.000004425869    -0.000003237754    -0.000010234149
      16       -0.000001164140    -0.000012889243    -0.000000462286
      17        0.000004304089    -0.000000777899     0.000004059835
      18       -0.000000314945     0.000000907483     0.000000349430
      19        0.000000794171     0.000001181676     0.000000080961
      20       -0.000000861018    -0.000000049843    -0.000000398682

  **** Optimization is complete! (in 6 steps) ****
    Final optimized geometry and variables:
    Molecular point group: c1

    Geometry (in Angstrom), charge = 0, multiplicity = 1:

    O            1.577821802015     0.729721274680    -0.639930240060
    C            0.947360051111     0.402061495818     0.313060772892
    C           -0.323188052146    -0.412345540121     0.288629621201
    O            1.290956649418     0.718780846601     1.555160984282
    C           -0.759911434658    -0.809456298462    -1.118411225693
    H           -0.158045591547    -1.289004021326     0.908844509428
    H           -1.088044336700     0.168579207351     0.795763730101
    C           -2.079288201953    -1.596696671055    -1.141098158404
    H            0.025889277099    -1.384963331046    -1.595324930109
    H           -0.861489111812     0.086146321496    -1.724072794482
    C           -3.327802875610    -0.715038643223    -1.118961319928
    H           -2.097153114248    -2.235740675135    -2.019244081124
    H           -2.107323892664    -2.278647793420    -0.292872955786
    H           -3.361237253504    -0.066798291157    -1.989615122864
    H           -4.231114442123    -1.317041367303    -1.118529036001
    H           -3.357040452830    -0.082582499035    -0.236291847222
    C            2.470689600739     1.484358562646     1.720227069917
    H            3.326486328586     0.952665481590     1.329815748545
    H            2.577690952898     1.636144344098     2.782991572128
    H            2.381241328898     2.434403872033     1.213357554073

  Mulliken Charges: (a.u.)
   Center  Symbol    Alpha    Beta     Spin     Total
       1     O     4.28580  4.28580  0.00000 -0.57160
       2     C     2.60554  2.60554  0.00000  0.78893
       3     C     3.20825  3.20825  0.00000 -0.41651
       4     O     4.30725  4.30725  0.00000 -0.61450
       5     C     3.15494  3.15494  0.00000 -0.30989
       6     H     0.40043  0.40043  0.00000  0.19913
       7     H     0.40005  0.40005  0.00000  0.19991
       8     C     3.15771  3.15771  0.00000 -0.31542
       9     H     0.40976  0.40976  0.00000  0.18048
      10     H     0.41112  0.41112  0.00000  0.17775
      11     C     3.24011  3.24011  0.00000 -0.48022
      12     H     0.41669  0.41669  0.00000  0.16663
      13     H     0.42354  0.42354  0.00000  0.15292
      14     H     0.41909  0.41909  0.00000  0.16183
      15     H     0.41811  0.41811  0.00000  0.16379
      16     H     0.42266  0.42266  0.00000  0.15469
      17     C     3.09245  3.09245  0.00000 -0.18489
      18     H     0.40904  0.40904  0.00000  0.18192
      19     H     0.40843  0.40843  0.00000  0.18315
      20     H     0.40904  0.40904  0.00000  0.18192

   Total alpha = 32.00000, Total beta = 32.00000, Total charge =  0.00000
