                              Psi4 1.0.54 Driver

  ==> Input File <==

--------------------------------------------------------------------------
set {
	reference rhf
	basis cc-pvtz
}

set_num_threads( 4 )
memory 2 gb

molecule MOL {
0 1

H	 -2.698799	 -0.000846	 0.036018
C	 -1.694291	 -0.000483	 0.434279
O	 -0.828718	 -0.000608	 -0.655022
H	 -1.576855	 0.881100	 1.056504
H	 -1.576401	 -0.881658	 1.057001
C	 -0.574230	 1.212295	 -1.319838
C	 -1.819918	 1.789293	 -1.982866
C	 0.132842	 2.229843	 -0.431640
H	 0.114142	 0.924588	 -2.104687
H	 -2.317531	 1.030902	 -2.574713
H	 -1.542000	 2.605456	 -2.639665
H	 -2.526306	 2.178982	 -1.259166
H	 0.989500	 1.777007	 0.052219
H	 0.481663	 3.062094	 -1.032019
H	 -0.521696	 2.631128	 0.333272

	symmetry c1
}
set optking {
	frozen_dihedral = ("
		6 3 2 1
	")
}

ee,wfn = optimize('scf', return_wfn=True)
oeprop( wfn, 'DIPOLE', 'QUADRUPOLE', 'MULLIKEN_CHARGES')
f=open( 'psi4out.xyz', 'w' )
f.write( "15  " )
f.write( str(ee) + "\n" )
f.write( MOL.save_string_xyz() )
f.close()
--------------------------------------------------------------------------

    Molecular point group: c1
  Charge       = 0
  Multiplicity = 1
  Basis Set: CC-PVTZ
  Basis Set:
  @DF-RHF Final Energy:  -232.22358480899726
    Total Energy =                       -232.2235848089972592
    Molecular point group: c1
  Basis Set: CC-PVTZ
  Basis Set:
  Basis Set: CC-PVTZ
  Basis Set:
  @DF-RHF Final Energy:  -232.22364964520156
    Total Energy =                       -232.2236496452017036
  Basis Set: CC-PVTZ
  Basis Set:
  Basis Set: CC-PVTZ
  Basis Set:
  @DF-RHF Final Energy:  -232.22577706142479
    Total Energy =                       -232.2257770614248784
  Basis Set: CC-PVTZ
  Basis Set:
  Basis Set: CC-PVTZ
  Basis Set:
  @DF-RHF Final Energy:  -232.22579659401177
    Total Energy =                       -232.2257965940117401
  Basis Set: CC-PVTZ
  Basis Set:
  Basis Set: CC-PVTZ
  Basis Set:
  @DF-RHF Final Energy:  -232.22580508679192
    Total Energy =                       -232.2258050867918655
  Basis Set: CC-PVTZ
  Basis Set:
  Basis Set: CC-PVTZ
  Basis Set:
  @DF-RHF Final Energy:  -232.22580907322180
    Total Energy =                       -232.2258090732217966
  Basis Set: CC-PVTZ
  Basis Set:
  Charge       = 0
  Multiplicity = 1
  Basis Set: CC-PVTZ
  Basis Set:

    Orbital Energies (a.u.)
    -----------------------

    Doubly Occupied:

       1A    -20.541409     2A    -11.272696     3A    -11.258752
       4A    -11.209410     5A    -11.207946     6A     -1.373199
       7A     -1.051412     8A     -0.940675     9A     -0.931236
      10A     -0.781527    11A     -0.676290    12A     -0.642233
      13A     -0.634586    14A     -0.572932    15A     -0.564528
      16A     -0.552885    17A     -0.534988    18A     -0.499635
      19A     -0.497446    20A     -0.444722    21A     -0.408593

  @DF-RHF Final Energy:  -232.22580948719093

   => Energetics <=

    Nuclear Repulsion Energy =            199.0624843707294076
    One-Electron Energy =                -709.3823840176186195
    Two-Electron Energy =                 278.0940901596983394
    DFT Exchange-Correlation Energy =       0.0000000000000000
    Empirical Dispersion Energy =           0.0000000000000000
    PCM Polarization Energy =               0.0000000000000000
    EFP Energy =                            0.0000000000000000
    Total Energy =                       -232.2258094871908725
    Molecular point group: c1
  Basis Set: CC-PVTZ
  Basis Set:

  -Total Gradient:
     Atom            X                  Y                   Z
    ------   -----------------  -----------------  -----------------
       1        0.000238974867    -0.001297550704     0.000073813956
       2       -0.000013460592     0.001877533555     0.000246019173
       3       -0.000967116579    -0.000931233912    -0.001054342590
       4        0.000005462270    -0.000013418328    -0.000009886614
       5        0.000016733565     0.000015190564    -0.000017039299
       6        0.000728285521     0.000317481604     0.000767468040
       7        0.000014174703     0.000019586315     0.000000078790
       8       -0.000027027289    -0.000001827764    -0.000016415451
       9       -0.000005194746     0.000017950391     0.000011316560
      10        0.000024635412    -0.000004517811     0.000010859284
      11       -0.000014047729     0.000014410359    -0.000007051873
      12       -0.000004246924    -0.000002111891     0.000021717609
      13        0.000004970672    -0.000003253282    -0.000004136761
      14       -0.000001470730    -0.000012546840    -0.000009601465
      15       -0.000000672422     0.000004307745    -0.000012799361

  **** Optimization is complete! (in 7 steps) ****
    Final optimized geometry and variables:
    Molecular point group: c1

    Geometry (in Angstrom), charge = 0, multiplicity = 1:

    H           -1.629526831531    -1.345358341897     0.767844154815
    C           -0.640758684860    -1.135168098660     1.164627770432
    O            0.305317983657    -0.998522006881     0.152381943118
    H           -0.700133113632    -0.263359836311     1.806834823246
    H           -0.338260497799    -1.978182839636     1.770224597165
    C            0.382389376007     0.222352417859    -0.541333741749
    C           -0.939983851081     0.614722519384    -1.189605492685
    C            0.962828783807     1.338921884649     0.319555621314
    H            1.091701057580     0.016221577575    -1.333222208678
    H           -1.329218635793    -0.204655031093    -1.781661563562
    H           -0.792875849082     1.466404001276    -1.843462090002
    H           -1.686752804080     0.890747954351    -0.453703485163
    H            1.885420937326     1.012219405937     0.782857125107
    H            1.177945245439     2.205160002487    -0.295776836309
    H            0.280430924506     1.655102669487     1.099733010841

  Mulliken Charges: (a.u.)
   Center  Symbol    Alpha    Beta     Spin     Total
       1     H     0.46612  0.46612  0.00000  0.06776
       2     C     3.04027  3.04027  0.00000 -0.08053
       3     O     4.18401  4.18401  0.00000 -0.36803
       4     H     0.47048  0.47048  0.00000  0.05904
       5     H     0.44275  0.44275  0.00000  0.11451
       6     C     2.93585  2.93585  0.00000  0.12830
       7     C     3.16042  3.16042  0.00000 -0.32084
       8     C     3.15381  3.15381  0.00000 -0.30762
       9     H     0.44689  0.44689  0.00000  0.10622
      10     H     0.44402  0.44402  0.00000  0.11196
      11     H     0.44827  0.44827  0.00000  0.10347
      12     H     0.45496  0.45496  0.00000  0.09008
      13     H     0.44463  0.44463  0.00000  0.11075
      14     H     0.45129  0.45129  0.00000  0.09742
      15     H     0.45624  0.45624  0.00000  0.08752

   Total alpha = 21.00000, Total beta = 21.00000, Total charge = -0.00000

*** Psi4 exiting successfully. Buy a developer a beer!
