  ==> Input File <==

--------------------------------------------------------------------------
set {
	reference rhf
	basis 6-31G*
}

set_num_threads( 4 )
memory 2 gb

molecule MOL {
0 1

H	 2.377793	 -1.122257	 0.575425
N	 2.434251	 -0.367735	 -0.081097
C	 1.267428	 0.496480	 0.024474
H	 2.483919	 -0.780777	 -0.993152
C	 -0.016086	 -0.325158	 -0.029487
H	 1.288818	 1.183521	 -0.816092
H	 1.267576	 1.109062	 0.929528
C	 -1.282277	 0.529072	 0.046735
H	 -0.012495	 -0.908639	 -0.945788
H	 -0.015903	 -1.041248	 0.791956
C	 -2.563920	 -0.301775	 -0.006060
H	 -1.284084	 1.244622	 -0.773004
H	 -1.271387	 1.115393	 0.963286
H	 -2.621848	 -0.873522	 -0.927727
H	 -3.445135	 0.329952	 0.047812
H	 -2.609542	 -1.004582	 0.821105

	symmetry c1
}
set optking {
	frozen_dihedral = ("
		1 2 3 6
	")
}

ee = optimize('scf')
oeprop('DIPOLE', 'QUADRUPOLE', 'MULLIKEN_CHARGES')
f=open( 'psi4out.xyz', 'w' )
f.write( "16  " )
f.write( str(ee) + "\n" )
f.write( MOL.save_string_xyz() )
f.close()
--------------------------------------------------------------------------

    Molecular point group: c1
  Charge       = 0
  Multiplicity = 1
  Basis Set: 6-31G*
  Basis Set:
  @DF-RHF Final Energy:  -212.31461859223091
    Total Energy =                       -212.3146185922307154
    Molecular point group: c1
  Basis Set: 6-31G*
  Basis Set:
  Basis Set: 6-31G*
  Basis Set:
  @DF-RHF Final Energy:  -212.31640617085566
    Total Energy =                       -212.3164061708557995
  Basis Set: 6-31G*
  Basis Set:
  Basis Set: 6-31G*
  Basis Set:
  @DF-RHF Final Energy:  -212.31665954264659
    Total Energy =                       -212.3166595426465619
  Basis Set: 6-31G*
  Basis Set:
  Basis Set: 6-31G*
  Basis Set:
  @DF-RHF Final Energy:  -212.31666242003061
    Total Energy =                       -212.3166624200304113
  Basis Set: 6-31G*
  Basis Set:
  Charge       = 0
  Multiplicity = 1
  Basis Set: 6-31G*
  Basis Set:

    Orbital Energies (a.u.)
    -----------------------

    Doubly Occupied:

       1A    -15.533193     2A    -11.240074     3A    -11.218595
       4A    -11.214555     5A    -11.211263     6A     -1.177763
       7A     -1.062472     8A     -0.959869     9A     -0.848299
      10A     -0.797584    11A     -0.677859    12A     -0.626189
      13A     -0.597772    14A     -0.587109    15A     -0.554344
      16A     -0.526384    17A     -0.500706    18A     -0.490099
      19A     -0.472287    20A     -0.466963    21A     -0.376902

  @DF-RHF Final Energy:  -212.31666288667554

   => Energetics <=

    Nuclear Repulsion Energy =            186.0470328451806949
    One-Electron Energy =                -654.4468277460935042
    Two-Electron Energy =                 256.0831320142369805
    DFT Exchange-Correlation Energy =       0.0000000000000000
    Empirical Dispersion Energy =           0.0000000000000000
    PCM Polarization Energy =               0.0000000000000000
    EFP Energy =                            0.0000000000000000
    Total Energy =                       -212.3166628866758288
    Molecular point group: c1
  Basis Set: 6-31G*
  Basis Set:

  -Total Gradient:
     Atom            X                  Y                   Z
    ------   -----------------  -----------------  -----------------
       1       -0.000788170367    -0.001088490523    -0.001326097571
       2        0.000698647859     0.001160351979     0.001409412679
       3        0.000820675781     0.001101371798     0.000876296291
       4       -0.000025326691     0.000014685988     0.000000230591
       5        0.000139419135    -0.000011905455    -0.000021401030
       6       -0.000759881510    -0.001168176668    -0.000996313144
       7        0.000013991629     0.000001457463     0.000021563454
       8        0.000051555559    -0.000027403990     0.000013744605
       9       -0.000015653008    -0.000017779831     0.000032635730
      10       -0.000003332810     0.000008899492    -0.000004040700
      11       -0.000082333205     0.000040605729    -0.000021303697
      12        0.000002396588    -0.000000934901     0.000022785759
      13       -0.000017652130    -0.000011131640     0.000000566217
      14        0.000008171803     0.000001496001     0.000010620639
      15       -0.000053081177    -0.000023759166    -0.000011884331
      16        0.000010572543     0.000020713723    -0.000006815493

  **** Optimization is complete! (in 5 steps) ****
    Final optimized geometry and variables:
    Molecular point group: c1

    Geometry (in Angstrom), charge = 0, multiplicity = 1:

    H            2.465614791783    -1.077277805759     0.591926960949
    N            2.499628167069    -0.307951458736    -0.050518483176
    C            1.274253228254     0.474724345636     0.024193785339
    H            2.598033376929    -0.710464331536    -0.963266411965
    C           -0.025509475428    -0.333342864955    -0.020242475147
    H            1.284465596409     1.177039785390    -0.803898078762
    H            1.304549051061     1.064776832070     0.935419505150
    C           -1.280530342570     0.538063011765     0.056859132612
    H           -0.047734671554    -0.923176724471    -0.935957787304
    H           -0.030144155822    -1.046922730004     0.803387165100
    C           -2.576143294797    -0.271497458792     0.011876415568
    H           -1.273786536594     1.252273093731    -0.763890786945
    H           -1.254860151567     1.126025172747     0.971864760636
    H           -2.647731829494    -0.845593997129    -0.907564895135
    H           -3.446523225873     0.374979716218     0.066565679802
    H           -2.630417184820    -0.970229019666     0.841865418557

  Mulliken Charges: (a.u.)
   Center  Symbol    Alpha    Beta     Spin     Total
       1     H     0.33567  0.33567  0.00000  0.32865
       2     N     3.91694  3.91694  0.00000 -0.83387
       3     C     3.06093  3.06093  0.00000 -0.12187
       4     H     0.33545  0.33545  0.00000  0.32911
       5     C     3.15830  3.15830  0.00000 -0.31661
       6     H     0.42026  0.42026  0.00000  0.15948
       7     H     0.41858  0.41858  0.00000  0.16284
       8     C     3.15552  3.15552  0.00000 -0.31104
       9     H     0.42701  0.42701  0.00000  0.14597
      10     H     0.42711  0.42711  0.00000  0.14579
      11     C     3.23866  3.23866  0.00000 -0.47732
      12     H     0.42220  0.42220  0.00000  0.15560
      13     H     0.42160  0.42160  0.00000  0.15679
      14     H     0.42164  0.42164  0.00000  0.15672
      15     H     0.41863  0.41863  0.00000  0.16273
      16     H     0.42149  0.42149  0.00000  0.15701

   Total alpha = 21.00000, Total beta = 21.00000, Total charge = -0.00000
