  ==> Input File <==

--------------------------------------------------------------------------
set {
	reference rhf
	basis 6-31G*
}

set_num_threads( 4 )
memory 2 gb

molecule MOL {
0 1

H	 -2.499100	 -0.730091	 -0.745082
O	 -2.347518	 -0.290803	 0.079804
C	 -1.184022	 0.487508	 -0.006784
C	 0.062599	 -0.378592	 0.031606
H	 -1.176523	 1.099369	 -0.904519
H	 -1.187323	 1.153111	 0.844927
O	 0.449604	 -0.634037	 -1.281693
H	 -0.145749	 -1.311874	 0.558441
H	 0.848725	 0.136765	 0.580239
C	 1.608145	 -1.396876	 -1.404176
H	 1.489283	 -2.377188	 -0.946477
H	 1.805183	 -1.524569	 -2.459531
H	 2.460267	 -0.901741	 -0.943177

	symmetry c1
}
set optking {
	frozen_dihedral = ("
		8 4 3 5
	")
}

ee = optimize('scf')
oeprop('DIPOLE', 'QUADRUPOLE', 'MULLIKEN_CHARGES')
f=open( 'psi4out.xyz', 'w' )
f.write( "13  " )
f.write( str(ee) + "\n" )
f.write( MOL.save_string_xyz() )
f.close()
--------------------------------------------------------------------------

    Molecular point group: c1
  Charge       = 0
  Multiplicity = 1
  Basis Set: 6-31G*
  Basis Set:
  @DF-RHF Final Energy:  -267.94853148224286
    Total Energy =                       -267.9485314822429132
    Molecular point group: c1
  Basis Set: 6-31G*
  Basis Set:
  Basis Set: 6-31G*
  Basis Set:
  @DF-RHF Final Energy:  -267.94948353619037
    Total Energy =                       -267.9494835361903711
  Basis Set: 6-31G*
  Basis Set:
  Basis Set: 6-31G*
  Basis Set:
  @DF-RHF Final Energy:  -267.94974337747641
    Total Energy =                       -267.9497433774762385
  Basis Set: 6-31G*
  Basis Set:
  Basis Set: 6-31G*
  Basis Set:
  @DF-RHF Final Energy:  -267.94975638208876
    Total Energy =                       -267.9497563820887649
  Basis Set: 6-31G*
  Basis Set:
  Charge       = 0
  Multiplicity = 1
  Basis Set: 6-31G*
  Basis Set:

    Orbital Energies (a.u.)
    -----------------------

    Doubly Occupied:

       1A    -20.563582     2A    -20.551909     3A    -11.271597
       4A    -11.271347     5A    -11.268778     6A     -1.389080
       7A     -1.356641     8A     -1.018111     9A     -0.916560
      10A     -0.838829    11A     -0.703398    12A     -0.680597
      13A     -0.657634    14A     -0.631644    15A     -0.596671
      16A     -0.571137    17A     -0.538392    18A     -0.491145
      19A     -0.485968    20A     -0.436568    21A     -0.422620

  @DF-RHF Final Energy:  -267.94975739446033

   => Energetics <=

    Nuclear Repulsion Energy =            192.6036202141380329
    One-Electron Energy =                -747.7823335295674951
    Two-Electron Energy =                 287.2289559209696108
    DFT Exchange-Correlation Energy =       0.0000000000000000
    Empirical Dispersion Energy =           0.0000000000000000
    PCM Polarization Energy =               0.0000000000000000
    EFP Energy =                            0.0000000000000000
    Total Energy =                       -267.9497573944598798
    Molecular point group: c1
  Basis Set: 6-31G*
  Basis Set:

  -Total Gradient:
     Atom            X                  Y                   Z
    ------   -----------------  -----------------  -----------------
       1       -0.000015672490    -0.000029308931    -0.000024555317
       2       -0.000013917970     0.000018645710    -0.000023165225
       3        0.003311343067     0.005422139821     0.002924308542
       4        0.001488315084     0.002400988621     0.006543337468
       5       -0.003080702865    -0.004963078305    -0.003497693995
       6        0.000044227340    -0.000005558725    -0.000005159752
       7       -0.000039785854     0.000005366285    -0.000011826524
       8       -0.001685260754    -0.002843301407    -0.005938929088
       9       -0.000010517093    -0.000011384385     0.000008450335
      10        0.000025882581    -0.000013742480     0.000024020176
      11       -0.000002429150    -0.000006266192     0.000000937601
      12       -0.000024741975     0.000023847540     0.000008345239
      13        0.000003260079     0.000001652448    -0.000008069459

  **** Optimization is complete! (in 5 steps) ****
    Final optimized geometry and variables:
    Molecular point group: c1

    Geometry (in Angstrom), charge = 0, multiplicity = 1:

    H           -2.038613965975    -0.355493876979    -0.284313183530
    O           -2.031565467659     0.126413731112     0.531953853698
    C           -0.889840083392     0.945253197171     0.554869775192
    C            0.392373586514     0.128292985816     0.585199594963
    H           -0.877768069234     1.565970684120    -0.335334723424
    H           -0.977035071893     1.567066649002     1.434995134794
    O            0.751993508344    -0.145431201391    -0.743211470987
    H            0.197828917212    -0.814090375151     1.091533268561
    H            1.196741446948     0.657936951988     1.092388097365
    C            1.867069648748    -0.968775270987    -0.877140464613
    H            1.702230170104    -1.941432992445    -0.417486926839
    H            2.047459552828    -1.106270224129    -1.934436430996
    H            2.749262482875    -0.519355062655    -0.425182977954

  Mulliken Charges: (a.u.)
   Center  Symbol    Alpha    Beta     Spin     Total
       1     H     0.27879  0.27879  0.00000  0.44242
       2     O     4.37178  4.37178  0.00000 -0.74356
       3     C     3.00294  3.00294  0.00000 -0.00589
       4     C     3.00801  3.00801  0.00000 -0.01602
       5     H     0.41650  0.41650  0.00000  0.16700
       6     H     0.41435  0.41435  0.00000  0.17131
       7     O     4.31137  4.31137  0.00000 -0.62275
       8     H     0.41973  0.41973  0.00000  0.16054
       9     H     0.42813  0.42813  0.00000  0.14374
      10     C     3.08019  3.08019  0.00000 -0.16038
      11     H     0.42847  0.42847  0.00000  0.14305
      12     H     0.41119  0.41119  0.00000  0.17762
      13     H     0.42854  0.42854  0.00000  0.14291

   Total alpha = 21.00000, Total beta = 21.00000, Total charge =  0.00000
