                              Psi4 1.0.54 Driver

  ==> Input File <==

--------------------------------------------------------------------------
set {
	reference rhf
	basis cc-pvtz
}

set_num_threads( 4 )
memory 2 gb

molecule MOL {
0 1

H	 -1.700222	 2.141420	 -0.777497
C	 -1.165928	 2.299963	 0.149657
C	 0.151796	 1.540776	 0.156864
H	 -1.807836	 1.971078	 0.955884
H	 -0.988077	 3.362481	 0.265109
C	 0.000000	 0.039916	 0.000014
H	 0.696959	 1.721949	 1.079292
H	 0.803680	 1.890821	 -0.639005
C	 1.286532	 -0.763243	 0.000268
O	 -1.063398	 -0.475917	 -0.116094
C	 2.547023	 0.087626	 -0.000114
H	 1.264245	 -1.421103	 -0.864380
H	 1.264290	 -1.420353	 0.865489
H	 2.584452	 0.725630	 -0.872909
H	 3.427035	 -0.544422	 0.000125
H	 2.584484	 0.726356	 0.872143

	symmetry c1
}
set optking {
	frozen_dihedral = ("
		3 6 9 12
	")
}

ee,wfn = optimize('scf', return_wfn=True)
oeprop( wfn, 'DIPOLE', 'QUADRUPOLE', 'MULLIKEN_CHARGES')
f=open( 'psi4out.xyz', 'w' )
f.write( "16  " )
f.write( str(ee) + "\n" )
f.write( MOL.save_string_xyz() )
f.close()
--------------------------------------------------------------------------

    Molecular point group: c1
  Charge       = 0
  Multiplicity = 1
  Basis Set: CC-PVTZ
  Basis Set:
  @DF-RHF Final Energy:  -270.12421856103225
    Total Energy =                       -270.1242185610324213
    Molecular point group: c1
  Basis Set: CC-PVTZ
  Basis Set:
  Basis Set: CC-PVTZ
  Basis Set:
  @DF-RHF Final Energy:  -270.12515393868580
    Total Energy =                       -270.1251539386859122
  Basis Set: CC-PVTZ
  Basis Set:
  Basis Set: CC-PVTZ
  Basis Set:
  @DF-RHF Final Energy:  -270.12708967484178
    Total Energy =                       -270.1270896748418409
  Basis Set: CC-PVTZ
  Basis Set:
  Basis Set: CC-PVTZ
  Basis Set:
  @DF-RHF Final Energy:  -270.12715706412718
    Total Energy =                       -270.1271570641271751
  Basis Set: CC-PVTZ
  Basis Set:
  Basis Set: CC-PVTZ
  Basis Set:
  @DF-RHF Final Energy:  -270.12723168904586
    Total Energy =                       -270.1272316890457432
  Basis Set: CC-PVTZ
  Basis Set:
  Basis Set: CC-PVTZ
  Basis Set:
  @DF-RHF Final Energy:  -270.12725774756530
    Total Energy =                       -270.1272577475654089
  Basis Set: CC-PVTZ
  Basis Set:
  Basis Set: CC-PVTZ
  Basis Set:
  @DF-RHF Final Energy:  -270.12725968300737
    Total Energy =                       -270.1272596830071961
  Basis Set: CC-PVTZ
  Basis Set:
  Charge       = 0
  Multiplicity = 1
  Basis Set: CC-PVTZ
  Basis Set:

    Orbital Energies (a.u.)
    -----------------------

    Doubly Occupied:

       1A    -20.534694     2A    -11.318568     3A    -11.232373
       4A    -11.231787     5A    -11.225156     6A    -11.211124
       7A     -1.396679     8A     -1.072575     9A     -1.036204
      10A     -0.907604    11A     -0.868304    12A     -0.722659
      13A     -0.655472    14A     -0.650012    15A     -0.632058
      16A     -0.609739    17A     -0.553495    18A     -0.542169
      19A     -0.538729    20A     -0.511585    21A     -0.507364
      22A     -0.504031    23A     -0.472963    24A     -0.398000

  @DF-RHF Final Energy:  -270.12725975533482

   => Energetics <=

    Nuclear Repulsion Energy =            240.8074150517479097
    One-Electron Energy =                -843.2026611363296524
    Two-Electron Energy =                 332.2679863292469236
    DFT Exchange-Correlation Energy =       0.0000000000000000
    Empirical Dispersion Energy =           0.0000000000000000
    PCM Polarization Energy =               0.0000000000000000
    EFP Energy =                            0.0000000000000000
    Total Energy =                       -270.1272597553347623
    Molecular point group: c1
  Basis Set: CC-PVTZ
  Basis Set:

  -Total Gradient:
     Atom            X                  Y                   Z
    ------   -----------------  -----------------  -----------------
       1        0.000002084878    -0.000000933383     0.000001245039
       2        0.000005033377     0.000003055919    -0.000011432601
       3        0.000019424184     0.000043217908    -0.000398680845
       4        0.000000998564    -0.000001724840     0.000002575663
       5        0.000000993306     0.000002291642     0.000000828772
       6        0.000020494239     0.000025039596     0.000554142335
       7       -0.000000769327     0.000018365683     0.000001141347
       8        0.000002476711    -0.000003202760    -0.000004633185
       9       -0.000285386184    -0.000446039466     0.000153142154
      10       -0.000006445117    -0.000023736949     0.000001484254
      11       -0.000003525694     0.000006830033    -0.000001884840
      12        0.000242302735     0.000386203703    -0.000303525785
      13        0.000004378783    -0.000006777623     0.000007764037
      14       -0.000003561274     0.000005170223    -0.000005229371
      15        0.000000057260    -0.000006671954    -0.000001232635
      16        0.000001443556    -0.000001087735     0.000004295662

  **** Optimization is complete! (in 8 steps) ****
    Final optimized geometry and variables:
    Molecular point group: c1

    Geometry (in Angstrom), charge = 0, multiplicity = 1:

    H           -2.102990940356     1.606505072559    -0.784218825276
    C           -1.560360836594     1.805293611393     0.130090269273
    C           -0.199618229294     1.126650858693     0.115667079714
    H           -2.165020017553     1.445885496072     0.951781831579
    H           -1.443114107143     2.877505341790     0.233469140750
    C           -0.272605402869    -0.379320254226    -0.026356013538
    H            0.352022947185     1.349366160137     1.024717302256
    H            0.413613724623     1.509258268798    -0.694819130324
    C            1.014057387345    -1.197309598927    -0.043951944778
    O           -1.314278367026    -0.943620255362    -0.119379005626
    C            2.346856913384    -0.455648871907    -0.055242656364
    H            0.939591984390    -1.844351288422    -0.910010574726
    H            0.957951014903    -1.850454882884     0.820590794052
    H            2.453598980177     0.172752338045    -0.931290353545
    H            3.160591880733    -1.170143219227    -0.067991813449
    H            2.476110221319     0.167449035464     0.821122087157

  Mulliken Charges: (a.u.)
   Center  Symbol    Alpha    Beta     Spin     Total
       1     H     0.44752  0.44752  0.00000  0.10495
       2     C     3.14191  3.14191  0.00000 -0.28383
       3     C     3.10451  3.10451  0.00000 -0.20902
       4     H     0.44757  0.44757  0.00000  0.10486
       5     H     0.45095  0.45095  0.00000  0.09810
       6     C     2.87299  2.87299  0.00000  0.25402
       7     H     0.44364  0.44364  0.00000  0.11272
       8     H     0.44382  0.44382  0.00000  0.11236
       9     C     3.08843  3.08843  0.00000 -0.17687
      10     O     4.17839  4.17839  0.00000 -0.35677
      11     C     3.15909  3.15909  0.00000 -0.31818
      12     H     0.43807  0.43807  0.00000  0.12387
      13     H     0.43995  0.43995  0.00000  0.12010
      14     H     0.45074  0.45074  0.00000  0.09851
      15     H     0.44113  0.44113  0.00000  0.11775
      16     H     0.45128  0.45128  0.00000  0.09744

   Total alpha = 24.00000, Total beta = 24.00000, Total charge = -0.00000

*** Psi4 exiting successfully. Buy a developer a beer!
