                              Psi4 1.0.54 Driver

  ==> Input File <==

--------------------------------------------------------------------------
set {
	reference rhf
	basis cc-pvtz
}

set_num_threads( 4 )
memory 2 gb

molecule MOL {
0 1

H	 -0.067656	 1.929220	 0.529448
O	 0.057669	 1.301365	 -0.158528
C	 0.004145	 -0.005141	 0.363049
C	 1.199168	 -0.827145	 -0.096690
C	 -1.316386	 -0.602081	 -0.083515
H	 0.012026	 0.043363	 1.450619
H	 1.216685	 -0.896776	 -1.178167
H	 2.129940	 -0.372354	 0.228035
H	 1.160783	 -1.829622	 0.314294
H	 -1.357882	 -0.655920	 -1.165207
H	 -2.140147	 0.011735	 0.257253
H	 -1.440790	 -1.601175	 0.317669

	symmetry c1
}
set optking {
	frozen_dihedral = ("
		1 2 3 4
	")
}

ee,wfn = optimize('scf', return_wfn=True)
oeprop( wfn, 'DIPOLE', 'QUADRUPOLE', 'MULLIKEN_CHARGES')
f=open( 'psi4out.xyz', 'w' )
f.write( "12  " )
f.write( str(ee) + "\n" )
f.write( MOL.save_string_xyz() )
f.close()
--------------------------------------------------------------------------

    Molecular point group: c1
  Charge       = 0
  Multiplicity = 1
  Basis Set: CC-PVTZ
  Basis Set:
  @DF-RHF Final Energy:  -193.19344889620609
    Total Energy =                       -193.1934488962060357
    Molecular point group: c1
  Basis Set: CC-PVTZ
  Basis Set:
  Basis Set: CC-PVTZ
  Basis Set:
  @DF-RHF Final Energy:  -193.17716805203813
    Total Energy =                       -193.1771680520380414
  Basis Set: CC-PVTZ
  Basis Set:
  Basis Set: CC-PVTZ
  Basis Set:
  @DF-RHF Final Energy:  -193.19370654561303
    Total Energy =                       -193.1937065456129403
  Basis Set: CC-PVTZ
  Basis Set:
  Basis Set: CC-PVTZ
  Basis Set:
  @DF-RHF Final Energy:  -193.19429130061837
    Total Energy =                       -193.1942913006184597
  Basis Set: CC-PVTZ
  Basis Set:
  Basis Set: CC-PVTZ
  Basis Set:
  @DF-RHF Final Energy:  -193.19430212963448
    Total Energy =                       -193.1943021296347069
  Basis Set: CC-PVTZ
  Basis Set:
  Basis Set: CC-PVTZ
  Basis Set:
  @DF-RHF Final Energy:  -193.19430390207589
    Total Energy =                       -193.1943039020759443
  Basis Set: CC-PVTZ
  Basis Set:
  Charge       = 0
  Multiplicity = 1
  Basis Set: CC-PVTZ
  Basis Set:

    Orbital Energies (a.u.)
    -----------------------

    Doubly Occupied:

       1A    -20.542811     2A    -11.274712     3A    -11.205466
       4A    -11.204777     5A     -1.362659     6A     -1.042681
       7A     -0.936530     8A     -0.799936     9A     -0.714424
      10A     -0.610107    11A     -0.599804    12A     -0.558655
      13A     -0.538585    14A     -0.525481    15A     -0.506955
      16A     -0.464828    17A     -0.432582

  @DF-RHF Final Energy:  -193.19430397698952

   => Energetics <=

    Nuclear Repulsion Energy =            135.4841311592865907
    One-Electron Energy =                -530.7148848031974921
    Two-Electron Energy =                 202.0364496669212713
    DFT Exchange-Correlation Energy =       0.0000000000000000
    Empirical Dispersion Energy =           0.0000000000000000
    PCM Polarization Energy =               0.0000000000000000
    EFP Energy =                            0.0000000000000000
    Total Energy =                       -193.1943039769896586
    Molecular point group: c1
  Basis Set: CC-PVTZ
  Basis Set:

  -Total Gradient:
     Atom            X                  Y                   Z
    ------   -----------------  -----------------  -----------------
       1        0.000974271595     0.000249741194    -0.000048127539
       2       -0.001081738850    -0.000220186516     0.000198842690
       3       -0.000253869787    -0.000305636097    -0.000568204969
       4        0.000362304363     0.000281936722     0.000412437608
       5       -0.000002038628    -0.000001342717     0.000007014281
       6       -0.000003198276    -0.000004971672    -0.000002366123
       7        0.000001086470    -0.000001365880    -0.000006217017
       8        0.000000459758     0.000001649549     0.000004156433
       9       -0.000002529686    -0.000001890949    -0.000002739274
      10        0.000004647036     0.000006554310     0.000002395432
      11       -0.000000445117    -0.000001162635     0.000000369290
      12        0.000001051122    -0.000003325307     0.000002439187

  **** Optimization is complete! (in 7 steps) ****
    Final optimized geometry and variables:
    Molecular point group: c1

    Geometry (in Angstrom), charge = 0, multiplicity = 1:

    H           -0.394204365762     1.910140575330     0.454056180396
    O           -0.266174108086     1.267901004811    -0.217110119609
    C            0.081821574790     0.020533652667     0.346983042114
    C            1.317428053730    -0.498106935179    -0.367774606811
    C           -1.096792083698    -0.933785775085     0.240325732955
    H            0.324547994970     0.157726232905     1.397821369955
    H            1.116113055887    -0.610546459217    -1.426984403799
    H            2.139965298718     0.196616950479    -0.253113151001
    H            1.619826271013    -1.460996364190     0.028486245542
    H           -1.369563581915    -1.074877770572    -0.799094083128
    H           -1.958317174449    -0.534977222142     0.762725174715
    H           -0.855301415643    -1.900784472035     0.667842086771

  Mulliken Charges: (a.u.)
   Center  Symbol    Alpha    Beta     Spin     Total
       1     H     0.39070  0.39070  0.00000  0.21860
       2     O     4.21149  4.21149  0.00000 -0.42298
       3     C     2.92611  2.92611  0.00000  0.14778
       4     C     3.13715  3.13715  0.00000 -0.27430
       5     C     3.13694  3.13694  0.00000 -0.27388
       6     H     0.46788  0.46788  0.00000  0.06423
       7     H     0.45234  0.45234  0.00000  0.09532
       8     H     0.45135  0.45135  0.00000  0.09730
       9     H     0.45970  0.45970  0.00000  0.08060
      10     H     0.45254  0.45254  0.00000  0.09492
      11     H     0.45437  0.45437  0.00000  0.09127
      12     H     0.45944  0.45944  0.00000  0.08113

   Total alpha = 17.00000, Total beta = 17.00000, Total charge =  0.00000

*** Psi4 exiting successfully. Buy a developer a beer!
