  ==> Input File <==

--------------------------------------------------------------------------
set {
	reference rhf
	basis 6-31G*
}

set_num_threads( 4 )
memory 2 gb

molecule MOL {
0 1

O	 1.697336	 -0.457090	 0.424865
C	 0.861134	 0.272526	 -0.014869
C	 -0.623889	 -0.118271	 -0.003699
C	 1.266086	 1.612512	 -0.603476
C	 -0.895332	 -1.256461	 -1.002431
C	 -1.473649	 1.103340	 -0.370799
C	 -0.983900	 -0.581483	 1.422328
H	 -0.615301	 -0.972064	 -2.012700
H	 -1.954261	 -1.493213	 -1.010207
H	 -0.360539	 -2.164946	 -0.747760
H	 -1.227476	 1.468527	 -1.361691
H	 -2.526716	 0.838935	 -0.358521
H	 -1.314819	 1.915855	 0.325860
H	 -2.039679	 -0.828001	 1.472951
H	 -0.427637	 -1.464071	 1.720694
H	 -0.789023	 0.202493	 2.147048
H	 1.072430	 2.398726	 0.120280
H	 2.326508	 1.592435	 -0.813764
H	 0.717819	 1.857340	 -1.504966

	symmetry c1
}
set optking {
	frozen_dihedral = ("
		1 2 3 5
	")
}

ee = optimize('scf')
oeprop('DIPOLE', 'QUADRUPOLE', 'MULLIKEN_CHARGES')
f=open( 'psi4out.xyz', 'w' )
f.write( "19  " )
f.write( str(ee) + "\n" )
f.write( MOL.save_string_xyz() )
f.close()
--------------------------------------------------------------------------

    Molecular point group: c1
  Charge       = 0
  Multiplicity = 1
  Basis Set: 6-31G*
  Basis Set:
  @DF-RHF Final Energy:  -309.05822086291698
    Total Energy =                       -309.0582208629169827
    Molecular point group: c1
  Basis Set: 6-31G*
  Basis Set:
  Basis Set: 6-31G*
  Basis Set:
  @DF-RHF Final Energy:  -309.05950295243849
    Total Energy =                       -309.0595029524386064
  Basis Set: 6-31G*
  Basis Set:
  Basis Set: 6-31G*
  Basis Set:
  @DF-RHF Final Energy:  -309.06147191704378
    Total Energy =                       -309.0614719170434341
  Basis Set: 6-31G*
  Basis Set:
  Basis Set: 6-31G*
  Basis Set:
  @DF-RHF Final Energy:  -309.06180075420906
    Total Energy =                       -309.0618007542087753
  Basis Set: 6-31G*
  Basis Set:
  @DF-RHF Final Energy:  -309.06190642865590
    Total Energy =                       -309.0619064286559023
  @DF-RHF Final Energy:  -309.06193745325317
    Total Energy =                       -309.0619374532531083
  @DF-RHF Final Energy:  -309.06200353848982
    Total Energy =                       -309.0620035384898756
  Basis Set: 6-31G*
  Basis Set:
  @DF-RHF Final Energy:  -309.06202133145587
    Total Energy =                       -309.0620213314558669
  Basis Set: 6-31G*
  Basis Set:
  Basis Set: 6-31G*
  Basis Set:
  @DF-RHF Final Energy:  -309.06200251607413
    Total Energy =                       -309.0620025160744717
  Basis Set: 6-31G*
  Basis Set:
  Basis Set: 6-31G*
  Basis Set:
  @DF-RHF Final Energy:  -309.06202477217414
    Total Energy =                       -309.0620247721740839
  Basis Set: 6-31G*
  Basis Set:
  Charge       = 0
  Multiplicity = 1
  Basis Set: 6-31G*
  Basis Set:

    Orbital Energies (a.u.)
    -----------------------

    Doubly Occupied:

       1A    -20.547441     2A    -11.323546     3A    -11.246255
       4A    -11.227638     5A    -11.222309     6A    -11.219517
       7A    -11.213090     8A     -1.394565     9A     -1.107888
      10A     -1.003559    11A     -0.942750    12A     -0.937725
      13A     -0.833495    14A     -0.703899    15A     -0.664737
      16A     -0.631016    17A     -0.622325    18A     -0.587951
      19A     -0.585842    20A     -0.571980    21A     -0.551291
      22A     -0.546061    23A     -0.523412    24A     -0.513357
      25A     -0.499948    26A     -0.471811    27A     -0.460331
      28A     -0.391807

  @DF-RHF Final Energy:  -309.06202484322620

   => Energetics <=

    Nuclear Repulsion Energy =            326.1878740899134641
    One-Electron Energy =               -1065.4087049203842525
    Two-Electron Energy =                 430.1588059872443068
    DFT Exchange-Correlation Energy =       0.0000000000000000
    Empirical Dispersion Energy =           0.0000000000000000
    PCM Polarization Energy =               0.0000000000000000
    EFP Energy =                            0.0000000000000000
    Total Energy =                       -309.0620248432264248
    Molecular point group: c1
  Basis Set: 6-31G*
  Basis Set:

  -Total Gradient:
     Atom            X                  Y                   Z
    ------   -----------------  -----------------  -----------------
       1        0.000049986942    -0.000423966997    -0.000921095266
       2       -0.000036281835     0.000446531256     0.001421054794
       3       -0.000157275268     0.000469364302    -0.001001666773
       4       -0.000008209115     0.000004412444     0.000006987540
       5        0.000129210141    -0.000495492214     0.000507097780
       6        0.000003520603     0.000010096713    -0.000004615604
       7        0.000013359150     0.000002819163    -0.000012024205
       8        0.000001067451     0.000004028645     0.000002076444
       9        0.000004069197     0.000002107502     0.000001144649
      10       -0.000003766731    -0.000010469802     0.000000295709
      11       -0.000004248707    -0.000000519208     0.000001821883
      12        0.000000864484    -0.000003070543     0.000002646909
      13        0.000000897835     0.000003431330    -0.000002164954
      14        0.000002800484    -0.000000142559    -0.000001877385
      15        0.000001198115    -0.000009334627     0.000006418312
      16        0.000001051334     0.000000298735    -0.000001869589
      17        0.000001056885     0.000003601479    -0.000000286185
      18       -0.000001253964    -0.000001237272    -0.000002495750
      19        0.000001952996    -0.000002458348    -0.000001448309

  **** Optimization is complete! (in 11 steps) ****
    Final optimized geometry and variables:
    Molecular point group: c1

    Geometry (in Angstrom), charge = 0, multiplicity = 1:

    O            1.678709833337    -0.601864678487     0.430240160974
    C            0.887445939024     0.183791614499     0.002567835479
    C           -0.615576288591    -0.152325345965     0.039378292016
    C            1.366776102546     1.478577396541    -0.621865997079
    C           -0.840409094708    -1.276054112285    -0.990363833663
    C           -1.518137669839     1.043388611668    -0.295392446906
    C           -0.956834947981    -0.672524553719     1.445017647527
    H           -0.596123040262    -0.949266674791    -1.997819449641
    H           -1.881900835458    -1.582462895342    -0.987076705169
    H           -0.227028008674    -2.137298390601    -0.756628630417
    H           -1.340637973480     1.428716558348    -1.293832336622
    H           -2.558134612581     0.737680324717    -0.247078411091
    H           -1.387622443997     1.859202719757     0.409009989762
    H           -1.997111825428    -0.980869397326     1.486272189266
    H           -0.334374536274    -1.517718962177     1.705291665917
    H           -0.809012144741     0.098224974970     2.196170938600
    H            0.968491850663     2.338587151540    -0.094085109818
    H            2.446754249911     1.501689911863    -0.585738939859
    H            1.038963873700     1.553655567287    -1.654000048080

  Mulliken Charges: (a.u.)
   Center  Symbol    Alpha    Beta     Spin     Total
       1     O     4.26753  4.26753  0.00000 -0.53506
       2     C     2.72722  2.72722  0.00000  0.54556
       3     C     3.06144  3.06144  0.00000 -0.12288
       4     C     3.28968  3.28968  0.00000 -0.57936
       5     C     3.23823  3.23823  0.00000 -0.47646
       6     C     3.24032  3.24032  0.00000 -0.48064
       7     C     3.23471  3.23471  0.00000 -0.46942
       8     H     0.42038  0.42038  0.00000  0.15923
       9     H     0.41621  0.41621  0.00000  0.16759
      10     H     0.40300  0.40300  0.00000  0.19400
      11     H     0.41823  0.41823  0.00000  0.16354
      12     H     0.41408  0.41408  0.00000  0.17183
      13     H     0.41797  0.41797  0.00000  0.16406
      14     H     0.42001  0.42001  0.00000  0.15999
      15     H     0.40059  0.40059  0.00000  0.19881
      16     H     0.42009  0.42009  0.00000  0.15981
      17     H     0.40686  0.40686  0.00000  0.18629
      18     H     0.39546  0.39546  0.00000  0.20907
      19     H     0.40797  0.40797  0.00000  0.18405

   Total alpha = 28.00000, Total beta = 28.00000, Total charge =  0.00000
