  ==> Input File <==

--------------------------------------------------------------------------
set {
	reference rhf
	basis 6-31G*
}

set_num_threads( 4 )
memory 2 gb

molecule MOL {
0 1

H	 2.845955	 -0.323208	 0.022310
C	 1.900140	 0.071967	 -0.330070
C	 0.778463	 -0.508087	 0.517968
H	 1.782469	 -0.206877	 -1.370777
H	 1.922247	 1.149867	 -0.254252
N	 -0.540928	 0.005139	 0.058438
H	 0.716718	 -1.581298	 0.454712
H	 0.859711	 -0.198647	 1.550086
O	 -1.032122	 0.898433	 0.674901
O	 -1.017694	 -0.516767	 -0.903232

	symmetry c1
}
set optking {
	frozen_dihedral = ("
		9 6 3 2
	")
}

ee = optimize('scf')
oeprop('DIPOLE', 'QUADRUPOLE', 'MULLIKEN_CHARGES')
f=open( 'psi4out.xyz', 'w' )
f.write( "10  " )
f.write( str(ee) + "\n" )
f.write( MOL.save_string_xyz() )
f.close()
--------------------------------------------------------------------------

    Molecular point group: c1
  Charge       = 0
  Multiplicity = 1
  Basis Set: 6-31G*
  Basis Set:
  @DF-RHF Final Energy:  -282.70024820796289
    Total Energy =                       -282.7002482079627725
    Molecular point group: c1
  Basis Set: 6-31G*
  Basis Set:
  Basis Set: 6-31G*
  Basis Set:
  @DF-RHF Final Energy:  -282.69446652769375
    Total Energy =                       -282.6944665276938622
  Basis Set: 6-31G*
  Basis Set:
  Basis Set: 6-31G*
  Basis Set:
  @DF-RHF Final Energy:  -282.70031636110957
    Total Energy =                       -282.7003163611096284
  Basis Set: 6-31G*
  Basis Set:
  Basis Set: 6-31G*
  Basis Set:
  @DF-RHF Final Energy:  -282.70044199900678
    Total Energy =                       -282.7004419990067845
  Basis Set: 6-31G*
  Basis Set:
  Basis Set: 6-31G*
  Basis Set:
  @DF-RHF Final Energy:  -282.70046156033158
    Total Energy =                       -282.7004615603314619
  Basis Set: 6-31G*
  Basis Set:
  Charge       = 0
  Multiplicity = 1
  Basis Set: 6-31G*
  Basis Set:

    Orbital Energies (a.u.)
    -----------------------

    Doubly Occupied:

       1A    -20.603282     2A    -20.600836     3A    -15.848491
       4A    -11.303640     5A    -11.253734     6A     -1.632093
       7A     -1.417760     8A     -1.128082     9A     -0.967441
      10A     -0.838126    11A     -0.760388    12A     -0.735395
      13A     -0.725604    14A     -0.658954    15A     -0.590668
      16A     -0.561097    17A     -0.549877    18A     -0.485129
      19A     -0.477860    20A     -0.449582

  @DF-RHF Final Energy:  -282.70046599451018

   => Energetics <=

    Nuclear Repulsion Energy =            186.2879587609888858
    One-Electron Energy =                -754.8007749735206744
    Two-Electron Energy =                 285.8123502180216065
    DFT Exchange-Correlation Energy =       0.0000000000000000
    Empirical Dispersion Energy =           0.0000000000000000
    PCM Polarization Energy =               0.0000000000000000
    EFP Energy =                            0.0000000000000000
    Total Energy =                       -282.7004659945101821
    Molecular point group: c1
  Basis Set: 6-31G*
  Basis Set:

  -Total Gradient:
     Atom            X                  Y                   Z
    ------   -----------------  -----------------  -----------------
       1       -0.000015418090    -0.000003668646     0.000012949440
       2       -0.000044319773     0.000079303778     0.000074772485
       3        0.000051089013    -0.000099364813    -0.000128055879
       4       -0.000011140057     0.000002569469    -0.000001020783
       5        0.000026551294     0.000012045634    -0.000013287977
       6       -0.000074684616     0.000031342889     0.000089864187
       7       -0.000009289205    -0.000009777932     0.000026787711
       8       -0.000007850048     0.000015893116     0.000003273510
       9        0.000088558074     0.000034052201    -0.000018046734
      10       -0.000003496590    -0.000062395696    -0.000047235958

  **** Optimization is complete! (in 6 steps) ****
    Final optimized geometry and variables:
    Molecular point group: c1

    Geometry (in Angstrom), charge = 0, multiplicity = 1:

    H            2.836859318301    -0.307438138751     0.025073421554
    C            1.883318709126     0.068355324238    -0.326683534315
    C            0.771464697351    -0.512083277100     0.537654406381
    H            1.755748219285    -0.223084137579    -1.360995829524
    H            1.896058413976     1.149692472901    -0.260993244161
    N           -0.540006208240     0.004126062146     0.064629673585
    H            0.714689150367    -1.585687950015     0.450962482722
    H            0.856046651289    -0.214218040096     1.569436504222
    O           -1.027243225708     0.907333083238     0.670875431744
    O           -0.999533508157    -0.503646466377    -0.912418557436

  Mulliken Charges: (a.u.)
   Center  Symbol    Alpha    Beta     Spin     Total
       1     H     0.40427  0.40427  0.00000  0.19146
       2     C     3.25796  3.25796  0.00000 -0.51593
       3     C     3.08962  3.08962  0.00000 -0.17925
       4     H     0.39530  0.39530  0.00000  0.20939
       5     H     0.39954  0.39954  0.00000  0.20092
       6     N     3.22012  3.22012  0.00000  0.55976
       7     H     0.38771  0.38771  0.00000  0.22458
       8     H     0.38668  0.38668  0.00000  0.22663
       9     O     4.22834  4.22834  0.00000 -0.45667
      10     O     4.23045  4.23045  0.00000 -0.46090

   Total alpha = 20.00000, Total beta = 20.00000, Total charge =  0.00000
