                              Psi4 1.0.54 Driver

  ==> Input File <==

--------------------------------------------------------------------------
set {
	reference rhf
	basis cc-pvtz
}

set_num_threads( 4 )
memory 2 gb

molecule MOL {
0 1

O	 -2.081319	 -0.951530	 -0.502732
N	 -1.613558	 0.006676	 0.014756
C	 -0.329345	 -0.171618	 0.743966
O	 -2.068523	 1.100482	 -0.024385
C	 0.835904	 0.041968	 -0.213982
H	 -0.346048	 -1.174374	 1.137184
H	 -0.333613	 0.555559	 1.538590
C	 0.395997	 0.797877	 -1.465082
H	 1.615533	 0.594087	 0.297780
H	 1.246562	 -0.922626	 -0.489038
C	 1.543032	 1.018803	 -2.444869
H	 -0.024173	 1.757319	 -1.178086
H	 -0.399685	 0.247394	 -1.958303
H	 2.340051	 1.596079	 -1.989664
H	 1.963199	 0.074919	 -2.773895
H	 1.204361	 1.555283	 -3.322737

	symmetry c1
}
set optking {
	frozen_dihedral = ("
		9 5 3 2
	")
}

ee,wfn = optimize('scf', return_wfn=True)
oeprop( wfn, 'DIPOLE', 'QUADRUPOLE', 'MULLIKEN_CHARGES')
f=open( 'psi4out.xyz', 'w' )
f.write( "16  " )
f.write( str(ee) + "\n" )
f.write( MOL.save_string_xyz() )
f.close()
--------------------------------------------------------------------------

    Molecular point group: c1
  Charge       = 0
  Multiplicity = 1
  Basis Set: CC-PVTZ
  Basis Set:
  @DF-RHF Final Energy:  -360.89834949491944
    Total Energy =                       -360.8983494949193300
    Molecular point group: c1
  Basis Set: CC-PVTZ
  Basis Set:
  Basis Set: CC-PVTZ
  Basis Set:
  @DF-RHF Final Energy:  -360.89637641022404
    Total Energy =                       -360.8963764102240930
  Basis Set: CC-PVTZ
  Basis Set:
  Basis Set: CC-PVTZ
  Basis Set:
  @DF-RHF Final Energy:  -360.89998210053022
    Total Energy =                       -360.8999821005303374
  Basis Set: CC-PVTZ
  Basis Set:
  Basis Set: CC-PVTZ
  Basis Set:
  @DF-RHF Final Energy:  -360.90264031069830
    Total Energy =                       -360.9026403106981888
  Basis Set: CC-PVTZ
  Basis Set:
  @DF-RHF Final Energy:  -360.90276486863888
    Total Energy =                       -360.9027648686391672
  @DF-RHF Final Energy:  -360.90280925125063
    Total Energy =                       -360.9028092512508010
  @DF-RHF Final Energy:  -360.90283161381609
    Total Energy =                       -360.9028316138161472
  Basis Set: CC-PVTZ
  Basis Set:
  @DF-RHF Final Energy:  -360.90285342953450
    Total Energy =                       -360.9028534295343889
  Basis Set: CC-PVTZ
  Basis Set:
  Basis Set: CC-PVTZ
  Basis Set:
  @DF-RHF Final Energy:  -360.90285589392823
    Total Energy =                       -360.9028558939282902
  Basis Set: CC-PVTZ
  Basis Set:
  Basis Set: CC-PVTZ
  Basis Set:
  @DF-RHF Final Energy:  -360.90285720837397
    Total Energy =                       -360.9028572083736321
  Basis Set: CC-PVTZ
  Basis Set:
  Charge       = 0
  Multiplicity = 1
  Basis Set: CC-PVTZ
  Basis Set:

    Orbital Energies (a.u.)
    -----------------------

    Doubly Occupied:

       1A    -20.591736     2A    -20.588607     3A    -15.836297
       4A    -11.296711     5A    -11.251746     6A    -11.232019
       7A    -11.220699     8A     -1.635723     9A     -1.419820
      10A     -1.131343    11A     -1.054602    12A     -0.946960
      13A     -0.857341    14A     -0.814053    15A     -0.749517
      16A     -0.738147    17A     -0.730281    18A     -0.673752
      19A     -0.615784    20A     -0.598634    21A     -0.573994
      22A     -0.541690    23A     -0.506960    24A     -0.496687
      25A     -0.494309    26A     -0.478733    27A     -0.472174
      28A     -0.452450

  @DF-RHF Final Energy:  -360.90285726762744

   => Energetics <=

    Nuclear Repulsion Energy =            322.3134047776905504
    One-Electron Energy =               -1130.4309828422769897
    Two-Electron Energy =                 447.2147207969587726
    DFT Exchange-Correlation Energy =       0.0000000000000000
    Empirical Dispersion Energy =           0.0000000000000000
    PCM Polarization Energy =               0.0000000000000000
    EFP Energy =                            0.0000000000000000
    Total Energy =                       -360.9028572676277236
    Molecular point group: c1
  Basis Set: CC-PVTZ
  Basis Set:

  -Total Gradient:
     Atom            X                  Y                   Z
    ------   -----------------  -----------------  -----------------
       1       -0.000002076938    -0.000000596600     0.000000970131
       2        0.000069567695     0.003809882556     0.001193599241
       3       -0.000588863229    -0.004275542983    -0.001805242737
       4        0.000007374988    -0.000025839231    -0.000006337577
       5        0.002950013998    -0.004063742931     0.001547900449
       6       -0.000000875882    -0.000003922410    -0.000000615288
       7        0.000000503791    -0.000002271172     0.000002715899
       8       -0.000009772652     0.000009043595     0.000001749557
       9       -0.002433308835     0.004554898280    -0.000926339136
      10        0.000002386803    -0.000004836314     0.000003782213
      11        0.000001579154    -0.000002532871     0.000000102110
      12        0.000000857566     0.000003536926    -0.000005028040
      13        0.000005758385     0.000002937679    -0.000004438948
      14       -0.000002644810    -0.000000536941     0.000001760553
      15        0.000001244742    -0.000002991184    -0.000000794780
      16       -0.000001744779     0.000002513598    -0.000003783644

  **** Optimization is complete! (in 11 steps) ****
    Final optimized geometry and variables:
    Molecular point group: c1

    Geometry (in Angstrom), charge = 0, multiplicity = 1:

    O           -1.550124234908    -1.233091374948     0.081760451100
    N           -1.080124684568    -0.353392133594     0.724234852913
    C            0.324543316954    -0.526840775585     1.184936625903
    O           -1.633138967742     0.652204753313     1.016614546573
    C            1.351024872948    -0.202137995565     0.080862025635
    H            0.399782087540    -1.550107189022     1.510898036131
    H            0.422410193240     0.141706416221     2.022062515525
    C            0.852773120786     0.683426069177    -1.064735965947
    H            2.161260844381     0.329856075899     0.564805556492
    H            1.746008223615    -1.124453538726    -0.323015330015
    C            1.968704242382     0.994939391683    -2.056004341377
    H            0.454946022832     1.608955624645    -0.664089200445
    H            0.039314297713     0.192690076880    -1.585134532160
    H            2.787590780497     1.520481155183    -1.576441848784
    H            2.368695181672     0.087374439470    -2.495116747520
    H            1.602769149440     1.618558581117    -2.862276942604

  Mulliken Charges: (a.u.)
   Center  Symbol    Alpha    Beta     Spin     Total
       1     O     4.17569  4.17569  0.00000 -0.35138
       2     N     3.27501  3.27501  0.00000  0.44998
       3     C     3.04118  3.04118  0.00000 -0.08237
       4     O     4.17379  4.17379  0.00000 -0.34759
       5     C     3.09925  3.09925  0.00000 -0.19850
       6     H     0.43021  0.43021  0.00000  0.13958
       7     H     0.43381  0.43381  0.00000  0.13238
       8     C     3.09710  3.09710  0.00000 -0.19420
       9     H     0.44694  0.44694  0.00000  0.10613
      10     H     0.44281  0.44281  0.00000  0.11437
      11     C     3.15122  3.15122  0.00000 -0.30244
      12     H     0.44095  0.44095  0.00000  0.11809
      13     H     0.43949  0.43949  0.00000  0.12103
      14     H     0.45512  0.45512  0.00000  0.08975
      15     H     0.45369  0.45369  0.00000  0.09261
      16     H     0.44373  0.44373  0.00000  0.11254

   Total alpha = 28.00000, Total beta = 28.00000, Total charge =  0.00000

*** Psi4 exiting successfully. Buy a developer a beer!
