                              Psi4 1.0.54 Driver

  ==> Input File <==

--------------------------------------------------------------------------
set {
	reference rhf
	basis cc-pvtz
}

set_num_threads( 4 )
memory 2 gb

molecule MOL {
0 1

H	 3.293994	 -0.427963	 -0.034615
C	 2.236031	 -0.247373	 -0.026401
C	 1.463525	 -0.726038	 1.021190
C	 1.652406	 0.459763	 -1.058320
H	 1.924359	 -1.274744	 1.819530
C	 0.105977	 -0.496562	 1.035571
H	 2.252422	 0.828745	 -1.867214
C	 0.288891	 0.689429	 -1.042478
H	 -0.507753	 -0.858335	 1.836266
C	 -0.486398	 0.214248	 0.000000
H	 -0.171892	 1.239024	 -1.842352
C	 -1.946525	 0.470130	 0.000000
O	 -2.779618	 -0.371226	 0.000000
H	 -2.227127	 1.528393	 0.000000

	symmetry c1
}
set optking {
	frozen_dihedral = ("
		8 10 12 14
	")
}

ee,wfn = optimize('scf', return_wfn=True)
oeprop( wfn, 'DIPOLE', 'QUADRUPOLE', 'MULLIKEN_CHARGES')
f=open( 'psi4out.xyz', 'w' )
f.write( "14  " )
f.write( str(ee) + "\n" )
f.write( MOL.save_string_xyz() )
f.close()
--------------------------------------------------------------------------

    Molecular point group: c1
  Charge       = 0
  Multiplicity = 1
  Basis Set: CC-PVTZ
  Basis Set:
  @DF-RHF Final Energy:  -343.54022940669483
    Total Energy =                       -343.5402294066946638
    Molecular point group: c1
  Basis Set: CC-PVTZ
  Basis Set:
  Basis Set: CC-PVTZ
  Basis Set:
  @DF-RHF Final Energy:  -343.53802796053964
    Total Energy =                       -343.5380279605395231
  Basis Set: CC-PVTZ
  Basis Set:
  Basis Set: CC-PVTZ
  Basis Set:
  @DF-RHF Final Energy:  -343.54044618004230
    Total Energy =                       -343.5404461800426361
  Basis Set: CC-PVTZ
  Basis Set:
  Basis Set: CC-PVTZ
  Basis Set:
  @DF-RHF Final Energy:  -343.54100017996569
    Total Energy =                       -343.5410001799658062
  Basis Set: CC-PVTZ
  Basis Set:
  Basis Set: CC-PVTZ
  Basis Set:
  @DF-RHF Final Energy:  -343.54101261540893
    Total Energy =                       -343.5410126154089312
  Basis Set: CC-PVTZ
  Basis Set:
  Charge       = 0
  Multiplicity = 1
  Basis Set: CC-PVTZ
  Basis Set:

    Orbital Energies (a.u.)
    -----------------------

    Doubly Occupied:

       1A    -20.560383     2A    -11.330900     3A    -11.249439
       4A    -11.247915     5A    -11.245076     6A    -11.244195
       7A    -11.242471     8A    -11.241279     9A     -1.415149
      10A     -1.175142    11A     -1.049483    12A     -1.033955
      13A     -0.890784    14A     -0.845754    15A     -0.797226
      16A     -0.725518    17A     -0.681017    18A     -0.657256
      19A     -0.639074    20A     -0.621081    21A     -0.604708
      22A     -0.545951    23A     -0.530981    24A     -0.514380
      25A     -0.506929    26A     -0.426425    27A     -0.352711
      28A     -0.351547

  @DF-RHF Final Energy:  -343.54101435041508

   => Energetics <=

    Nuclear Repulsion Energy =            323.6748465037792926
    One-Electron Energy =               -1106.9782577838168436
    Two-Electron Energy =                 439.7623969296225823
    DFT Exchange-Correlation Energy =       0.0000000000000000
    Empirical Dispersion Energy =           0.0000000000000000
    PCM Polarization Energy =               0.0000000000000000
    EFP Energy =                            0.0000000000000000
    Total Energy =                       -343.5410143504150255
    Molecular point group: c1
  Basis Set: CC-PVTZ
  Basis Set:

  -Total Gradient:
     Atom            X                  Y                   Z
    ------   -----------------  -----------------  -----------------
       1       -0.000004798193    -0.000020404920     0.000005326685
       2        0.000010695834     0.000086264674    -0.000110281028
       3       -0.000127082292     0.000029843720     0.000100078202
       4        0.000108862535    -0.000068160014     0.000036136418
       5        0.000012786131    -0.000007658464    -0.000005913631
       6        0.000125181997    -0.000132449886     0.000019010287
       7       -0.000007130681     0.000010619745    -0.000001850246
       8       -0.000780696067    -0.004982850719    -0.002611593710
       9       -0.000000159448     0.000029899071    -0.000001120881
      10        0.000891419381     0.007418592716     0.006018907352
      11        0.000003867358     0.000009387708     0.000006353282
      12       -0.000198980800    -0.002611708519    -0.010358794492
      13        0.000012967795    -0.000038596528     0.000006717718
      14       -0.000046933549     0.000277221416     0.006897024045

  **** Optimization is complete! (in 6 steps) ****
    Final optimized geometry and variables:
    Molecular point group: c1

    Geometry (in Angstrom), charge = 0, multiplicity = 1:

    H            3.288115860956    -0.449546257848    -0.038091679169
    C            2.233160765368    -0.253175481920    -0.027934378614
    C            1.454195676248    -0.718106625290     1.016422755497
    C            1.653663428472     0.458158247048    -1.061103910381
    H            1.903780812093    -1.276345916617     1.814814353421
    C            0.094657624421    -0.479156337412     1.024761139528
    H            2.254201315374     0.807129665632    -1.878791279231
    C            0.297048895196     0.719877806149    -1.040674582411
    H           -0.520143326608    -0.862859797346     1.815449997344
    C           -0.483059583627     0.261140017303     0.006432307151
    H           -0.151844054447     1.279798386267    -1.840419044725
    C           -1.961748534259     0.468950942609    -0.016841717547
    O           -2.748806597098    -0.406938487041     0.085916171468
    H           -2.297234740170     1.510613641795    -0.058471915061

  Mulliken Charges: (a.u.)
   Center  Symbol    Alpha    Beta     Spin     Total
       1     H     0.42050  0.42050  0.00000  0.15899
       2     C     3.07894  3.07894  0.00000 -0.15788
       3     C     3.06469  3.06469  0.00000 -0.12938
       4     C     3.06790  3.06790  0.00000 -0.13580
       5     H     0.42081  0.42081  0.00000  0.15839
       6     C     3.09060  3.09060  0.00000 -0.18120
       7     H     0.42085  0.42085  0.00000  0.15831
       8     C     3.09380  3.09380  0.00000 -0.18761
       9     H     0.41635  0.41635  0.00000  0.16731
      10     C     2.95542  2.95542  0.00000  0.08916
      11     H     0.42421  0.42421  0.00000  0.15159
      12     C     2.93003  2.93003  0.00000  0.13995
      13     O     4.16020  4.16020  0.00000 -0.32040
      14     H     0.45571  0.45571  0.00000  0.08858

   Total alpha = 28.00000, Total beta = 28.00000, Total charge =  0.00000

*** Psi4 exiting successfully. Buy a developer a beer!
