  ==> Input File <==

--------------------------------------------------------------------------
set {
	reference rhf
	basis 6-31G*
}

set_num_threads( 4 )
memory 2 gb

molecule MOL {
0 1

H	 -2.798360	 -0.862255	 -0.071053
N	 -1.863561	 -0.715187	 0.256814
C	 -1.344686	 0.554728	 -0.219830
H	 -1.300452	 -1.461917	 -0.101532
C	 0.081427	 0.741154	 0.254071
H	 -1.362155	 0.656231	 -1.305829
H	 -1.952773	 1.354456	 0.191809
O	 0.052470	 1.068173	 1.613963
H	 0.651797	 -0.174817	 0.101384
H	 0.554893	 1.537773	 -0.315546
C	 1.299654	 1.352272	 2.162955
H	 1.152132	 1.587210	 3.208296
H	 1.971949	 0.499579	 2.086040
H	 1.765379	 2.204284	 1.672053

	symmetry c1
}
set optking {
	frozen_dihedral = ("
		8 5 3 6
	")
}

ee = optimize('scf')
oeprop('DIPOLE', 'QUADRUPOLE', 'MULLIKEN_CHARGES')
f=open( 'psi4out.xyz', 'w' )
f.write( "14  " )
f.write( str(ee) + "\n" )
f.write( MOL.save_string_xyz() )
f.close()
--------------------------------------------------------------------------

    Molecular point group: c1
  Charge       = 0
  Multiplicity = 1
  Basis Set: 6-31G*
  Basis Set:
  @DF-RHF Final Energy:  -248.11865967314833
    Total Energy =                       -248.1186596731482723
    Molecular point group: c1
  Basis Set: 6-31G*
  Basis Set:
  Basis Set: 6-31G*
  Basis Set:
  @DF-RHF Final Energy:  -248.11934878250372
    Total Energy =                       -248.1193487825038346
  Basis Set: 6-31G*
  Basis Set:
  Basis Set: 6-31G*
  Basis Set:
  @DF-RHF Final Energy:  -248.11952109259528
    Total Energy =                       -248.1195210925951073
  Basis Set: 6-31G*
  Basis Set:
  Basis Set: 6-31G*
  Basis Set:
  @DF-RHF Final Energy:  -248.11955338776539
    Total Energy =                       -248.1195533877655635
  Basis Set: 6-31G*
  Basis Set:
  Basis Set: 6-31G*
  Basis Set:
  @DF-RHF Final Energy:  -248.11955770513882
    Total Energy =                       -248.1195577051386749
  Basis Set: 6-31G*
  Basis Set:
  Charge       = 0
  Multiplicity = 1
  Basis Set: 6-31G*
  Basis Set:

    Orbital Energies (a.u.)
    -----------------------

    Doubly Occupied:

       1A    -20.549117     2A    -15.532787     3A    -11.265733
       4A    -11.260640     5A    -11.242815     6A     -1.375879
       7A     -1.176430     8A     -0.998090     9A     -0.902150
      10A     -0.818649    11A     -0.680688    12A     -0.666425
      13A     -0.645545    14A     -0.618187    15A     -0.597157
      16A     -0.547028    17A     -0.520164    18A     -0.501868
      19A     -0.463584    20A     -0.411469    21A     -0.380917

  @DF-RHF Final Energy:  -248.11955801027784

   => Energetics <=

    Nuclear Repulsion Energy =            193.1573230540205941
    One-Electron Energy =                -720.2431144300876440
    Two-Electron Energy =                 278.9662333657892646
    DFT Exchange-Correlation Energy =       0.0000000000000000
    Empirical Dispersion Energy =           0.0000000000000000
    PCM Polarization Energy =               0.0000000000000000
    EFP Energy =                            0.0000000000000000
    Total Energy =                       -248.1195580102777853
    Molecular point group: c1
  Basis Set: 6-31G*
  Basis Set:

  -Total Gradient:
     Atom            X                  Y                   Z
    ------   -----------------  -----------------  -----------------
       1        0.000014405010    -0.000000330525     0.000006814712
       2       -0.000012365271     0.000027621459    -0.000013244453
       3        0.000253586192    -0.001068131548    -0.000185350764
       4        0.000000726134     0.000019846735     0.000006031969
       5        0.000062814026    -0.000817527526     0.000377235158
       6       -0.000251909688     0.001051034246     0.000071818429
       7       -0.000008259617    -0.000015186407    -0.000003875041
       8       -0.000062019304     0.000809205490    -0.000267994564
       9        0.000008804519    -0.000007289059    -0.000012116304
      10        0.000003195495    -0.000004670670    -0.000000509929
      11       -0.000007676634     0.000011292454     0.000030414268
      12        0.000010112012    -0.000001387500     0.000006203836
      13       -0.000005402490     0.000003504932    -0.000008019959
      14       -0.000006010384    -0.000007982081    -0.000007407360

  **** Optimization is complete! (in 6 steps) ****
    Final optimized geometry and variables:
    Molecular point group: c1

    Geometry (in Angstrom), charge = 0, multiplicity = 1:

    H           -2.466183232241    -1.443677151726    -0.731245391854
    N           -1.483888537438    -1.353451462347    -0.561139707542
    C           -0.989467267033    -0.077411561254    -1.047950822916
    H           -1.032207828872    -2.114364105222    -1.031097060543
    C            0.420564621012     0.200406350421    -0.557358225262
    H           -0.996056949724     0.007361905877    -2.137358096246
    H           -1.633014408319     0.706149597508    -0.665868251271
    O            0.387771993028     0.547206735964     0.790361772884
    H            1.049400223747    -0.677663564617    -0.711549612889
    H            0.853563621565     1.014512529878    -1.140397394919
    C            1.641014871431     0.737984450444     1.360930182712
    H            1.490650674824     1.010818805468     2.396456325126
    H            2.240533637829    -0.169753189054     1.320331475057
    H            2.191301833324     1.535843556771     0.863562051548

  Mulliken Charges: (a.u.)
   Center  Symbol    Alpha    Beta     Spin     Total
       1     H     0.33097  0.33097  0.00000  0.33805
       2     N     3.91618  3.91618  0.00000 -0.83237
       3     C     3.07320  3.07320  0.00000 -0.14639
       4     H     0.33593  0.33593  0.00000  0.32815
       5     C     2.98200  2.98200  0.00000  0.03600
       6     H     0.43368  0.43368  0.00000  0.13263
       7     H     0.40925  0.40925  0.00000  0.18149
       8     O     4.29751  4.29751  0.00000 -0.59503
       9     H     0.43501  0.43501  0.00000  0.12999
      10     H     0.43302  0.43302  0.00000  0.13396
      11     C     3.07873  3.07873  0.00000 -0.15747
      12     H     0.41174  0.41174  0.00000  0.17652
      13     H     0.43004  0.43004  0.00000  0.13993
      14     H     0.43273  0.43273  0.00000  0.13454

   Total alpha = 21.00000, Total beta = 21.00000, Total charge = -0.00000
