  ==> Input File <==

--------------------------------------------------------------------------
set {
	reference rhf
	basis 6-31G*
}

set_num_threads( 4 )
memory 2 gb

molecule MOL {
0 1

H	 2.845955	 -0.323208	 0.022310
C	 1.900140	 0.071967	 -0.330070
C	 0.778463	 -0.508087	 0.517968
H	 1.782469	 -0.206877	 -1.370777
H	 1.922247	 1.149867	 -0.254252
N	 -0.540928	 0.005139	 0.058438
H	 0.716718	 -1.581298	 0.454712
H	 0.859711	 -0.198647	 1.550086
O	 -0.657698	 1.182249	 -0.083157
O	 -1.395695	 -0.804144	 -0.138881

	symmetry c1
}
set optking {
	frozen_dihedral = ("
		9 6 3 2
	")
}

ee = optimize('scf')
oeprop('DIPOLE', 'QUADRUPOLE', 'MULLIKEN_CHARGES')
f=open( 'psi4out.xyz', 'w' )
f.write( "10  " )
f.write( str(ee) + "\n" )
f.write( MOL.save_string_xyz() )
f.close()
--------------------------------------------------------------------------

    Molecular point group: c1
  Charge       = 0
  Multiplicity = 1
  Basis Set: 6-31G*
  Basis Set:
  @DF-RHF Final Energy:  -282.70040830246086
    Total Energy =                       -282.7004083024606302
    Molecular point group: c1
  Basis Set: 6-31G*
  Basis Set:
  Basis Set: 6-31G*
  Basis Set:
  @DF-RHF Final Energy:  -282.69700798470700
    Total Energy =                       -282.6970079847069428
  Basis Set: 6-31G*
  Basis Set:
  Basis Set: 6-31G*
  Basis Set:
  @DF-RHF Final Energy:  -282.70042049873916
    Total Energy =                       -282.7004204987392768
  Basis Set: 6-31G*
  Basis Set:
  Basis Set: 6-31G*
  Basis Set:
  @DF-RHF Final Energy:  -282.70049493082490
    Total Energy =                       -282.7004949308248456
  Basis Set: 6-31G*
  Basis Set:
  Charge       = 0
  Multiplicity = 1
  Basis Set: 6-31G*
  Basis Set:

    Orbital Energies (a.u.)
    -----------------------

    Doubly Occupied:

       1A    -20.604277     2A    -20.601046     3A    -15.849245
       4A    -11.304318     5A    -11.249868     6A     -1.632878
       7A     -1.418288     8A     -1.126672     9A     -0.967410
      10A     -0.836096    11A     -0.761646    12A     -0.740188
      13A     -0.726280    14A     -0.651628    15A     -0.591053
      16A     -0.563442    17A     -0.542990    18A     -0.486225
      19A     -0.478197    20A     -0.450487

  @DF-RHF Final Energy:  -282.70049599548867

   => Energetics <=

    Nuclear Repulsion Energy =            186.1345064731740422
    One-Electron Energy =                -754.5055316311772913
    Two-Electron Energy =                 285.6705291625146401
    DFT Exchange-Correlation Energy =       0.0000000000000000
    Empirical Dispersion Energy =           0.0000000000000000
    PCM Polarization Energy =               0.0000000000000000
    EFP Energy =                            0.0000000000000000
    Total Energy =                       -282.7004959954886090
    Molecular point group: c1
  Basis Set: 6-31G*
  Basis Set:

  -Total Gradient:
     Atom            X                  Y                   Z
    ------   -----------------  -----------------  -----------------
       1       -0.000023556932    -0.000008822834     0.000013862104
       2       -0.000033565570     0.000021771849     0.000009503768
       3        0.000001948391    -0.000118401672    -0.000048977351
       4        0.000016384323     0.000003373876    -0.000034287456
       5       -0.000028197444    -0.000023354154     0.000031247524
       6        0.000206944822     0.000399466805     0.000135663477
       7        0.000063952425    -0.000011257018    -0.000008386412
       8        0.000002013075    -0.000004500099     0.000027313496
       9       -0.000096366339    -0.000237636805    -0.000104596864
      10       -0.000109556750    -0.000020639946    -0.000021342287

  **** Optimization is complete! (in 5 steps) ****
    Final optimized geometry and variables:
    Molecular point group: c1

    Geometry (in Angstrom), charge = 0, multiplicity = 1:

    H            2.852252021572    -0.321732700184     0.027095094293
    C            1.910517979785     0.077935701823    -0.331289884523
    C            0.783970319517    -0.500535259771     0.508421631783
    H            1.799859194638    -0.197899980106    -1.373540359039
    H            1.936492966448     1.155320649014    -0.254797094644
    N           -0.541843747615     0.004426661243     0.054473984850
    H            0.722688758785    -1.574158660958     0.451654216266
    H            0.859407791102    -0.193234992201     1.542632697507
    O           -0.658610644141     1.183765523290    -0.082264669360
    O           -1.403358363322    -0.799282748960    -0.123082119108

  Mulliken Charges: (a.u.)
   Center  Symbol    Alpha    Beta     Spin     Total
       1     H     0.40695  0.40695  0.00000  0.18609
       2     C     3.25585  3.25585  0.00000 -0.51170
       3     C     3.09425  3.09425  0.00000 -0.18851
       4     H     0.40366  0.40366  0.00000  0.19267
       5     H     0.39251  0.39251  0.00000  0.21497
       6     N     3.21839  3.21839  0.00000  0.56321
       7     H     0.38492  0.38492  0.00000  0.23016
       8     H     0.38624  0.38624  0.00000  0.22751
       9     O     4.22973  4.22973  0.00000 -0.45947
      10     O     4.22747  4.22747  0.00000 -0.45495

   Total alpha = 20.00000, Total beta = 20.00000, Total charge = -0.00000
