  ==> Input File <==

--------------------------------------------------------------------------
set {
	reference rhf
	basis 6-31G*
}

set_num_threads( 4 )
memory 2 gb

molecule MOL {
0 1

O	 -2.439739	 -0.935931	 -0.423848
C	 -1.921153	 0.064240	 -0.045697
C	 -2.624470	 1.379923	 0.150949
O	 -0.632575	 0.154573	 0.251549
H	 -2.168117	 2.136577	 -0.476876
H	 -3.669540	 1.273223	 -0.098610
H	 -2.519365	 1.700893	 1.180846
C	 0.160891	 -1.019931	 0.106212
C	 1.589627	 -0.672828	 0.480843
H	 0.089836	 -1.367806	 -0.916050
H	 -0.238459	 -1.792301	 0.749618
C	 2.246377	 0.346236	 -0.452210
H	 2.163194	 -1.597435	 0.473358
H	 1.604769	 -0.303424	 1.502885
C	 1.225655	 1.127087	 -1.278890
H	 2.841403	 1.040678	 0.137530
H	 2.935729	 -0.166233	 -1.115180
H	 1.715729	 1.841754	 -1.932428
H	 0.540566	 1.678197	 -0.640762
H	 0.634121	 0.461719	 -1.901346

	symmetry c1
}
set optking {
	frozen_dihedral = ("
		16 12 9 8
	")
}

ee = optimize('scf')
oeprop('DIPOLE', 'QUADRUPOLE', 'MULLIKEN_CHARGES')
f=open( 'psi4out.xyz', 'w' )
f.write( "20  " )
f.write( str(ee) + "\n" )
f.write( MOL.save_string_xyz() )
f.close()
--------------------------------------------------------------------------

    Molecular point group: c1
  Charge       = 0
  Multiplicity = 1
  Basis Set: 6-31G*
  Basis Set:
  @DF-RHF Final Energy:  -383.92734595183794
    Total Energy =                       -383.9273459518379923
    Molecular point group: c1
  Basis Set: 6-31G*
  Basis Set:
  Basis Set: 6-31G*
  Basis Set:
  @DF-RHF Final Energy:  -383.93388481396681
    Total Energy =                       -383.9338848139666425
  Basis Set: 6-31G*
  Basis Set:
  Basis Set: 6-31G*
  Basis Set:
  @DF-RHF Final Energy:  -383.93570683100046
    Total Energy =                       -383.9357068310006298
  Basis Set: 6-31G*
  Basis Set:
  Basis Set: 6-31G*
  Basis Set:
  @DF-RHF Final Energy:  -383.93626728129868
    Total Energy =                       -383.9362672812984556
  Basis Set: 6-31G*
  Basis Set:
  @DF-RHF Final Energy:  -383.93493469807055
    Total Energy =                       -383.9349346980703785
  Basis Set: 6-31G*
  Basis Set:
  @DF-RHF Final Energy:  -383.93655999651014
    Total Energy =                       -383.9365599965100273
  Basis Set: 6-31G*
  Basis Set:
  Basis Set: 6-31G*
  Basis Set:
  @DF-RHF Final Energy:  -383.93662280392340
    Total Energy =                       -383.9366228039236830
  Basis Set: 6-31G*
  Basis Set:
  Basis Set: 6-31G*
  Basis Set:
  @DF-RHF Final Energy:  -383.93663132322945
    Total Energy =                       -383.9366313232289940
  Basis Set: 6-31G*
  Basis Set:
  Charge       = 0
  Multiplicity = 1
  Basis Set: 6-31G*
  Basis Set:

    Orbital Energies (a.u.)
    -----------------------

    Doubly Occupied:

       1A    -20.601718     2A    -20.544144     3A    -11.374553
       4A    -11.282442     5A    -11.233533     6A    -11.226299
       7A    -11.222880     8A    -11.209951     9A     -1.468078
      10A     -1.362263    11A     -1.081380    12A     -1.025993
      13A     -0.979549    14A     -0.892237    15A     -0.798093
      16A     -0.776286    17A     -0.689356    18A     -0.687906
      19A     -0.663843    20A     -0.626607    21A     -0.610479
      22A     -0.581583    23A     -0.569862    24A     -0.554602
      25A     -0.548988    26A     -0.526752    27A     -0.518231
      28A     -0.478872    29A     -0.475097    30A     -0.465689
      31A     -0.446041    32A     -0.437657

  @DF-RHF Final Energy:  -383.93663194748535

   => Energetics <=

    Nuclear Repulsion Energy =            394.7748542412304005
    One-Electron Energy =               -1305.5010446346618664
    Two-Electron Energy =                 526.7895584459461134
    DFT Exchange-Correlation Energy =       0.0000000000000000
    Empirical Dispersion Energy =           0.0000000000000000
    PCM Polarization Energy =               0.0000000000000000
    EFP Energy =                            0.0000000000000000
    Total Energy =                       -383.9366319474853526
    Molecular point group: c1
  Basis Set: 6-31G*
  Basis Set:

  -Total Gradient:
     Atom            X                  Y                   Z
    ------   -----------------  -----------------  -----------------
       1       -0.000027006987    -0.000049332379    -0.000005482292
       2        0.000063699360     0.000087115346     0.000012104495
       3       -0.000040355615     0.000005567110    -0.000013066149
       4       -0.000069578091    -0.000059887205     0.000007165570
       5       -0.000002255682    -0.000001515630     0.000005607922
       6       -0.000006539703     0.000012901771     0.000002835824
       7       -0.000003442008     0.000001236247     0.000003530661
       8       -0.000974017539     0.002403347088     0.001521025366
       9        0.000875285513    -0.003030180966    -0.002251939512
      10       -0.000012594319     0.000004087824     0.000010117705
      11       -0.000020212254     0.000010164647     0.000001906232
      12        0.003229041127    -0.001969900041     0.000730734711
      13        0.000019684528    -0.000001146437     0.000007508271
      14        0.000011342796     0.000010154370    -0.000014269693
      15       -0.000047110490     0.000035015500     0.000041418595
      16       -0.003041275355     0.002557616481    -0.000062548052
      17       -0.000005822930    -0.000035451992     0.000031326547
      18        0.000018777305     0.000005899971    -0.000006096784
      19        0.000004519863     0.000005781568    -0.000028033202
      20        0.000027860482     0.000008526730     0.000006153787

  **** Optimization is complete! (in 9 steps) ****
    Final optimized geometry and variables:
    Molecular point group: c1

    Geometry (in Angstrom), charge = 0, multiplicity = 1:

    O           -2.166954377441    -1.028379292708    -0.256934483017
    C           -1.682839397530    -0.030856736128     0.171015052937
    C           -2.437374289054     1.239064373411     0.458701959922
    O           -0.394312614074     0.095740187162     0.454852102926
    H           -2.041613507618     2.044464609023    -0.149541563534
    H           -3.485318497317     1.094735756903     0.242244522262
    H           -2.306466852207     1.517218616071     1.497949345393
    C            0.442556767050    -1.034664394921     0.228540966262
    C            1.865880776501    -0.672231762801     0.620538827300
    H            0.357470336257    -1.338442097599    -0.805476601823
    H            0.083665459773    -1.851943617811     0.839647577876
    C            2.662463449274     0.267780760391    -0.320997192452
    H            2.413222324684    -1.603922049545     0.731358946364
    H            1.814881214845    -0.235726632739     1.613159438030
    C            1.855139189862     1.115177984671    -1.310540125178
    H            3.231234999899     0.956714051009     0.295583733497
    H            3.383851627945    -0.318699501282    -0.881912731141
    H            2.532398943328     1.713634630107    -1.912250319890
    H            1.177339374059     1.788633059481    -0.800874673564
    H            1.270687860454     0.506138506236    -1.992328826675

  Mulliken Charges: (a.u.)
   Center  Symbol    Alpha    Beta     Spin     Total
       1     O     4.28338  4.28338  0.00000 -0.56675
       2     C     2.61888  2.61888  0.00000  0.76223
       3     C     3.28206  3.28206  0.00000 -0.56413
       4     O     4.30766  4.30766  0.00000 -0.61533
       5     H     0.40058  0.40058  0.00000  0.19884
       6     H     0.39679  0.39679  0.00000  0.20641
       7     H     0.40070  0.40070  0.00000  0.19859
       8     C     3.00751  3.00751  0.00000 -0.01503
       9     C     3.16716  3.16716  0.00000 -0.33432
      10     H     0.40875  0.40875  0.00000  0.18249
      11     H     0.40832  0.40832  0.00000  0.18335
      12     C     3.15619  3.15619  0.00000 -0.31239
      13     H     0.41521  0.41521  0.00000  0.16958
      14     H     0.41178  0.41178  0.00000  0.17643
      15     C     3.24187  3.24187  0.00000 -0.48373
      16     H     0.41777  0.41777  0.00000  0.16446
      17     H     0.41969  0.41969  0.00000  0.16062
      18     H     0.42022  0.42022  0.00000  0.15955
      19     H     0.41344  0.41344  0.00000  0.17311
      20     H     0.42200  0.42200  0.00000  0.15599

   Total alpha = 32.00000, Total beta = 32.00000, Total charge =  0.00000
