  ==> Input File <==

--------------------------------------------------------------------------
set {
	reference rhf
	basis 6-31G*
}

set_num_threads( 4 )
memory 2 gb

molecule MOL {
0 1

O	 3.027052	 1.086255	 0.734468
C	 2.843464	 0.164689	 -0.000222
C	 1.546494	 -0.624492	 -0.000609
C	 3.902596	 -0.280124	 -0.987915
C	 0.291004	 0.242674	 0.000989
H	 1.557904	 -1.283758	 -0.867573
H	 1.558622	 -1.285963	 0.864672
C	 -0.994322	 -0.586602	 0.000262
H	 0.309117	 0.896430	 -0.865270
H	 0.309661	 0.894078	 0.869017
C	 -2.259874	 0.272531	 0.000494
H	 -1.004862	 -1.240012	 -0.870939
H	 -1.005220	 -1.241071	 0.870675
C	 -3.549786	 -0.549746	 -0.000374
H	 -2.250389	 0.926680	 -0.869574
H	 -2.250838	 0.925513	 0.871430
C	 -4.809590	 0.315458	 -0.000369
H	 -3.560515	 -1.202009	 -0.871156
H	 -3.561123	 -1.202955	 0.869711
H	 -4.844746	 0.956611	 -0.876632
H	 -5.706986	 -0.295590	 -0.001609
H	 -4.845960	 0.954827	 0.877144
H	 3.520093	 -0.227595	 -2.003076
H	 4.774498	 0.352685	 -0.897509
H	 4.183435	 -1.312784	 -0.802508

	symmetry c1
}
set optking {
	frozen_dihedral = ("
		1 2 3 6
	")
}

ee = optimize('scf')
oeprop('DIPOLE', 'QUADRUPOLE', 'MULLIKEN_CHARGES')
f=open( 'psi4out.xyz', 'w' )
f.write( "25  " )
f.write( str(ee) + "\n" )
f.write( MOL.save_string_xyz() )
f.close()
--------------------------------------------------------------------------

    Molecular point group: c1
  Charge       = 0
  Multiplicity = 1
  Basis Set: 6-31G*
  Basis Set:
  @DF-RHF Final Energy:  -387.13445490285420
    Total Energy =                       -387.1344549028535766
    Molecular point group: c1
  Basis Set: 6-31G*
  Basis Set:
  Basis Set: 6-31G*
  Basis Set:
  @DF-RHF Final Energy:  -387.13430396956011
    Total Energy =                       -387.1343039695601647
  Basis Set: 6-31G*
  Basis Set:
  Basis Set: 6-31G*
  Basis Set:
  @DF-RHF Final Energy:  -387.13413732127566
    Total Energy =                       -387.1341373212760573
  Basis Set: 6-31G*
  Basis Set:
  Basis Set: 6-31G*
  Basis Set:
  @DF-RHF Final Energy:  -387.13501489061639
    Total Energy =                       -387.1350148906157074
  Basis Set: 6-31G*
  Basis Set:
  Basis Set: 6-31G*
  Basis Set:
  @DF-RHF Final Energy:  -387.13501829697123
    Total Energy =                       -387.1350182969712250
  Basis Set: 6-31G*
  Basis Set:
  Basis Set: 6-31G*
  Basis Set:
  @DF-RHF Final Energy:  -387.13501941875728
    Total Energy =                       -387.1350194187580200
  Basis Set: 6-31G*
  Basis Set:
  Charge       = 0
  Multiplicity = 1
  Basis Set: 6-31G*
  Basis Set:

    Orbital Energies (a.u.)
    -----------------------

    Doubly Occupied:

       1A    -20.548238     2A    -11.325841     3A    -11.230499
       4A    -11.228622     5A    -11.221762     6A    -11.218522
       7A    -11.216422     8A    -11.215063     9A    -11.209169
      10A     -1.394253    11A     -1.095012    12A     -1.056549
      13A     -1.014264    14A     -0.970061    15A     -0.891602
      16A     -0.815237    17A     -0.792370    18A     -0.730836
      19A     -0.664190    20A     -0.648903    21A     -0.634942
      22A     -0.615810    23A     -0.599184    24A     -0.585325
      25A     -0.567833    26A     -0.560281    27A     -0.540436
      28A     -0.532658    29A     -0.511648    30A     -0.493004
      31A     -0.487107    32A     -0.473081    33A     -0.465131
      34A     -0.464003    35A     -0.451055    36A     -0.396878

  @DF-RHF Final Energy:  -387.13501995378937

   => Energetics <=

    Nuclear Repulsion Energy =            438.3129401619140140
    One-Electron Energy =               -1393.1643413352117022
    Two-Electron Energy =                 567.7163812195077526
    DFT Exchange-Correlation Energy =       0.0000000000000000
    Empirical Dispersion Energy =           0.0000000000000000
    PCM Polarization Energy =               0.0000000000000000
    EFP Energy =                            0.0000000000000000
    Total Energy =                       -387.1350199537899925
    Molecular point group: c1
  Basis Set: 6-31G*
  Basis Set:

  -Total Gradient:
     Atom            X                  Y                   Z
    ------   -----------------  -----------------  -----------------
       1        0.000463012758    -0.000782132484     0.000910646115
       2       -0.000497929277     0.000831001309    -0.001086375677
       3       -0.000518430165     0.000852072807    -0.000530385538
       4       -0.000031577808     0.000016866223     0.000012730957
       5       -0.000010407236     0.000038302922    -0.000058652234
       6        0.000578402119    -0.000934367819     0.000723362919
       7        0.000014566009    -0.000007734036    -0.000011361059
       8        0.000007790661    -0.000009563824     0.000033410681
       9        0.000010356171     0.000004441862     0.000017545868
      10        0.000005014478    -0.000010546242    -0.000013467469
      11        0.000001628996     0.000000709424     0.000003107067
      12        0.000005124120     0.000005090871     0.000007493064
      13       -0.000011988124    -0.000009606091     0.000006101184
      14       -0.000002721022     0.000000400583    -0.000006766319
      15        0.000004185716     0.000004259896     0.000003507994
      16       -0.000003839545    -0.000003503059     0.000002255653
      17       -0.000000456597    -0.000000813728    -0.000003260882
      18       -0.000000553060    -0.000002970937    -0.000000546347
      19        0.000000590257     0.000002679566    -0.000000639784
      20       -0.000000637444     0.000000125565     0.000000184104
      21       -0.000000574058    -0.000000028673    -0.000000039561
      22        0.000000896537     0.000000054961    -0.000000001683
      23        0.000003332518    -0.000005081373    -0.000006640388
      24       -0.000005686433     0.000003939686    -0.000006586341
      25       -0.000010099569     0.000006402590     0.000004377671

  **** Optimization is complete! (in 7 steps) ****
    Final optimized geometry and variables:
    Molecular point group: c1

    Geometry (in Angstrom), charge = 0, multiplicity = 1:

    O            2.966847930431     1.060723022663     0.784005394044
    C            2.844389111980     0.152291406852     0.019979954868
    C            1.557246307796    -0.656265581157    -0.039484355284
    C            3.967898111515    -0.265071157306    -0.901501502389
    C            0.300911159546     0.218121275509    -0.024323764513
    H            1.565664912175    -1.315878832067    -0.902390959225
    H            1.562297214168    -1.302313314038     0.837231325801
    C           -0.988456174643    -0.603359160615     0.011459617213
    H            0.298540051517     0.858379946780    -0.904045565273
    H            0.348033818181     0.876476622205     0.835467142099
    C           -2.249001175100     0.263130973017     0.020620916346
    H           -1.018343178705    -1.272158003931    -0.847311427268
    H           -0.983948550217    -1.240811561555     0.894083432573
    C           -3.542864178541    -0.551983995109     0.061075378572
    H           -2.254196244378     0.900629566920    -0.861948956235
    H           -2.218789950502     0.932120862549     0.878706274806
    C           -4.797875230238     0.320090060666     0.068885912303
    H           -3.574066784870    -1.221119624487    -0.796325184316
    H           -3.540193184220    -1.187764326250     0.943913873293
    H           -4.847669635323     0.943510367034    -0.819415691412
    H           -5.698125996085    -0.285953740639     0.098244255992
    H           -4.813116238895     0.977200320325     0.933776589879
    H            3.660763980758    -0.144934498387    -1.937010062856
    H            4.846081392175     0.336081536671    -0.711570338311
    H            4.203144474374    -1.315990991522    -0.757665096481

  Mulliken Charges: (a.u.)
   Center  Symbol    Alpha    Beta     Spin     Total
       1     O     4.26362  4.26362  0.00000 -0.52724
       2     C     2.73419  2.73419  0.00000  0.53163
       3     C     3.20717  3.20717  0.00000 -0.41433
       4     C     3.28866  3.28866  0.00000 -0.57732
       5     C     3.15508  3.15508  0.00000 -0.31016
       6     H     0.41536  0.41536  0.00000  0.16928
       7     H     0.40338  0.40338  0.00000  0.19324
       8     C     3.15320  3.15320  0.00000 -0.30639
       9     H     0.42029  0.42029  0.00000  0.15941
      10     H     0.40260  0.40260  0.00000  0.19479
      11     C     3.15121  3.15121  0.00000 -0.30243
      12     H     0.42457  0.42457  0.00000  0.15087
      13     H     0.42257  0.42257  0.00000  0.15485
      14     C     3.15166  3.15166  0.00000 -0.30332
      15     H     0.42348  0.42348  0.00000  0.15304
      16     H     0.42146  0.42146  0.00000  0.15708
      17     C     3.23941  3.23941  0.00000 -0.47881
      18     H     0.42356  0.42356  0.00000  0.15288
      19     H     0.42283  0.42283  0.00000  0.15435
      20     H     0.42168  0.42168  0.00000  0.15665
      21     H     0.41926  0.41926  0.00000  0.16148
      22     H     0.42103  0.42103  0.00000  0.15795
      23     H     0.40784  0.40784  0.00000  0.18432
      24     H     0.39719  0.39719  0.00000  0.20562
      25     H     0.40871  0.40871  0.00000  0.18258

   Total alpha = 36.00000, Total beta = 36.00000, Total charge =  0.00000
