                              Psi4 1.0.54 Driver

  ==> Input File <==

--------------------------------------------------------------------------
set {
	reference rhf
	basis cc-pvtz
}

set_num_threads( 4 )
memory 2 gb

molecule MOL {
0 1

H	 -2.498963	 -0.741158	 -0.729149
O	 -2.346257	 -0.289210	 0.080372
C	 -1.183935	 0.486039	 -0.009831
C	 0.062853	 -0.375310	 0.027457
H	 -1.178881	 1.094526	 -0.908634
H	 -1.184406	 1.155156	 0.838676
O	 1.115957	 0.400570	 0.496959
H	 0.283059	 -0.754771	 -0.971750
H	 -0.108156	 -1.234600	 0.672400
C	 2.325516	 -0.273737	 0.613140
H	 2.660793	 -0.656998	 -0.348097
H	 3.060193	 0.425729	 0.984197
H	 2.250969	 -1.106375	 1.308609

	symmetry c1
}
set optking {
	frozen_dihedral = ("
		8 4 3 5
	")
}

ee,wfn = optimize('scf', return_wfn=True)
oeprop( wfn, 'DIPOLE', 'QUADRUPOLE', 'MULLIKEN_CHARGES')
f=open( 'psi4out.xyz', 'w' )
f.write( "13  " )
f.write( str(ee) + "\n" )
f.write( MOL.save_string_xyz() )
f.close()
--------------------------------------------------------------------------

    Molecular point group: c1
  Charge       = 0
  Multiplicity = 1
  Basis Set: CC-PVTZ
  Basis Set:
  @DF-RHF Final Energy:  -268.05991690293695
    Total Energy =                       -268.0599169029370046
    Molecular point group: c1
  Basis Set: CC-PVTZ
  Basis Set:
  Basis Set: CC-PVTZ
  Basis Set:
  @DF-RHF Final Energy:  -268.06025513922737
    Total Energy =                       -268.0602551392275359
  Basis Set: CC-PVTZ
  Basis Set:
  Basis Set: CC-PVTZ
  Basis Set:
  @DF-RHF Final Energy:  -268.06032789387370
    Total Energy =                       -268.0603278938738185
  Basis Set: CC-PVTZ
  Basis Set:
  Basis Set: CC-PVTZ
  Basis Set:
  @DF-RHF Final Energy:  -268.06033027093156
    Total Energy =                       -268.0603302709317290
  Basis Set: CC-PVTZ
  Basis Set:
  Charge       = 0
  Multiplicity = 1
  Basis Set: CC-PVTZ
  Basis Set:

    Orbital Energies (a.u.)
    -----------------------

    Doubly Occupied:

       1A    -20.554544     2A    -20.551686     3A    -11.268739
       4A    -11.267780     5A    -11.266727     6A     -1.390062
       7A     -1.367453     8A     -1.018549     9A     -0.912834
      10A     -0.842348    11A     -0.711599    12A     -0.672528
      13A     -0.663639    14A     -0.643062    15A     -0.587178
      16A     -0.573258    17A     -0.548995    18A     -0.490414
      19A     -0.483174    20A     -0.441272    21A     -0.423792

  @DF-RHF Final Energy:  -268.06033068492201

   => Energetics <=

    Nuclear Repulsion Energy =            190.3491477600238682
    One-Electron Energy =                -743.4596849105721503
    Two-Electron Energy =                 285.0502064656262746
    DFT Exchange-Correlation Energy =       0.0000000000000000
    Empirical Dispersion Energy =           0.0000000000000000
    PCM Polarization Energy =               0.0000000000000000
    EFP Energy =                            0.0000000000000000
    Total Energy =                       -268.0603306849219507
    Molecular point group: c1
  Basis Set: CC-PVTZ
  Basis Set:

  -Total Gradient:
     Atom            X                  Y                   Z
    ------   -----------------  -----------------  -----------------
       1        0.000013205527    -0.000015210222    -0.000012027786
       2       -0.000033183132     0.000014164168     0.000026414501
       3        0.003216276405     0.004911653306     0.002525885109
       4       -0.003622715290    -0.005266983032     0.000333643915
       5       -0.002072562956    -0.003191548468    -0.002171610482
       6       -0.000012078964    -0.000009760163    -0.000005235891
       7        0.000021246960     0.000039140248     0.000018901204
       8        0.002480880734     0.003531383540    -0.000692512868
       9        0.000009185627     0.000001628710    -0.000014483402
      10        0.000000613664    -0.000015212004    -0.000019128060
      11        0.000004523444    -0.000001652342     0.000002563431
      12       -0.000012779229     0.000003344418     0.000003872200
      13        0.000007387203    -0.000000948156     0.000003718130

  **** Optimization is complete! (in 5 steps) ****
    Final optimized geometry and variables:
    Molecular point group: c1

    Geometry (in Angstrom), charge = 0, multiplicity = 1:

    H           -2.467710260040    -0.682452833708    -1.047646709765
    O           -2.328830070994    -0.276179008392    -0.212063719947
    C           -1.160289932979     0.501012705060    -0.235489726916
    C            0.088016938994    -0.363440154170    -0.161698904928
    H           -1.142185118899     1.111544914050    -1.132185754346
    H           -1.190670868289     1.148376067647     0.627524007992
    O            1.136320577824     0.431011573496     0.298166002105
    H            0.344242640250    -0.751801342483    -1.147653251521
    H           -0.092665472475    -1.198862562309     0.509264460904
    C            2.363447444060    -0.216452773481     0.367904234718
    H            2.686990116482    -0.563834033112    -0.610966833339
    H            3.089519854128     0.489527869282     0.743681705532
    H            2.324677170475    -1.070589949861     1.040160973500

  Mulliken Charges: (a.u.)
   Center  Symbol    Alpha    Beta     Spin     Total
       1     H     0.39468  0.39468  0.00000  0.21063
       2     O     4.20151  4.20151  0.00000 -0.40303
       3     C     2.97310  2.97310  0.00000  0.05380
       4     C     2.96862  2.96862  0.00000  0.06277
       5     H     0.46689  0.46689  0.00000  0.06622
       6     H     0.45127  0.45127  0.00000  0.09746
       7     O     4.17521  4.17521  0.00000 -0.35042
       8     H     0.48108  0.48108  0.00000  0.03785
       9     H     0.46855  0.46855  0.00000  0.06291
      10     C     3.03097  3.03097  0.00000 -0.06193
      11     H     0.47169  0.47169  0.00000  0.05662
      12     H     0.44600  0.44600  0.00000  0.10801
      13     H     0.47044  0.47044  0.00000  0.05913

   Total alpha = 21.00000, Total beta = 21.00000, Total charge = -0.00000

*** Psi4 exiting successfully. Buy a developer a beer!
