  ==> Input File <==

--------------------------------------------------------------------------
set {
	reference rhf
	basis 6-31G*
}

set_num_threads( 1 )
memory 2 gb

molecule MOL {
0 1

H	 -2.212308	 0.088660	 -1.006375
N	 -1.852125	 0.165761	 -0.074816
C	 -0.563778	 -0.502042	 0.037919
H	 -2.524572	 -0.263363	 0.532163
C	 0.575259	 0.508231	 -0.048326
H	 -0.482092	 -1.204004	 -0.786564
H	 -0.460411	 -1.085169	 0.956626
C	 1.954651	 -0.143624	 0.035137
H	 0.475158	 1.060484	 -0.977307
H	 0.469181	 1.234488	 0.755973
H	 2.103292	 -0.853109	 -0.774172
H	 2.742821	 0.599562	 -0.030094
H	 2.083613	 -0.679371	 0.971560

	symmetry c1
}
set optking {
	frozen_dihedral = ("
		6 3 5 9
	")
}

ee = energy('scf')
oeprop('DIPOLE', 'QUADRUPOLE', 'MULLIKEN_CHARGES')
f=open( 'psi4out.xyz', 'w' )
f.write( "13  " )
f.write( str(ee) + "\n" )
f.write( MOL.save_string_xyz() )
f.close()
--------------------------------------------------------------------------

    Molecular point group: c1

    Geometry (in Angstrom), charge = 0, multiplicity = 1:

       Center              X                  Y                   Z               Mass
    ------------   -----------------  -----------------  -----------------  -----------------
           H         -2.210107284186     0.096082960340    -0.987552908093     1.007825032070
           N         -1.849924284186     0.173183960340    -0.055993908093    14.003074004780
           C         -0.561577284186    -0.494619039660     0.056741091907    12.000000000000
           H         -2.522371284186    -0.255940039660     0.550985091907     1.007825032070
           C          0.577459715814     0.515653960340    -0.029503908093    12.000000000000
           H         -0.479891284186    -1.196581039660    -0.767741908093     1.007825032070
           H         -0.458210284186    -1.077746039660     0.975448091907     1.007825032070
           C          1.956851715814    -0.136201039660     0.053959091907    12.000000000000
           H          0.477358715814     1.067906960340    -0.958484908093     1.007825032070
           H          0.471381715814     1.241910960340     0.774795091907     1.007825032070
           H          2.105492715814    -0.845686039660    -0.755349908093     1.007825032070
           H          2.745021715814     0.606984960340    -0.011271908093     1.007825032070
           H          2.085813715814    -0.671948039660     0.990382091907     1.007825032070

  Charge       = 0
  Multiplicity = 1
  Basis Set: 6-31G*
  Basis Set:

    Orbital Energies (a.u.)
    -----------------------

    Doubly Occupied:

       1A    -15.531727     2A    -11.240495     3A    -11.206079
       4A    -11.205481     5A     -1.176494     6A     -1.032291
       7A     -0.897302     8A     -0.793985     9A     -0.673394
      10A     -0.612859    11A     -0.602581    12A     -0.573209
      13A     -0.521118    14A     -0.488389    15A     -0.483294
      16A     -0.463263    17A     -0.377967

  @DF-RHF Final Energy:  -173.27860855107355

   => Energetics <=

    Nuclear Repulsion Energy =            131.6527182699655327
    One-Electron Energy =                -494.1029049804888018
    Two-Electron Energy =                 189.1715781594495240
    DFT Exchange-Correlation Energy =       0.0000000000000000
    Empirical Dispersion Energy =           0.0000000000000000
    PCM Polarization Energy =               0.0000000000000000
    EFP Energy =                            0.0000000000000000
    Total Energy =                       -173.2786085510737450

  Mulliken Charges: (a.u.)
   Center  Symbol    Alpha    Beta     Spin     Total
       1     H     0.33218  0.33218  0.00000  0.33563
       2     N     3.92313  3.92313  0.00000 -0.84627
       3     C     3.06801  3.06801  0.00000 -0.13602
       4     H     0.33208  0.33208  0.00000  0.33584
       5     C     3.13965  3.13965  0.00000 -0.27929
       6     H     0.43067  0.43067  0.00000  0.13867
       7     H     0.42288  0.42288  0.00000  0.15423
       8     C     3.24571  3.24571  0.00000 -0.49141
       9     H     0.42328  0.42328  0.00000  0.15345
      10     H     0.41768  0.41768  0.00000  0.16465
      11     H     0.42355  0.42355  0.00000  0.15291
      12     H     0.41809  0.41809  0.00000  0.16383
      13     H     0.42310  0.42310  0.00000  0.15380

   Total alpha = 17.00000, Total beta = 17.00000, Total charge = -0.00000
