                              Psi4 1.0.54 Driver

  ==> Input File <==

--------------------------------------------------------------------------
set {
	reference rhf
	basis cc-pvtz
}

set_num_threads( 4 )
memory 2 gb

molecule MOL {
0 1

H	 -3.436473	 1.252944	 -1.023892
O	 -3.458596	 0.315260	 -0.960865
C	 -3.176635	 -0.080824	 0.355601
C	 -1.763371	 0.265266	 0.799691
H	 -3.321825	 -1.153438	 0.379502
H	 -3.895468	 0.357385	 1.043382
C	 -0.673390	 -0.426948	 -0.013392
H	 -1.631049	 1.344913	 0.747560
H	 -1.664587	 -0.001624	 1.849167
C	 0.634187	 0.359331	 -0.057854
H	 -1.032185	 -0.593905	 -1.022998
H	 -0.487637	 -1.411081	 0.410264
C	 1.722437	 -0.341307	 -0.868943
H	 0.439100	 1.343938	 -0.471836
H	 0.993321	 0.520562	 0.956486
C	 3.077392	 0.368543	 -0.876530
H	 1.379915	 -0.468756	 -1.893289
H	 1.861186	 -1.342627	 -0.470539
C	 3.085886	 1.720321	 -1.586297
H	 3.801933	 -0.280869	 -1.358277
H	 3.420444	 0.497060	 0.146807
H	 2.741443	 1.623847	 -2.611055
H	 4.087579	 2.133990	 -1.613326
H	 2.449425	 2.443222	 -1.090377

	symmetry c1
}
set optking {
	frozen_dihedral = ("
		11 7 4 3
	")
}

ee,wfn = optimize('scf', return_wfn=True)
oeprop( wfn, 'DIPOLE', 'QUADRUPOLE', 'MULLIKEN_CHARGES')
f=open( 'psi4out.xyz', 'w' )
f.write( "24  " )
f.write( str(ee) + "\n" )
f.write( MOL.save_string_xyz() )
f.close()
--------------------------------------------------------------------------

    Molecular point group: c1
  Charge       = 0
  Multiplicity = 1
  Basis Set: CC-PVTZ
  Basis Set:
  @DF-RHF Final Energy:  -349.37837153554932
    Total Energy =                       -349.3783715355497179
    Molecular point group: c1
  Basis Set: CC-PVTZ
  Basis Set:
  Basis Set: CC-PVTZ
  Basis Set:
  @DF-RHF Final Energy:  -349.37850984422869
    Total Energy =                       -349.3785098442285744
  Basis Set: CC-PVTZ
  Basis Set:
  Basis Set: CC-PVTZ
  Basis Set:
  @DF-RHF Final Energy:  -349.37856163254412
    Total Energy =                       -349.3785616325443470
  Basis Set: CC-PVTZ
  Basis Set:
  Basis Set: CC-PVTZ
  Basis Set:
  @DF-RHF Final Energy:  -349.37856301327383
    Total Energy =                       -349.3785630132735491
  Basis Set: CC-PVTZ
  Basis Set:
  Basis Set: CC-PVTZ
  Basis Set:
  @DF-RHF Final Energy:  -349.37856404076751
    Total Energy =                       -349.3785640407675146
  Basis Set: CC-PVTZ
  Basis Set:
  Charge       = 0
  Multiplicity = 1
  Basis Set: CC-PVTZ
  Basis Set:

    Orbital Energies (a.u.)
    -----------------------

    Doubly Occupied:

       1A    -20.546933     2A    -11.265774     3A    -11.215103
       4A    -11.211983     5A    -11.210269     6A    -11.209202
       7A    -11.208377     8A    -11.205093     9A     -1.364990
      10A     -1.089159    11A     -1.048588    12A     -0.986712
      13A     -0.915713    14A     -0.851327    15A     -0.802350
      16A     -0.776750    17A     -0.682284    18A     -0.653091
      19A     -0.625415    20A     -0.622848    21A     -0.597793
      22A     -0.584451    23A     -0.561193    24A     -0.536969
      25A     -0.519236    26A     -0.513855    27A     -0.497053
      28A     -0.471297    29A     -0.467384    30A     -0.458978
      31A     -0.455290    32A     -0.452109    33A     -0.422360

  @DF-RHF Final Energy:  -349.37856415019047

   => Energetics <=

    Nuclear Repulsion Energy =            386.1868406838219130
    One-Electron Energy =               -1239.0709411617822298
    Two-Electron Energy =                 503.5055363277696188
    DFT Exchange-Correlation Energy =       0.0000000000000000
    Empirical Dispersion Energy =           0.0000000000000000
    PCM Polarization Energy =               0.0000000000000000
    EFP Energy =                            0.0000000000000000
    Total Energy =                       -349.3785641501907548
    Molecular point group: c1
  Basis Set: CC-PVTZ
  Basis Set:

  -Total Gradient:
     Atom            X                  Y                   Z
    ------   -----------------  -----------------  -----------------
       1       -0.000006133031    -0.000007647399    -0.000026195976
       2        0.000011526029     0.000041106615     0.000003159545
       3       -0.000051147401     0.002093579142    -0.001671715169
       4       -0.000232539148    -0.003741412922     0.002536390472
       5        0.000016966206     0.000005648084     0.000024225274
       6       -0.000005145744    -0.000015325704     0.000006252458
       7        0.001526731518     0.004938876190    -0.001818276451
       8       -0.000002186640     0.000011266852     0.000009738415
       9        0.000003296305    -0.000006633033    -0.000012172356
      10       -0.000036880495    -0.000020656325     0.000011797714
      11       -0.001245620309    -0.003286468480     0.000942592743
      12        0.000016493008     0.000008719658     0.000018630804
      13       -0.000002750925     0.000020715625    -0.000019617875
      14       -0.000005986091    -0.000057137775     0.000026159614
      15       -0.000014298152     0.000001482695    -0.000033356263
      16        0.000009741337    -0.000004956140     0.000011062068
      17        0.000007385295     0.000005252963     0.000019979072
      18        0.000003914534     0.000015642367    -0.000017320558
      19       -0.000005721453     0.000000700653    -0.000013982662
      20        0.000002963230     0.000001395644     0.000008586294
      21       -0.000009546187     0.000000413655    -0.000001121714
      22       -0.000000233768     0.000005756675     0.000006333184
      23       -0.000006120995    -0.000006768880    -0.000003921465
      24        0.000025292878    -0.000003550159    -0.000007227173

  **** Optimization is complete! (in 6 steps) ****
    Final optimized geometry and variables:
    Molecular point group: c1

    Geometry (in Angstrom), charge = 0, multiplicity = 1:

    H           -3.344075305502     0.980606024649    -0.552126278599
    O           -3.358996179839     0.041303011426    -0.517817783864
    C           -3.056200409980    -0.392879937938     0.781221116916
    C           -1.642227120257    -0.033739172920     1.214572620655
    H           -3.186032332977    -1.468035497068     0.771486056732
    H           -3.772987608621     0.011397076537     1.491399053139
    C           -0.550000639601    -0.698255099492     0.371035309562
    H           -1.540548445782     1.049178476363     1.157929493231
    H           -1.519163094694    -0.291205088643     2.262452526987
    C            0.762223976773     0.078776495436     0.342621056036
    H           -0.919236540504    -0.852099396461    -0.636567058184
    H           -0.364031440905    -1.694307249403     0.766308365712
    C            1.860339405596    -0.632995373105    -0.444601095474
    H            0.577703907593     1.060786823056    -0.081573582009
    H            1.104417972397     0.246235861656     1.362066940181
    C            3.215367865355     0.076957884597    -0.445964647467
    H            1.529981129402    -0.775206458544    -1.470975451349
    H            1.994413949264    -1.628351279325    -0.030115753362
    C            3.234119031548     1.416065157727    -1.179241070680
    H            3.946331095139    -0.580666723698    -0.906381296299
    H            3.544505040397     0.223205472349     0.579584142955
    H            2.901052159811     1.302139746458    -2.205906699557
    H            4.236752327151     1.827695774882    -1.202152295496
    H            2.593410717121     2.148621830270    -0.703407230364

  Mulliken Charges: (a.u.)
   Center  Symbol    Alpha    Beta     Spin     Total
       1     H     0.39555  0.39555  0.00000  0.20890
       2     O     4.20260  4.20260  0.00000 -0.40519
       3     C     2.97797  2.97797  0.00000  0.04405
       4     C     3.10071  3.10071  0.00000 -0.20142
       5     H     0.45805  0.45805  0.00000  0.08390
       6     H     0.45996  0.45996  0.00000  0.08007
       7     C     3.09419  3.09419  0.00000 -0.18837
       8     H     0.46172  0.46172  0.00000  0.07655
       9     H     0.45074  0.45074  0.00000  0.09852
      10     C     3.09042  3.09042  0.00000 -0.18083
      11     H     0.44383  0.44383  0.00000  0.11234
      12     H     0.45499  0.45499  0.00000  0.09003
      13     C     3.09506  3.09506  0.00000 -0.19012
      14     H     0.45387  0.45387  0.00000  0.09226
      15     H     0.45541  0.45541  0.00000  0.08918
      16     C     3.09010  3.09010  0.00000 -0.18019
      17     H     0.45284  0.45284  0.00000  0.09432
      18     H     0.44985  0.44985  0.00000  0.10029
      19     C     3.15231  3.15231  0.00000 -0.30462
      20     H     0.44866  0.44866  0.00000  0.10267
      21     H     0.45536  0.45536  0.00000  0.08928
      22     H     0.45455  0.45455  0.00000  0.09089
      23     H     0.44674  0.44674  0.00000  0.10652
      24     H     0.45451  0.45451  0.00000  0.09097

   Total alpha = 33.00000, Total beta = 33.00000, Total charge = -0.00000

*** Psi4 exiting successfully. Buy a developer a beer!
