  ==> Input File <==

--------------------------------------------------------------------------
set {
	reference rhf
	basis 6-31G*
}

set_num_threads( 1 )
memory 2 gb

molecule MOL {
0 1

O	 2.520214	 0.067785	 0.865725
C	 1.705091	 0.115954	 0.001797
C	 0.381791	 -0.609817	 0.001258
O	 1.857836	 0.837773	 -1.101282
C	 -0.823008	 0.326187	 0.001381
H	 0.371250	 -1.265087	 -0.865474
H	 0.370908	 -1.265746	 0.867490
C	 -2.149452	 -0.435131	 -0.000098
H	 -0.770201	 0.977095	 -0.865636
H	 -0.771220	 0.975655	 0.869608
C	 -3.368779	 0.488503	 -0.000883
H	 -2.193746	 -1.087250	 -0.871175
H	 -2.195311	 -1.087803	 0.870418
C	 -4.693822	 -0.272754	 -0.001129
H	 -3.325798	 1.139422	 -0.871284
H	 -3.326423	 1.139959	 0.869145
H	 -4.781274	 -0.907928	 -0.878124
H	 -5.538651	 0.408946	 -0.001420
H	 -4.781694	 -0.907783	 0.875984
C	 3.061366	 1.573145	 -1.226572
H	 3.156516	 2.286481	 -0.420579
H	 2.996914	 2.085493	 -2.173789
H	 3.914595	 0.910266	 -1.216656

	symmetry c1
}
set optking {
	frozen_dihedral = ("
		15 11 8 12,
		9 5 8 12,
		9 5 3 6,
		1 2 4 20
	")
}

ee = energy('scf')
oeprop('DIPOLE', 'QUADRUPOLE', 'MULLIKEN_CHARGES')
f=open( 'psi4out.xyz', 'w' )
f.write( "23  " )
f.write( str(ee) + "\n" )
f.write( MOL.save_string_xyz() )
f.close()
--------------------------------------------------------------------------

    Molecular point group: c1

    Geometry (in Angstrom), charge = 0, multiplicity = 1:

       Center              X                  Y                   Z               Mass
    ------------   -----------------  -----------------  -----------------  -----------------
           O          2.655659655003    -0.179300770418     1.037132298049    15.994914619560
           C          1.840536655003    -0.131131770418     0.173204298049    12.000000000000
           C          0.517236655003    -0.856902770418     0.172665298049    12.000000000000
           O          1.993281655003     0.590687229582    -0.929874701951    15.994914619560
           C         -0.687562344997     0.079101229582     0.172788298049    12.000000000000
           H          0.506695655003    -1.512172770418    -0.694066701951     1.007825032070
           H          0.506353655003    -1.512831770418     1.038897298049     1.007825032070
           C         -2.014006344997    -0.682216770418     0.171309298049    12.000000000000
           H         -0.634755344997     0.730009229582    -0.694228701951     1.007825032070
           H         -0.635774344997     0.728569229582     1.041015298049     1.007825032070
           C         -3.233333344997     0.241417229582     0.170524298049    12.000000000000
           H         -2.058300344997    -1.334335770418    -0.699767701951     1.007825032070
           H         -2.059865344997    -1.334888770418     1.041825298049     1.007825032070
           C         -4.558376344997    -0.519839770418     0.170278298049    12.000000000000
           H         -3.190352344997     0.892336229582    -0.699876701951     1.007825032070
           H         -3.190977344997     0.892873229582     1.040552298049     1.007825032070
           H         -4.645828344997    -1.155013770418    -0.706716701951     1.007825032070
           H         -5.403205344997     0.161860229582     0.169987298049     1.007825032070
           H         -4.646248344997    -1.154868770418     1.047391298049     1.007825032070
           C          3.196811655003     1.326059229582    -1.055164701951    12.000000000000
           H          3.291961655003     2.039395229582    -0.249171701951     1.007825032070
           H          3.132359655003     1.838407229582    -2.002381701951     1.007825032070
           H          4.050040655003     0.663180229582    -1.045248701951     1.007825032070

  Charge       = 0
  Multiplicity = 1
  Basis Set: 6-31G*
  Basis Set:

    Orbital Energies (a.u.)
    -----------------------

    Doubly Occupied:

       1A    -20.604047     2A    -20.544083     3A    -11.371018
       4A    -11.280823     5A    -11.233872     6A    -11.227773
       7A    -11.221865     8A    -11.219954     9A    -11.212170
      10A     -1.468931    11A     -1.361573    12A     -1.097751
      13A     -1.046049    14A     -0.984265    15A     -0.934649
      16A     -0.848240    17A     -0.799019    18A     -0.773549
      19A     -0.693521    20A     -0.680356    21A     -0.672807
      22A     -0.652994    23A     -0.607583    24A     -0.593029
      25A     -0.580202    26A     -0.571016    27A     -0.544299
      28A     -0.530910    29A     -0.523919    30A     -0.508168
      31A     -0.489603    32A     -0.478004    33A     -0.470462
      34A     -0.468946    35A     -0.454221    36A     -0.426893

  @DF-RHF Final Energy:  -422.97473336140126

   => Energetics <=

    Nuclear Repulsion Energy =            455.0966383379642366
    One-Electron Energy =               -1477.7896956041147405
    Two-Electron Energy =                 599.7183239047503776
    DFT Exchange-Correlation Energy =       0.0000000000000000
    Empirical Dispersion Energy =           0.0000000000000000
    PCM Polarization Energy =               0.0000000000000000
    EFP Energy =                            0.0000000000000000
    Total Energy =                       -422.9747333614001263

  Mulliken Charges: (a.u.)
   Center  Symbol    Alpha    Beta     Spin     Total
       1     O     4.28507  4.28507  0.00000 -0.57015
       2     C     2.61579  2.61579  0.00000  0.76841
       3     C     3.19690  3.19690  0.00000 -0.39381
       4     O     4.30195  4.30195  0.00000 -0.60391
       5     C     3.16375  3.16375  0.00000 -0.32749
       6     H     0.40462  0.40462  0.00000  0.19076
       7     H     0.39978  0.39978  0.00000  0.20044
       8     C     3.15261  3.15261  0.00000 -0.30522
       9     H     0.40777  0.40777  0.00000  0.18446
      10     H     0.41407  0.41407  0.00000  0.17187
      11     C     3.15232  3.15232  0.00000 -0.30465
      12     H     0.42180  0.42180  0.00000  0.15639
      13     H     0.42109  0.42109  0.00000  0.15782
      14     C     3.23985  3.23985  0.00000 -0.47971
      15     H     0.42175  0.42175  0.00000  0.15651
      16     H     0.42149  0.42149  0.00000  0.15701
      17     H     0.42128  0.42128  0.00000  0.15743
      18     H     0.41816  0.41816  0.00000  0.16368
      19     H     0.42093  0.42093  0.00000  0.15815
      20     C     3.09237  3.09237  0.00000 -0.18474
      21     H     0.40894  0.40894  0.00000  0.18213
      22     H     0.40888  0.40888  0.00000  0.18224
      23     H     0.40881  0.40881  0.00000  0.18238

   Total alpha = 36.00000, Total beta = 36.00000, Total charge =  0.00000
