  ==> Input File <==

--------------------------------------------------------------------------
set {
	reference rhf
	basis 6-31G*
}

set_num_threads( 1 )
memory 2 gb

molecule MOL {
0 1

H	 2.591676	 2.013956	 0.335017
O	 3.341076	 1.666752	 -0.126416
C	 3.569581	 0.339145	 0.272707
C	 5.038165	 -0.064916	 0.203984
H	 3.220310	 0.274973	 1.295236
H	 2.964082	 -0.346289	 -0.319180
C	 5.621047	 -0.054128	 -1.211290
H	 5.610471	 0.605856	 0.839513
H	 5.135320	 -1.063190	 0.627513
C	 7.080335	 -0.516221	 -1.253330
H	 5.546335	 0.949492	 -1.620594
H	 5.023121	 -0.700391	 -1.854073
C	 7.687190	 -0.605768	 -2.658338
H	 7.684975	 0.151333	 -0.642079
H	 7.146406	 -1.496830	 -0.786701
C	 7.846734	 0.736200	 -3.378160
H	 8.665670	 -1.074859	 -2.578664
H	 7.081572	 -1.273224	 -3.269539
C	 8.551834	 0.607368	 -4.730075
H	 8.410195	 1.419058	 -2.743868
H	 6.873659	 1.196307	 -3.532207
C	 8.706648	 1.944603	 -5.453609
H	 9.533094	 0.161247	 -4.583131
H	 7.995513	 -0.082103	 -5.361757
H	 9.287099	 2.646108	 -4.860995
H	 9.211322	 1.820459	 -6.406776
H	 7.739539	 2.399609	 -5.648627

	symmetry c1
}
set optking {
	frozen_dihedral = ("
		14 10 7 4,
		14 10 13 16,
		10 7 4 8,
		8 4 3 2,
		10 13 16 20,
		20 16 19 22
	")
}

ee = energy('scf')
oeprop('DIPOLE', 'QUADRUPOLE', 'MULLIKEN_CHARGES')
f=open( 'psi4out.xyz', 'w' )
f.write( "27  " )
f.write( str(ee) + "\n" )
f.write( MOL.save_string_xyz() )
f.close()
--------------------------------------------------------------------------

    Molecular point group: c1

    Geometry (in Angstrom), charge = 0, multiplicity = 1:

       Center              X                  Y                   Z               Mass
    ------------   -----------------  -----------------  -----------------  -----------------
           H         -3.734915362189     1.530184717663     2.347929829422     1.007825032070
           O         -2.985515362189     1.182980717663     1.886496829422    15.994914619560
           C         -2.757010362189    -0.144626282337     2.285619829422    12.000000000000
           C         -1.288426362189    -0.548687282337     2.216896829422    12.000000000000
           H         -3.106281362189    -0.208798282337     3.308148829422     1.007825032070
           H         -3.362509362189    -0.830060282337     1.693732829422     1.007825032070
           C         -0.705544362189    -0.537899282337     0.801622829422    12.000000000000
           H         -0.716120362189     0.122084717663     2.852425829422     1.007825032070
           H         -1.191271362189    -1.546961282337     2.640425829422     1.007825032070
           C          0.753743637811    -0.999992282337     0.759582829422    12.000000000000
           H         -0.780256362189     0.465720717663     0.392318829422     1.007825032070
           H         -1.303470362189    -1.184162282337     0.158839829422     1.007825032070
           C          1.360598637811    -1.089539282337    -0.645425170578    12.000000000000
           H          1.358383637811    -0.332438282337     1.370833829422     1.007825032070
           H          0.819814637811    -1.980601282337     1.226211829422     1.007825032070
           C          1.520142637811     0.252428717663    -1.365247170578    12.000000000000
           H          2.339078637811    -1.558630282337    -0.565751170578     1.007825032070
           H          0.754980637811    -1.756995282337    -1.256626170578     1.007825032070
           C          2.225242637811     0.123596717663    -2.717162170578    12.000000000000
           H          2.083603637811     0.935286717663    -0.730955170578     1.007825032070
           H          0.547067637811     0.712535717663    -1.519294170578     1.007825032070
           C          2.380056637811     1.460831717663    -3.440696170578    12.000000000000
           H          3.206502637811    -0.322524282337    -2.570218170578     1.007825032070
           H          1.668921637811    -0.565874282337    -3.348844170578     1.007825032070
           H          2.960507637811     2.162336717663    -2.848082170578     1.007825032070
           H          2.884730637811     1.336687717663    -4.393863170578     1.007825032070
           H          1.412947637811     1.915837717663    -3.635714170578     1.007825032070

  Charge       = 0
  Multiplicity = 1
  Basis Set: 6-31G*
  Basis Set:

    Orbital Energies (a.u.)
    -----------------------

    Doubly Occupied:

       1A    -20.550210     2A    -11.267768     3A    -11.214483
       4A    -11.210595     5A    -11.209678     6A    -11.209068
       7A    -11.207566     8A    -11.207406     9A    -11.204471
      10A     -1.358150    11A     -1.088182    12A     -1.056096
      13A     -1.007493    14A     -0.942649    15A     -0.879558
      16A     -0.812163    17A     -0.795032    18A     -0.770948
      19A     -0.699570    20A     -0.646757    21A     -0.640342
      22A     -0.612375    23A     -0.587542    24A     -0.581147
      25A     -0.569996    26A     -0.544561    27A     -0.539535
      28A     -0.517604    29A     -0.504429    30A     -0.496989
      31A     -0.475771    32A     -0.470493    33A     -0.459447
      34A     -0.453818    35A     -0.441015    36A     -0.430360
      37A     -0.427956

  @DF-RHF Final Energy:  -388.27952434862954

   => Energetics <=

    Nuclear Repulsion Energy =            458.3097952623107290
    One-Electron Energy =               -1434.9961070275469410
    Two-Electron Energy =                 588.4067874166073580
    DFT Exchange-Correlation Energy =       0.0000000000000000
    Empirical Dispersion Energy =           0.0000000000000000
    PCM Polarization Energy =               0.0000000000000000
    EFP Energy =                            0.0000000000000000
    Total Energy =                       -388.2795243486289110

  Mulliken Charges: (a.u.)
   Center  Symbol    Alpha    Beta     Spin     Total
       1     H     0.27934  0.27934  0.00000  0.44133
       2     O     4.37308  4.37308  0.00000 -0.74616
       3     C     2.99300  2.99300  0.00000  0.01400
       4     C     3.15955  3.15955  0.00000 -0.31909
       5     H     0.43259  0.43259  0.00000  0.13482
       6     H     0.43041  0.43041  0.00000  0.13918
       7     C     3.15715  3.15715  0.00000 -0.31429
       8     H     0.41737  0.41737  0.00000  0.16527
       9     H     0.42354  0.42354  0.00000  0.15291
      10     C     3.15337  3.15337  0.00000 -0.30674
      11     H     0.40709  0.40709  0.00000  0.18583
      12     H     0.42594  0.42594  0.00000  0.14813
      13     C     3.15273  3.15273  0.00000 -0.30546
      14     H     0.42373  0.42373  0.00000  0.15255
      15     H     0.42454  0.42454  0.00000  0.15092
      16     C     3.15302  3.15302  0.00000 -0.30605
      17     H     0.42294  0.42294  0.00000  0.15413
      18     H     0.42449  0.42449  0.00000  0.15102
      19     C     3.15101  3.15101  0.00000 -0.30203
      20     H     0.42464  0.42464  0.00000  0.15073
      21     H     0.42007  0.42007  0.00000  0.15985
      22     C     3.23906  3.23906  0.00000 -0.47812
      23     H     0.42399  0.42399  0.00000  0.15202
      24     H     0.42357  0.42357  0.00000  0.15285
      25     H     0.42204  0.42204  0.00000  0.15591
      26     H     0.42028  0.42028  0.00000  0.15943
      27     H     0.42147  0.42147  0.00000  0.15706

   Total alpha = 37.00000, Total beta = 37.00000, Total charge =  0.00000
