                              Psi4 1.0.54 Driver

  ==> Input File <==

--------------------------------------------------------------------------
set {
	reference rhf
	basis cc-pvtz
}

set_num_threads( 4 )
memory 2 gb

molecule MOL {
0 1

H	 -3.941973	 0.934228	 -0.390224
C	 -3.240162	 0.342701	 0.161016
C	 -2.105997	 -0.000418	 -0.398703
H	 -3.485368	 0.047206	 1.162193
O	 -1.189946	 -0.765863	 0.237511
H	 -1.846458	 0.297311	 -1.398265
C	 0.026572	 -0.995256	 -0.379403
C	 1.057223	 0.049888	 -0.004615
H	 -0.054361	 -1.010670	 -1.459674
H	 0.397526	 -1.952058	 -0.044198
F	 0.462010	 1.214429	 0.158620
F	 1.670235	 -0.246630	 1.121352
F	 1.973730	 0.192706	 -0.930938

	symmetry c1
}
set optking {
	frozen_dihedral = ("
		11 8 7 9
	")
}

ee,wfn = optimize('scf', return_wfn=True)
oeprop( wfn, 'DIPOLE', 'QUADRUPOLE', 'MULLIKEN_CHARGES')
f=open( 'psi4out.xyz', 'w' )
f.write( "13  " )
f.write( str(ee) + "\n" )
f.write( MOL.save_string_xyz() )
f.close()
--------------------------------------------------------------------------

    Molecular point group: c1
  Charge       = 0
  Multiplicity = 1
  Basis Set: CC-PVTZ
  Basis Set:
  @DF-RHF Final Energy:  -527.73835439549975
    Total Energy =                       -527.7383543954999823
    Molecular point group: c1
  Basis Set: CC-PVTZ
  Basis Set:
  Basis Set: CC-PVTZ
  Basis Set:
  @DF-RHF Final Energy:  -527.73906266058805
    Total Energy =                       -527.7390626605877060
  Basis Set: CC-PVTZ
  Basis Set:
  Basis Set: CC-PVTZ
  Basis Set:
  @DF-RHF Final Energy:  -527.73920818689044
    Total Energy =                       -527.7392081868902096
  Basis Set: CC-PVTZ
  Basis Set:
  Basis Set: CC-PVTZ
  Basis Set:
  @DF-RHF Final Energy:  -527.73923138164150
    Total Energy =                       -527.7392313816413889
  Basis Set: CC-PVTZ
  Basis Set:
  Basis Set: CC-PVTZ
  Basis Set:
  @DF-RHF Final Energy:  -527.73923912894827
    Total Energy =                       -527.7392391289481566
  Basis Set: CC-PVTZ
  Basis Set:
  Basis Set: CC-PVTZ
  Basis Set:
  @DF-RHF Final Energy:  -527.73924273437797
    Total Energy =                       -527.7392427343779673
  Basis Set: CC-PVTZ
  Basis Set:
  Basis Set: CC-PVTZ
  Basis Set:
  @DF-RHF Final Energy:  -527.73924385130954
    Total Energy =                       -527.7392438513094248
  Basis Set: CC-PVTZ
  Basis Set:
  Charge       = 0
  Multiplicity = 1
  Basis Set: CC-PVTZ
  Basis Set:

    Orbital Energies (a.u.)
    -----------------------

    Doubly Occupied:

       1A    -26.342892     2A    -26.340679     3A    -26.336218
       4A    -20.604451     5A    -11.498701     6A    -11.319771
       7A    -11.298767     8A    -11.214035     9A     -1.750624
      10A     -1.648591    11A     -1.643287    12A     -1.445234
      13A     -1.086839    14A     -1.020088    15A     -0.932529
      16A     -0.844125    17A     -0.839102    18A     -0.827828
      19A     -0.796448    20A     -0.732247    21A     -0.720577
      22A     -0.704066    23A     -0.680137    24A     -0.669405
      25A     -0.660928    26A     -0.650310    27A     -0.637289
      28A     -0.587497    29A     -0.565411    30A     -0.529957
      31A     -0.517167    32A     -0.356909

  @DF-RHF Final Energy:  -527.73924423683729

   => Energetics <=

    Nuclear Repulsion Energy =            412.9173416125000813
    One-Electron Energy =               -1549.7089524739358239
    Two-Electron Energy =                 609.0523666245985623
    DFT Exchange-Correlation Energy =       0.0000000000000000
    Empirical Dispersion Energy =           0.0000000000000000
    PCM Polarization Energy =               0.0000000000000000
    EFP Energy =                            0.0000000000000000
    Total Energy =                       -527.7392442368372940
    Molecular point group: c1
  Basis Set: CC-PVTZ
  Basis Set:

  -Total Gradient:
     Atom            X                  Y                   Z
    ------   -----------------  -----------------  -----------------
       1        0.000012530379    -0.000000392709     0.000001316953
       2        0.000005329713     0.000009629703     0.000004806633
       3       -0.000018565649    -0.000052847938     0.000001878170
       4        0.000002421285    -0.000001739517     0.000007921571
       5       -0.000023503933     0.000004022902     0.000019470091
       6        0.000011277150     0.000001250354    -0.000015310521
       7       -0.004482775784     0.004149679243     0.001443140680
       8        0.001666877003     0.000296156469    -0.005400630984
       9        0.003499805102    -0.003610756915    -0.000136747449
      10       -0.000025583496     0.000018522103     0.000006510906
      11       -0.000652326078    -0.000754097774     0.004061288725
      12        0.000035683952    -0.000059000663     0.000003656237
      13       -0.000031169640    -0.000000425258     0.000002698992

  **** Optimization is complete! (in 8 steps) ****
    Final optimized geometry and variables:
    Molecular point group: c1

    Geometry (in Angstrom), charge = 0, multiplicity = 1:

    H           -3.956731148131     0.972268813803    -0.342902969335
    C           -3.269499970941     0.340853411431     0.181792594205
    C           -2.112479737218     0.054391581113    -0.362597835238
    H           -3.546599859887    -0.038035868712     1.145915586526
    O           -1.208510947859    -0.748226465522     0.244470148558
    H           -1.821603729748     0.434937334197    -1.324800111095
    C           -0.004659109229    -0.980858787476    -0.389362503263
    C            1.065346838264     0.041021522720    -0.022303643121
    H           -0.084288656473    -1.019140565970    -1.468907599995
    H            0.358477255088    -1.943020604383    -0.059989358156
    F            0.572021216938     1.247442741356     0.129121410677
    F            1.664502939500    -0.275341662429     1.106300648356
    F            1.990520650874     0.086323755910    -0.958235152462

  Mulliken Charges: (a.u.)
   Center  Symbol    Alpha    Beta     Spin     Total
       1     H     0.42528  0.42528  0.00000  0.14944
       2     C     3.19696  3.19696  0.00000 -0.39392
       3     C     2.95613  2.95613  0.00000  0.08774
       4     H     0.42500  0.42500  0.00000  0.15000
       5     O     4.14231  4.14231  0.00000 -0.28462
       6     H     0.43484  0.43484  0.00000  0.13032
       7     C     3.02804  3.02804  0.00000 -0.05608
       8     C     2.67228  2.67228  0.00000  0.65544
       9     H     0.45535  0.45535  0.00000  0.08931
      10     H     0.43656  0.43656  0.00000  0.12688
      11     F     4.60602  4.60602  0.00000 -0.21205
      12     F     4.60973  4.60973  0.00000 -0.21947
      13     F     4.61150  4.61150  0.00000 -0.22299

   Total alpha = 32.00000, Total beta = 32.00000, Total charge =  0.00000

*** Psi4 exiting successfully. Buy a developer a beer!
