  ==> Input File <==

--------------------------------------------------------------------------
set {
	reference rhf
	basis 6-31G*
}

set_num_threads( 4 )
memory 2 gb

molecule MOL {
0 1

H	 3.729471	 -0.928294	 -0.070608
O	 2.826016	 -1.159218	 0.122261
C	 2.077727	 -0.067559	 -0.035091
C	 0.624473	 -0.343591	 0.253101
O	 2.542965	 0.974826	 -0.363729
C	 -0.265902	 0.883932	 0.072916
H	 0.324016	 -1.163849	 -0.390541
H	 0.565024	 -0.726111	 1.268924
C	 -1.728698	 0.646073	 0.462102
H	 -0.209144	 1.219470	 -0.958188
H	 0.135059	 1.692851	 0.673903
C	 -2.482460	 -0.343073	 -0.431425
H	 -2.245265	 1.602650	 0.432430
H	 -1.779332	 0.308348	 1.496285
C	 -1.563618	 -1.056431	 -1.423054
H	 -2.981795	 -1.081063	 0.193139
H	 -3.265095	 0.170734	 -0.983572
H	 -2.120008	 -1.750100	 -2.045603
H	 -0.792143	 -1.620305	 -0.906623
H	 -1.069142	 -0.346180	 -2.079768

	symmetry c1
}
set optking {
	frozen_dihedral = ("
		16 12 9 6
	")
}

ee = optimize('scf')
oeprop('DIPOLE', 'QUADRUPOLE', 'MULLIKEN_CHARGES')
f=open( 'psi4out.xyz', 'w' )
f.write( "20  " )
f.write( str(ee) + "\n" )
f.write( MOL.save_string_xyz() )
f.close()
--------------------------------------------------------------------------

    Molecular point group: c1
  Charge       = 0
  Multiplicity = 1
  Basis Set: 6-31G*
  Basis Set:
  @DF-RHF Final Energy:  -383.91069533421933
    Total Energy =                       -383.9106953342195538
    Molecular point group: c1
  Basis Set: 6-31G*
  Basis Set:
  Basis Set: 6-31G*
  Basis Set:
  @DF-RHF Final Energy:  -383.93062040311548
    Total Energy =                       -383.9306204031158813
  Basis Set: 6-31G*
  Basis Set:
  Basis Set: 6-31G*
  Basis Set:
  @DF-RHF Final Energy:  -383.93486142268563
    Total Energy =                       -383.9348614226854579
  Basis Set: 6-31G*
  Basis Set:
  Basis Set: 6-31G*
  Basis Set:
  @DF-RHF Final Energy:  -383.93315085192665
    Total Energy =                       -383.9331508519267118
  Basis Set: 6-31G*
  Basis Set:
  @DF-RHF Final Energy:  -383.93638525846836
    Total Energy =                       -383.9363852584683627
  @DF-RHF Final Energy:  -383.93677337609427
    Total Energy =                       -383.9367733760940382
  Basis Set: 6-31G*
  Basis Set:
  @DF-RHF Final Energy:  -383.93676459781113
    Total Energy =                       -383.9367645978110204
  Basis Set: 6-31G*
  Basis Set:
  Basis Set: 6-31G*
  Basis Set:
  @DF-RHF Final Energy:  -383.93683594019097
    Total Energy =                       -383.9368359401911448
  Basis Set: 6-31G*
  Basis Set:
  Basis Set: 6-31G*
  Basis Set:
  @DF-RHF Final Energy:  -383.93684851988178
    Total Energy =                       -383.9368485198816643
  Basis Set: 6-31G*
  Basis Set:
  Charge       = 0
  Multiplicity = 1
  Basis Set: 6-31G*
  Basis Set:

    Orbital Energies (a.u.)
    -----------------------

    Doubly Occupied:

       1A    -20.612259     2A    -20.551328     3A    -11.380715
       4A    -11.239336     5A    -11.222662     6A    -11.221094
       7A    -11.220563     8A    -11.213267     9A     -1.474259
      10A     -1.365315    11A     -1.091924    12A     -1.036172
      13A     -0.961668    14A     -0.881170    15A     -0.809873
      16A     -0.769337    17A     -0.698959    18A     -0.687452
      19A     -0.666534    20A     -0.630433    21A     -0.618618
      22A     -0.586337    23A     -0.569142    24A     -0.559226
      25A     -0.535033    26A     -0.511316    27A     -0.509069
      28A     -0.478624    29A     -0.467492    30A     -0.457388
      31A     -0.454892    32A     -0.440895

  @DF-RHF Final Energy:  -383.93684906075293

   => Energetics <=

    Nuclear Repulsion Energy =            382.7687087356924849
    One-Electron Energy =               -1281.5664063308468030
    Two-Electron Energy =                 514.8608485344012706
    DFT Exchange-Correlation Energy =       0.0000000000000000
    Empirical Dispersion Energy =           0.0000000000000000
    PCM Polarization Energy =               0.0000000000000000
    EFP Energy =                            0.0000000000000000
    Total Energy =                       -383.9368490607530475
    Molecular point group: c1
  Basis Set: 6-31G*
  Basis Set:

  -Total Gradient:
     Atom            X                  Y                   Z
    ------   -----------------  -----------------  -----------------
       1       -0.000017009538     0.000013161088    -0.000002095092
       2       -0.000023313559    -0.000039323603     0.000016130811
       3        0.000033969847     0.000018600477    -0.000029028799
       4       -0.000000028984    -0.000028208855     0.000023426122
       5       -0.000029156048     0.000011778337     0.000004857796
       6        0.000078284311    -0.000198991903     0.000164367988
       7        0.000056603843     0.000038330118     0.000013891871
       8        0.000008131180    -0.000004534037     0.000011862547
       9       -0.000040990708     0.000240956275    -0.000228398905
      10       -0.000014288566     0.000009058530    -0.000020948297
      11       -0.000001532718    -0.000000866626     0.000000502224
      12       -0.000296577387     0.000154729095     0.000132800150
      13        0.000012582550     0.000001886031    -0.000001862577
      14        0.000017558884     0.000006103184     0.000001397247
      15       -0.000000817014    -0.000016912298    -0.000023786261
      16        0.000258144552    -0.000199661054    -0.000061457804
      17        0.000004125869    -0.000011727109    -0.000007611534
      18       -0.000005670568     0.000007178247     0.000001098928
      19       -0.000045950338     0.000000481461     0.000000961345
      20        0.000005934382    -0.000002037358     0.000003892240

  **** Optimization is complete! (in 10 steps) ****
    Final optimized geometry and variables:
    Molecular point group: c1

    Geometry (in Angstrom), charge = 0, multiplicity = 1:

    H            3.559341072255    -0.690691563753     0.298377694073
    O            2.676101862446    -0.930932676181     0.560908823758
    C            1.856787818549     0.060159158391     0.210183684485
    C            0.429589299134    -0.236087321900     0.593035547164
    O            2.248598694512     1.040304434468    -0.334821554642
    C           -0.540330878323     0.876743712352     0.198984384956
    H            0.171106903936    -1.190318685812     0.149110871128
    H            0.413956823765    -0.398197077085     1.667713474546
    C           -1.997152837999     0.608203736695     0.611482096301
    H           -0.463658496391     1.070796720359    -0.863928583976
    H           -0.211745621966     1.788717840858     0.685828924249
    C           -2.884267363484    -0.293400421462    -0.297815644843
    H           -2.489147082476     1.571659318095     0.697435874081
    H           -1.992728184562     0.199927202986     1.619080005088
    C           -2.228486840746    -0.998113028511    -1.489380518809
    H           -3.358616472075    -1.050812884159     0.319161591481
    H           -3.695959376094     0.313556275928    -0.687502186304
    H           -2.984816037810    -1.537047710337    -2.051641058707
    H           -1.482188961304    -1.722966968939    -1.184220277954
    H           -1.757544510382    -0.298870626309    -2.171626144208

  Mulliken Charges: (a.u.)
   Center  Symbol    Alpha    Beta     Spin     Total
       1     H     0.26793  0.26793  0.00000  0.46414
       2     O     4.35163  4.35163  0.00000 -0.70326
       3     C     2.62290  2.62290  0.00000  0.75419
       4     C     3.21198  3.21198  0.00000 -0.42396
       5     O     4.27947  4.27947  0.00000 -0.55895
       6     C     3.15716  3.15716  0.00000 -0.31433
       7     H     0.39635  0.39635  0.00000  0.20729
       8     H     0.39899  0.39899  0.00000  0.20203
       9     C     3.16279  3.16279  0.00000 -0.32558
      10     H     0.40830  0.40830  0.00000  0.18339
      11     H     0.40939  0.40939  0.00000  0.18122
      12     C     3.15593  3.15593  0.00000 -0.31186
      13     H     0.41517  0.41517  0.00000  0.16966
      14     H     0.42164  0.42164  0.00000  0.15672
      15     C     3.24409  3.24409  0.00000 -0.48818
      16     H     0.41954  0.41954  0.00000  0.16093
      17     H     0.41858  0.41858  0.00000  0.16283
      18     H     0.41743  0.41743  0.00000  0.16514
      19     H     0.42264  0.42264  0.00000  0.15471
      20     H     0.41806  0.41806  0.00000  0.16388

   Total alpha = 32.00000, Total beta = 32.00000, Total charge =  0.00000
