  ==> Input File <==

--------------------------------------------------------------------------
set {
	reference rhf
	basis cc-pvtz
}

set_num_threads( 4 )
memory 2 gb

molecule MOL {
0 1

H	 -1.852512	 -0.689678	 0.775716
O	 -2.041679	 -0.058866	 0.103463
C	 -0.959304	 0.780994	 -0.094939
C	 0.354905	 0.037902	 -0.006215
H	 -0.985899	 1.279578	 -1.057596
H	 -0.969809	 1.529522	 0.682889
F	 0.412060	 -0.931028	 -0.902708
F	 1.359641	 0.856111	 -0.239961
F	 0.545380	 -0.506387	 1.171682

	symmetry c1
}
set optking {
	frozen_dihedral = ("
		1 2 3 5
	")
}

ee = optimize('scf')
oeprop('DIPOLE', 'QUADRUPOLE', 'MULLIKEN_CHARGES')
f=open( 'psi4out.xyz', 'w' )
f.write( "9  " )
f.write( str(ee) + "\n" )
f.write( MOL.save_string_xyz() )
f.close()
--------------------------------------------------------------------------

    Molecular point group: c1
  Charge       = 0
  Multiplicity = 1
  Basis Set: CC-PVTZ
  Basis Set:
  @DF-RHF Final Energy:  -450.84407039552025
    Total Energy =                       -450.8440703955201911
    Molecular point group: c1
  Basis Set: CC-PVTZ
  Basis Set:
  Basis Set: CC-PVTZ
  Basis Set:
  @DF-RHF Final Energy:  -450.84577192416293
    Total Energy =                       -450.8457719241629320
  Basis Set: CC-PVTZ
  Basis Set:
  Basis Set: CC-PVTZ
  Basis Set:
  @DF-RHF Final Energy:  -450.84610214101951
    Total Energy =                       -450.8461021410196281
  Basis Set: CC-PVTZ
  Basis Set:
  Basis Set: CC-PVTZ
  Basis Set:
  @DF-RHF Final Energy:  -450.84611411384122
    Total Energy =                       -450.8461141138410539
  Basis Set: CC-PVTZ
  Basis Set:
  Basis Set: CC-PVTZ
  Basis Set:
  @DF-RHF Final Energy:  -450.84611624296053
    Total Energy =                       -450.8461162429605338
  Basis Set: CC-PVTZ
  Basis Set:
  Charge       = 0
  Multiplicity = 1
  Basis Set: CC-PVTZ
  Basis Set:

    Orbital Energies (a.u.)
    -----------------------

    Doubly Occupied:

       1A    -26.344401     2A    -26.343363     3A    -26.339622
       4A    -20.582380     5A    -11.498140     6A    -11.310086
       7A     -1.752040     8A     -1.649471     9A     -1.646650
      10A     -1.405880    11A     -1.052258    12A     -0.932801
      13A     -0.841732    14A     -0.840271    15A     -0.818313
      16A     -0.728879    17A     -0.722969    18A     -0.697632
      19A     -0.675330    20A     -0.670998    21A     -0.653443
      22A     -0.637860    23A     -0.625909    24A     -0.530550
      25A     -0.483945

  @DF-RHF Final Energy:  -450.84611639470768

   => Energetics <=

    Nuclear Repulsion Energy =            277.9909877613388289
    One-Electron Energy =               -1178.1043657792210979
    Two-Electron Energy =                 449.2672616231747043
    DFT Exchange-Correlation Energy =       0.0000000000000000
    Empirical Dispersion Energy =           0.0000000000000000
    PCM Polarization Energy =               0.0000000000000000
    EFP Energy =                            0.0000000000000000
    Total Energy =                       -450.8461163947075647
    Molecular point group: c1
  Basis Set: CC-PVTZ
  Basis Set:

  -Total Gradient:
     Atom            X                  Y                   Z
    ------   -----------------  -----------------  -----------------
       1        0.001055975301    -0.001865788246    -0.001844478320
       2       -0.001027053785     0.001828127188     0.002102442076
       3       -0.001356759723     0.001895895425     0.000626099594
       4        0.000023512454    -0.000044005834    -0.000025274354
       5        0.001284885370    -0.001853909757    -0.000879843625
       6        0.000013803337    -0.000005260553    -0.000009482123
       7       -0.000024636685     0.000003737116     0.000002952311
       8        0.000030760069     0.000031854238     0.000016484900
       9       -0.000000486340     0.000009350422     0.000011099539

  **** Optimization is complete! (in 6 steps) ****
    Final optimized geometry and variables:
    Molecular point group: c1

    Geometry (in Angstrom), charge = 0, multiplicity = 1:

    H           -1.874672526043    -0.663090101033     0.813793085038
    O           -2.047190346726    -0.061162433722     0.110819156245
    C           -0.964757286438     0.777363791275    -0.101724793806
    C            0.353005733329     0.038594047579    -0.038041273949
    H           -1.046811994336     1.187857673424    -1.097229532974
    H           -0.919244820244     1.586097861543     0.618950121886
    F            0.462591210786    -0.872268440969    -0.977056147441
    F            1.357427919933     0.876506677635    -0.168307720648
    F            0.493671977728    -0.580107116570     1.122546729017

  Mulliken Charges: (a.u.)
   Center  Symbol    Alpha    Beta     Spin     Total
       1     H     0.38652  0.38652  0.00000  0.22695
       2     O     4.19396  4.19396  0.00000 -0.38791
       3     C     2.97926  2.97926  0.00000  0.04147
       4     C     2.68744  2.68744  0.00000  0.62511
       5     H     0.45226  0.45226  0.00000  0.09549
       6     H     0.46448  0.46448  0.00000  0.07105
       7     F     4.60805  4.60805  0.00000 -0.21611
       8     F     4.60968  4.60968  0.00000 -0.21937
       9     F     4.61834  4.61834  0.00000 -0.23668

   Total alpha = 25.00000, Total beta = 25.00000, Total charge = -0.00000
