                              Psi4 1.0.54 Driver

  ==> Input File <==

--------------------------------------------------------------------------
set {
	reference rhf
	basis cc-pvtz
}

set_num_threads( 4 )
memory 2 gb

molecule MOL {
0 1

H	 -4.230259	 0.539112	 0.036360
O	 -3.515113	 -0.019339	 -0.206321
C	 -2.302264	 0.528872	 0.237390
C	 -1.175688	 -0.398187	 -0.171891
H	 -2.148018	 1.514076	 -0.197759
H	 -2.310727	 0.646384	 1.319032
C	 0.196029	 0.106276	 0.266738
H	 -1.201873	 -0.515469	 -1.250677
H	 -1.365975	 -1.378728	 0.252664
C	 1.330220	 -0.826136	 -0.155230
H	 0.359542	 1.097229	 -0.145561
H	 0.212134	 0.218135	 1.348778
C	 2.719700	 -0.407669	 0.328325
H	 1.339388	 -0.911200	 -1.239363
H	 1.119001	 -1.821953	 0.224128
C	 3.580286	 -1.549481	 0.864063
H	 2.600231	 0.334236	 1.111913
H	 3.246017	 0.090800	 -0.481584
H	 3.076113	 -2.071269	 1.671285
H	 3.814345	 -2.276709	 0.095919
H	 4.520028	 -1.173046	 1.251817

	symmetry c1
}
set optking {
	frozen_dihedral = ("
		16 13 10 14
	")
}

ee,wfn = optimize('scf', return_wfn=True)
oeprop( wfn, 'DIPOLE', 'QUADRUPOLE', 'MULLIKEN_CHARGES')
f=open( 'psi4out.xyz', 'w' )
f.write( "21  " )
f.write( str(ee) + "\n" )
f.write( MOL.save_string_xyz() )
f.close()
--------------------------------------------------------------------------

    Molecular point group: c1
  Charge       = 0
  Multiplicity = 1
  Basis Set: CC-PVTZ
  Basis Set:
  @DF-RHF Final Energy:  -310.32980916324198
    Total Energy =                       -310.3298091632419755
    Molecular point group: c1
  Basis Set: CC-PVTZ
  Basis Set:
  Basis Set: CC-PVTZ
  Basis Set:
  @DF-RHF Final Energy:  -310.33035547510769
    Total Energy =                       -310.3303554751076945
  Basis Set: CC-PVTZ
  Basis Set:
  Basis Set: CC-PVTZ
  Basis Set:
  @DF-RHF Final Energy:  -310.33047165662822
    Total Energy =                       -310.3304716566281058
  Basis Set: CC-PVTZ
  Basis Set:
  Basis Set: CC-PVTZ
  Basis Set:
  @DF-RHF Final Energy:  -310.33047346416561
    Total Energy =                       -310.3304734641653795
  Basis Set: CC-PVTZ
  Basis Set:
  Basis Set: CC-PVTZ
  Basis Set:
  @DF-RHF Final Energy:  -310.33047673906225
    Total Energy =                       -310.3304767390620782
  Basis Set: CC-PVTZ
  Basis Set:
  Charge       = 0
  Multiplicity = 1
  Basis Set: CC-PVTZ
  Basis Set:

    Orbital Energies (a.u.)
    -----------------------

    Doubly Occupied:

       1A    -20.545400     2A    -11.265042     3A    -11.213834
       4A    -11.212519     5A    -11.210879     6A    -11.208800
       7A    -11.206356     8A     -1.363251     9A     -1.086374
      10A     -1.034860    11A     -0.957811    12A     -0.867911
      13A     -0.803129    14A     -0.790602    15A     -0.695949
      16A     -0.663889    17A     -0.629429    18A     -0.599607
      19A     -0.585870    20A     -0.565192    21A     -0.545638
      22A     -0.523040    23A     -0.507864    24A     -0.486402
      25A     -0.477732    26A     -0.462499    27A     -0.457402
      28A     -0.442877    29A     -0.437403

  @DF-RHF Final Energy:  -310.33047674824559

   => Energetics <=

    Nuclear Repulsion Energy =            309.6268900020024830
    One-Electron Energy =               -1034.2196052596955269
    Two-Electron Energy =                 414.2622385094473998
    DFT Exchange-Correlation Energy =       0.0000000000000000
    Empirical Dispersion Energy =           0.0000000000000000
    PCM Polarization Energy =               0.0000000000000000
    EFP Energy =                            0.0000000000000000
    Total Energy =                       -310.3304767482456441
    Molecular point group: c1
  Basis Set: CC-PVTZ
  Basis Set:

  -Total Gradient:
     Atom            X                  Y                   Z
    ------   -----------------  -----------------  -----------------
       1       -0.000002824696    -0.000002063072    -0.000002193393
       2       -0.000007640695     0.000001853697     0.000002352139
       3        0.000007014486     0.000000871970    -0.000006914785
       4        0.000004518629     0.000011238139    -0.000013999147
       5        0.000000368528     0.000000875207     0.000001240800
       6       -0.000000084902     0.000000127993     0.000002613343
       7       -0.000020199008     0.000003185593     0.000019047982
       8       -0.000005948894    -0.000004556296    -0.000005501077
       9        0.000003024082     0.000001791838     0.000001986474
      10        0.000925452693    -0.004082885106     0.001736616456
      11       -0.000000901047     0.000000563182     0.000005086082
      12       -0.000007926050    -0.000006421970     0.000005297902
      13        0.001037659606    -0.000085026891    -0.003604244223
      14       -0.001028310878     0.003518012540    -0.000604068020
      15        0.000018656865     0.000009937247     0.000005882511
      16       -0.000913298425     0.000641312128     0.002469801274
      17       -0.000010304612    -0.000004810298    -0.000008173876
      18       -0.000000123254    -0.000006278908    -0.000010079853
      19        0.000002428209     0.000002852928    -0.000004307861
      20        0.000010288028     0.000008954923     0.000010512561
      21       -0.000011848671    -0.000009534846    -0.000000955289

  **** Optimization is complete! (in 6 steps) ****
    Final optimized geometry and variables:
    Molecular point group: c1

    Geometry (in Angstrom), charge = 0, multiplicity = 1:

    H           -4.236537985750     1.078495967592    -0.261669343126
    O           -3.547913492058     0.471222145384    -0.459489280926
    C           -2.317205136004     0.973504175972    -0.010665730315
    C           -1.234209873804    -0.031563577109    -0.347080572218
    H           -2.098492905846     1.926858329794    -0.487179951595
    H           -2.344314116184     1.143120647225     1.063690929036
    C            0.152607056851     0.419747981895     0.098865467993
    H           -1.244336099699    -0.201720509798    -1.418992847257
    H           -1.486205735027    -0.978112828910     0.120723847423
    C            1.248638793151    -0.594123236589    -0.227129869322
    H            0.395080135553     1.369441129681    -0.372965276418
    H            0.147938906908     0.605460858271     1.170446282255
    C            2.655762556763    -0.114176470908     0.168431684189
    H            1.216424095075    -0.785869656820    -1.295382770229
    H            1.021793986152    -1.532167858440     0.269677653728
    C            3.523896479546    -1.210264835082     0.779147017376
    H            2.568694923482     0.691649938169     0.891363583364
    H            3.155884015481     0.312403084330    -0.694564625814
    H            3.073253337632    -1.597242587653     1.686804990068
    H            3.649809735444    -2.042751338089     0.094279868581
    H            4.510523840914    -0.837575904620     1.030384916927

  Mulliken Charges: (a.u.)
   Center  Symbol    Alpha    Beta     Spin     Total
       1     H     0.39760  0.39760  0.00000  0.20480
       2     O     4.19433  4.19433  0.00000 -0.38865
       3     C     2.96321  2.96321  0.00000  0.07357
       4     C     3.08557  3.08557  0.00000 -0.17113
       5     H     0.47498  0.47498  0.00000  0.05003
       6     H     0.47488  0.47488  0.00000  0.05024
       7     C     3.10113  3.10113  0.00000 -0.20225
       8     H     0.45105  0.45105  0.00000  0.09789
       9     H     0.45082  0.45082  0.00000  0.09836
      10     C     3.08993  3.08993  0.00000 -0.17985
      11     H     0.45433  0.45433  0.00000  0.09135
      12     H     0.45551  0.45551  0.00000  0.08899
      13     C     3.08632  3.08632  0.00000 -0.17264
      14     H     0.45203  0.45203  0.00000  0.09594
      15     H     0.45317  0.45317  0.00000  0.09365
      16     C     3.14806  3.14806  0.00000 -0.29611
      17     H     0.45597  0.45597  0.00000  0.08806
      18     H     0.45144  0.45144  0.00000  0.09711
      19     H     0.45567  0.45567  0.00000  0.08866
      20     H     0.45429  0.45429  0.00000  0.09142
      21     H     0.44973  0.44973  0.00000  0.10055

   Total alpha = 29.00000, Total beta = 29.00000, Total charge =  0.00000

*** Psi4 exiting successfully. Buy a developer a beer!
