  ==> Input File <==

--------------------------------------------------------------------------
set {
	reference rhf
	basis cc-pvtz
}

set_num_threads( 4 )
memory 2 gb

molecule MOL {
0 1

H	 -2.260473	 0.935176	 2.138503
C	 -1.634790	 0.679755	 2.990656
O	 -0.378732	 0.246960	 2.587483
H	 -1.500841	 1.561473	 3.600179
H	 -2.148791	 -0.077558	 3.579862
C	 -0.392259	 -0.896028	 1.796894
C	 1.007494	 -1.212593	 1.333403
H	 -0.775963	 -1.743324	 2.365078
H	 -1.033224	 -0.756275	 0.929102
O	 1.401606	 -0.295166	 0.366636
H	 1.681411	 -1.185793	 2.186954
H	 1.023742	 -2.222605	 0.924032
C	 2.714315	 -0.441627	 -0.061017
H	 2.765292	 -0.641548	 -1.128869
H	 3.305661	 0.447341	 0.150952
H	 3.143725	 -1.278506	 0.470147

	symmetry c1
}
set optking {
	frozen_dihedral = ("
		7 10 13 14
	")
}

ee = optimize('scf')
oeprop('DIPOLE', 'QUADRUPOLE', 'MULLIKEN_CHARGES')
f=open( 'psi4out.xyz', 'w' )
f.write( "16  " )
f.write( str(ee) + "\n" )
f.write( MOL.save_string_xyz() )
f.close()
--------------------------------------------------------------------------

    Molecular point group: c1
  Charge       = 0
  Multiplicity = 1
  Basis Set: CC-PVTZ
  Basis Set:
  @DF-RHF Final Energy:  -307.09313255128853
    Total Energy =                       -307.0931325512882495
    Molecular point group: c1
  Basis Set: CC-PVTZ
  Basis Set:
  Basis Set: CC-PVTZ
  Basis Set:
  @DF-RHF Final Energy:  -307.09400627297424
    Total Energy =                       -307.0940062729739566
  Basis Set: CC-PVTZ
  Basis Set:
  Basis Set: CC-PVTZ
  Basis Set:
  @DF-RHF Final Energy:  -307.09427608697195
    Total Energy =                       -307.0942760869716608
  Basis Set: CC-PVTZ
  Basis Set:
  Charge       = 0
  Multiplicity = 1
  Basis Set: CC-PVTZ
  Basis Set:

    Orbital Energies (a.u.)
    -----------------------

    Doubly Occupied:

       1A    -20.547403     2A    -20.544056     3A    -11.267814
       4A    -11.266535     5A    -11.261310     6A    -11.261047
       7A     -1.389470     8A     -1.371402     9A     -1.031704
      10A     -0.937244    11A     -0.892159    12A     -0.823944
      13A     -0.684832    14A     -0.680980    15A     -0.658659
      16A     -0.636234    17A     -0.630302    18A     -0.597289
      19A     -0.554689    20A     -0.538229    21A     -0.508705
      22A     -0.479062    23A     -0.463838    24A     -0.420861
      25A     -0.410043

  @DF-RHF Final Energy:  -307.09427852869027

   => Energetics <=

    Nuclear Repulsion Energy =            258.6207010788406819
    One-Electron Energy =                -931.7143358588486990
    Two-Electron Energy =                 365.9993562513180336
    DFT Exchange-Correlation Energy =       0.0000000000000000
    Empirical Dispersion Energy =           0.0000000000000000
    PCM Polarization Energy =               0.0000000000000000
    EFP Energy =                            0.0000000000000000
    Total Energy =                       -307.0942785286899266
    Molecular point group: c1
  Basis Set: CC-PVTZ
  Basis Set:

  -Total Gradient:
     Atom            X                  Y                   Z
    ------   -----------------  -----------------  -----------------
       1        0.000000800916     0.000000410323    -0.000000375777
       2       -0.000008811917    -0.000009676757    -0.000002796357
       3        0.000008798000     0.000000655247    -0.000003745786
       4        0.000005872936    -0.000002216929    -0.000002948798
       5        0.000000727637     0.000000313697    -0.000000358190
       6       -0.000017066800     0.000011069872    -0.000005175540
       7       -0.000006116645    -0.000049918703     0.000010664883
       8       -0.000010410637    -0.000004968908     0.000013348357
       9        0.000010874425     0.000001245269     0.000007111253
      10        0.000117183763     0.000027973070    -0.000161635178
      11        0.000014654776     0.000017558042    -0.000011425269
      12        0.000011820723     0.000035069105    -0.000002752424
      13       -0.000094683712    -0.000078993025     0.000182303459
      14       -0.000083980732     0.000051957465     0.000006859858
      15        0.000004146717     0.000019806130    -0.000027279751
      16        0.000046190550    -0.000020283899    -0.000001794741

  **** Optimization is complete! (in 4 steps) ****
    Final optimized geometry and variables:
    Molecular point group: c1

    Geometry (in Angstrom), charge = 0, multiplicity = 1:

    H           -2.702022577275     1.273024995162     0.619810140580
    C           -2.086784871340     1.009133025794     1.476963062891
    O           -0.833268569515     0.560109854909     1.083976028862
    H           -1.946378315719     1.888795387051     2.088016483865
    H           -2.615543290070     0.258404835435     2.061575623152
    C           -0.855253335568    -0.582263009697     0.292694731937
    C            0.543638277109    -0.916201775884    -0.161105285175
    H           -1.252806395426    -1.425219936636     0.858048920547
    H           -1.488585414042    -0.434422658731    -0.579242556326
    O            0.953508226063     0.002849785036    -1.121285612924
    H            1.208606469271    -0.901066796480     0.698784187564
    H            0.546306278178    -1.924852645140    -0.572880458269
    C            2.269207176639    -0.118239922680    -1.566744051247
    H            2.279453533472    -0.301374990028    -2.635303430029
    H            2.809121993519     0.800039566658    -1.367276599685
    H            2.791833091954    -0.933653836766    -1.077208289211

  Mulliken Charges: (a.u.)
   Center  Symbol    Alpha    Beta     Spin     Total
       1     H     0.47016  0.47016  0.00000  0.05967
       2     C     3.03201  3.03201  0.00000 -0.06401
       3     O     4.17035  4.17035  0.00000 -0.34070
       4     H     0.44646  0.44646  0.00000  0.10708
       5     H     0.47375  0.47375  0.00000  0.05250
       6     C     2.96360  2.96360  0.00000  0.07281
       7     C     2.95848  2.95848  0.00000  0.08303
       8     H     0.47622  0.47622  0.00000  0.04756
       9     H     0.47118  0.47118  0.00000  0.05763
      10     O     4.17522  4.17522  0.00000 -0.35044
      11     H     0.47050  0.47050  0.00000  0.05900
      12     H     0.47623  0.47623  0.00000  0.04753
      13     C     3.02701  3.02701  0.00000 -0.05401
      14     H     0.45921  0.45921  0.00000  0.08158
      15     H     0.45592  0.45592  0.00000  0.08816
      16     H     0.47369  0.47369  0.00000  0.05261

   Total alpha = 25.00000, Total beta = 25.00000, Total charge =  0.00000
