  ==> Input File <==

--------------------------------------------------------------------------
set {
	reference rhf
	basis 6-31G*
}

set_num_threads( 4 )
memory 2 gb

molecule MOL {
0 1

H	 0.363379	 -3.613304	 -3.985071
O	 1.307649	 -3.586232	 -4.036951
C	 1.760055	 -2.285287	 -3.759596
C	 1.642891	 -1.909368	 -2.286611
H	 2.799639	 -2.264815	 -4.060462
H	 1.231153	 -1.558581	 -4.375179
C	 0.203194	 -1.861883	 -1.769035
H	 2.217594	 -2.622909	 -1.701854
H	 2.109677	 -0.935719	 -2.147020
C	 0.115918	 -1.429151	 -0.302766
H	 -0.250705	 -2.842053	 -1.885691
H	 -0.378753	 -1.171914	 -2.380280
C	 -1.309753	 -1.282496	 0.241564
H	 0.665052	 -2.138951	 0.313257
H	 0.626290	 -0.474635	 -0.192673
C	 -2.037799	 -0.007733	 -0.193645
H	 -1.890610	 -2.142323	 -0.085726
H	 -1.285946	 -1.330893	 1.329189
C	 -3.489788	 0.042957	 0.286558
H	 -2.017067	 0.064384	 -1.280144
H	 -1.513726	 0.868678	 0.179924
C	 -4.216917	 1.317354	 -0.141063
H	 -4.025645	 -0.823308	 -0.095450
H	 -3.513059	 -0.038752	 1.371301
H	 -4.239342	 1.411634	 -1.223113
H	 -5.243387	 1.322503	 0.212445
H	 -3.726170	 2.201406	 0.256408

	symmetry c1
}
set optking {
	frozen_dihedral = ("
		14 10 13 16
	")
}

ee = optimize('scf')
oeprop('DIPOLE', 'QUADRUPOLE', 'MULLIKEN_CHARGES')
f=open( 'psi4out.xyz', 'w' )
f.write( "27  " )
f.write( str(ee) + "\n" )
f.write( MOL.save_string_xyz() )
f.close()
--------------------------------------------------------------------------

    Molecular point group: c1
  Charge       = 0
  Multiplicity = 1
  Basis Set: 6-31G*
  Basis Set:
  @DF-RHF Final Energy:  -388.28098127419344
    Total Energy =                       -388.2809812741925271
    Molecular point group: c1
  Basis Set: 6-31G*
  Basis Set:
  Basis Set: 6-31G*
  Basis Set:
  @DF-RHF Final Energy:  -388.28131076171871
    Total Energy =                       -388.2813107617193964
  Basis Set: 6-31G*
  Basis Set:
  Basis Set: 6-31G*
  Basis Set:
  @DF-RHF Final Energy:  -388.28138221120685
    Total Energy =                       -388.2813822112071875
  Basis Set: 6-31G*
  Basis Set:
  Basis Set: 6-31G*
  Basis Set:
  @DF-RHF Final Energy:  -388.28138531091844
    Total Energy =                       -388.2813853109184947
  Basis Set: 6-31G*
  Basis Set:
  Charge       = 0
  Multiplicity = 1
  Basis Set: 6-31G*
  Basis Set:

    Orbital Energies (a.u.)
    -----------------------

    Doubly Occupied:

       1A    -20.552228     2A    -11.267094     3A    -11.220220
       4A    -11.217223     5A    -11.216392     6A    -11.215697
       7A    -11.215338     8A    -11.214718     9A    -11.209852
      10A     -1.359029    11A     -1.095198    12A     -1.061962
      13A     -1.011672    14A     -0.949126    15A     -0.886981
      16A     -0.820379    17A     -0.799853    18A     -0.781773
      19A     -0.694197    20A     -0.646411    21A     -0.641735
      22A     -0.614325    23A     -0.604537    24A     -0.583029
      25A     -0.577760    26A     -0.554222    27A     -0.544351
      28A     -0.519563    29A     -0.507675    30A     -0.502844
      31A     -0.482048    32A     -0.474514    33A     -0.467905
      34A     -0.462810    35A     -0.452772    36A     -0.441609
      37A     -0.422823

  @DF-RHF Final Energy:  -388.28138544828823

   => Energetics <=

    Nuclear Repulsion Energy =            457.7557264990082331
    One-Electron Energy =               -1433.4944927637009187
    Two-Electron Energy =                 587.4573808164043385
    DFT Exchange-Correlation Energy =       0.0000000000000000
    Empirical Dispersion Energy =           0.0000000000000000
    PCM Polarization Energy =               0.0000000000000000
    EFP Energy =                            0.0000000000000000
    Total Energy =                       -388.2813854482883471
    Molecular point group: c1
  Basis Set: 6-31G*
  Basis Set:

  -Total Gradient:
     Atom            X                  Y                   Z
    ------   -----------------  -----------------  -----------------
       1        0.000012850012     0.000011926738    -0.000008770392
       2        0.000032875948    -0.000022809134    -0.000000368340
       3       -0.000055131303     0.000033404375    -0.000016893312
       4        0.000015092235    -0.000008233065     0.000012538903
       5       -0.000010341865    -0.000019267581    -0.000011029552
       6        0.000007695688     0.000002006712    -0.000011776164
       7       -0.000003563500     0.000030074705     0.000008000047
       8       -0.000012164013     0.000002990948     0.000017163075
       9        0.000002664536    -0.000004784216     0.000006311252
      10       -0.000432304623    -0.001431009021    -0.000911996639
      11        0.000017028329     0.000009869811     0.000021608264
      12       -0.000005198002    -0.000000122055    -0.000014207179
      13       -0.000528643888    -0.000606072918    -0.001308130093
      14        0.000498338593     0.001361075055     0.001120872215
      15        0.000026286730    -0.000005630598    -0.000010916007
      16        0.000455386341     0.000637733397     0.001109022015
      17       -0.000014622361    -0.000006029180     0.000016553996
      18        0.000005497021     0.000014470407    -0.000006719133
      19       -0.000003717641    -0.000000477414    -0.000008063809
      20        0.000002228782    -0.000011558142     0.000005125975
      21       -0.000001211507     0.000011883905    -0.000006118474
      22       -0.000004812679    -0.000000197799     0.000003739466
      23       -0.000009675576     0.000009181933    -0.000005728739
      24        0.000006320467    -0.000012187254    -0.000003291710
      25       -0.000000150936     0.000000932574     0.000000854629
      26       -0.000001410818     0.000004673343     0.000001653265
      27        0.000000684036    -0.000001845527     0.000000566441

  **** Optimization is complete! (in 5 steps) ****
    Final optimized geometry and variables:
    Molecular point group: c1

    Geometry (in Angstrom), charge = 0, multiplicity = 1:

    H            1.021984078473    -2.337708819079    -2.614924081603
    O            1.967372930950    -2.342470848651    -2.651724265288
    C            2.458584609955    -1.058058637560    -2.364126940831
    C            2.320429204519    -0.677034241000    -0.894243441764
    H            3.504920645731    -1.075087672325    -2.640681740403
    H            1.970478652928    -0.313641732901    -2.992188594298
    C            0.871742755894    -0.575582123314    -0.411071776165
    H            2.854541288076    -1.410428069665    -0.295795797289
    H            2.818728073024     0.279176387790    -0.743447844823
    C            0.762548955529    -0.150029120597     1.055257732653
    H            0.380730988545    -1.539559752246    -0.529365489167
    H            0.332593216453     0.128977297403    -1.041931504390
    C           -0.675081779494    -0.047433533730     1.582463994370
    H            1.317072017660    -0.854577722310     1.670740974635
    H            1.259582725882     0.809658767303     1.188007901746
    C           -1.417883226384     1.219125615600     1.147897761169
    H           -1.238520640460    -0.927205271123     1.276287293338
    H           -0.649387628144    -0.070564280904     2.669772788264
    C           -2.841967988256     1.298923053095     1.701490409583
    H           -1.457530127068     1.276563300140     0.062105090193
    H           -0.855583196082     2.090897616874     1.478407998014
    C           -3.575954890016     2.572411844522     1.282889959227
    H           -3.406994008181     0.431019392319     1.368034666029
    H           -2.809424922335     1.241948236454     2.787469907584
    H           -3.656082159596     2.641731386762     0.201616189745
    H           -4.581621915824     2.599527870773     1.690934992186
    H           -3.053569400972     3.458709457570     1.631936312355

  Mulliken Charges: (a.u.)
   Center  Symbol    Alpha    Beta     Spin     Total
       1     H     0.27993  0.27993  0.00000  0.44013
       2     O     4.37091  4.37091  0.00000 -0.74183
       3     C     2.99732  2.99732  0.00000  0.00537
       4     C     3.16121  3.16121  0.00000 -0.32242
       5     H     0.41441  0.41441  0.00000  0.17118
       6     H     0.43212  0.43212  0.00000  0.13576
       7     C     3.16265  3.16265  0.00000 -0.32530
       8     H     0.41497  0.41497  0.00000  0.17006
       9     H     0.42404  0.42404  0.00000  0.15192
      10     C     3.15318  3.15318  0.00000 -0.30636
      11     H     0.42530  0.42530  0.00000  0.14939
      12     H     0.42327  0.42327  0.00000  0.15345
      13     C     3.15435  3.15435  0.00000 -0.30870
      14     H     0.41925  0.41925  0.00000  0.16150
      15     H     0.42314  0.42314  0.00000  0.15373
      16     C     3.15195  3.15195  0.00000 -0.30391
      17     H     0.42375  0.42375  0.00000  0.15250
      18     H     0.42090  0.42090  0.00000  0.15819
      19     C     3.15132  3.15132  0.00000 -0.30264
      20     H     0.42399  0.42399  0.00000  0.15201
      21     H     0.42379  0.42379  0.00000  0.15242
      22     C     3.23919  3.23919  0.00000 -0.47838
      23     H     0.42316  0.42316  0.00000  0.15369
      24     H     0.42281  0.42281  0.00000  0.15438
      25     H     0.42224  0.42224  0.00000  0.15553
      26     H     0.41912  0.41912  0.00000  0.16176
      27     H     0.42170  0.42170  0.00000  0.15659

   Total alpha = 37.00000, Total beta = 37.00000, Total charge =  0.00000
