  ==> Input File <==

--------------------------------------------------------------------------
set {
	reference rhf
	basis 6-31G*
}

set_num_threads( 4 )
memory 2 gb

molecule MOL {
0 1

H	 -2.825485	 -0.006853	 -0.811100
O	 -2.315789	 -0.143634	 -0.024262
C	 -0.945151	 -0.064130	 -0.333158
H	 -0.813375	 -0.223047	 -1.403232
C	 -0.232801	 -1.184051	 0.407206
C	 -0.355424	 1.302939	 0.054523
H	 -0.318824	 -0.992899	 1.473524
H	 -0.742411	 -2.122033	 0.217954
C	 1.248522	 -1.270719	 -0.013048
H	 -0.546144	 2.018388	 -0.742941
H	 -0.890929	 1.656788	 0.930149
C	 1.156425	 1.235120	 0.355905
H	 1.825384	 -1.683246	 0.809111
H	 1.357782	 -1.965923	 -0.840362
C	 1.828244	 0.099899	 -0.419275
H	 1.626109	 2.185622	 0.123525
H	 1.309438	 1.071213	 1.419539
H	 2.901447	 0.112642	 -0.255830
H	 1.681817	 0.263413	 -1.484607

	symmetry c1
}
set optking {
	frozen_dihedral = ("
		1 2 3 4
	")
}

ee = optimize('scf')
oeprop('DIPOLE', 'QUADRUPOLE', 'MULLIKEN_CHARGES')
f=open( 'psi4out.xyz', 'w' )
f.write( "19  " )
f.write( str(ee) + "\n" )
f.write( MOL.save_string_xyz() )
f.close()
--------------------------------------------------------------------------

    Molecular point group: c1
  Charge       = 0
  Multiplicity = 1
  Basis Set: 6-31G*
  Basis Set:
  @DF-RHF Final Energy:  -309.04673755749485
    Total Energy =                       -309.0467375574949074
    Molecular point group: c1
  Basis Set: 6-31G*
  Basis Set:
  Basis Set: 6-31G*
  Basis Set:
  @DF-RHF Final Energy:  -309.04692136230341
    Total Energy =                       -309.0469213623035785
  Basis Set: 6-31G*
  Basis Set:
  Basis Set: 6-31G*
  Basis Set:
  @DF-RHF Final Energy:  -309.04698795303847
    Total Energy =                       -309.0469879530382400
  Basis Set: 6-31G*
  Basis Set:
  Charge       = 0
  Multiplicity = 1
  Basis Set: 6-31G*
  Basis Set:

    Orbital Energies (a.u.)
    -----------------------

    Doubly Occupied:

       1A    -20.548909     2A    -11.269967     3A    -11.215239
       4A    -11.214712     5A    -11.213975     6A    -11.208229
       7A    -11.207814     8A     -1.357375     9A     -1.107104
      10A     -0.999592    11A     -0.987781    12A     -0.840880
      13A     -0.832816    14A     -0.730667    15A     -0.708997
      16A     -0.655239    17A     -0.625116    18A     -0.590334
      19A     -0.563706    20A     -0.543536    21A     -0.537049
      22A     -0.516461    23A     -0.496452    24A     -0.487455
      25A     -0.460240    26A     -0.448780    27A     -0.430332
      28A     -0.405824

  @DF-RHF Final Energy:  -309.04698874567856

   => Energetics <=

    Nuclear Repulsion Energy =            331.0375329687629460
    One-Electron Energy =               -1075.7598824330634670
    Two-Electron Energy =                 435.6753607186220734
    DFT Exchange-Correlation Energy =       0.0000000000000000
    Empirical Dispersion Energy =           0.0000000000000000
    PCM Polarization Energy =               0.0000000000000000
    EFP Energy =                            0.0000000000000000
    Total Energy =                       -309.0469887456785045
    Molecular point group: c1
  Basis Set: 6-31G*
  Basis Set:

  -Total Gradient:
     Atom            X                  Y                   Z
    ------   -----------------  -----------------  -----------------
       1       -0.000019885086    -0.001351801745    -0.000241071934
       2        0.000028721170     0.001947579623     0.000191596918
       3        0.000006801941    -0.001745120678     0.000252248743
       4       -0.000101634961     0.001187169412    -0.000170027108
       5        0.000053707154     0.000018078442     0.000011465645
       6       -0.000009594887     0.000011919614    -0.000023689439
       7       -0.000013777060     0.000001761775     0.000003483875
       8       -0.000008209170     0.000002663678    -0.000002679842
       9        0.000000324722     0.000014176340     0.000010962102
      10       -0.000019611275    -0.000001472660    -0.000013173914
      11       -0.000002600239    -0.000024133488    -0.000020566780
      12        0.000007970142    -0.000035539315     0.000022026068
      13        0.000019319450    -0.000001436688    -0.000011724020
      14        0.000015377942     0.000025559240    -0.000012332939
      15        0.000018098745     0.000000280346     0.000003865795
      16        0.000012719951    -0.000013805935    -0.000005827777
      17        0.000009278738    -0.000002013138     0.000008190617
      18        0.000004461471    -0.000012289667     0.000003001263
      19       -0.000001468750    -0.000021575154    -0.000005747272

  **** Optimization is complete! (in 4 steps) ****
    Final optimized geometry and variables:
    Molecular point group: c1

    Geometry (in Angstrom), charge = 0, multiplicity = 1:

    H           -2.839006161946     0.040747683111    -0.789181352488
    O           -2.321269268495    -0.113351073108    -0.013713629844
    C           -0.946414235991    -0.067760429640    -0.330738866618
    H           -0.822872223557    -0.222535119016    -1.401168308909
    C           -0.227079368129    -1.188090239507     0.405717794752
    C           -0.357248906797     1.300654409022     0.050422495616
    H           -0.318670158965    -1.002377406852     1.472678632691
    H           -0.731183385479    -2.128444436207     0.212059221821
    C            1.257462625360    -1.266868597079    -0.006650372239
    H           -0.549581909208     2.010587634036    -0.750446172441
    H           -0.900910166297     1.656632782026     0.918818329618
    C            1.152956449446     1.237050273225     0.358867032905
    H            1.833390809817    -1.672825787829     0.819506472672
    H            1.375306532761    -1.964616838536    -0.830891714255
    C            1.831415473810     0.105282003464    -0.414953684892
    H            1.621241329556     2.189317663181     0.130186526907
    H            1.303309015902     1.071866335051     1.422925087646
    H            2.904721842889     0.121851078250    -0.252241230306
    H            1.683973830538     0.266756639811    -1.480734505286

  Mulliken Charges: (a.u.)
   Center  Symbol    Alpha    Beta     Spin     Total
       1     H     0.28065  0.28065  0.00000  0.43871
       2     O     4.37987  4.37987  0.00000 -0.75975
       3     C     2.91448  2.91448  0.00000  0.17104
       4     H     0.43047  0.43047  0.00000  0.13907
       5     C     3.16479  3.16479  0.00000 -0.32958
       6     C     3.16486  3.16486  0.00000 -0.32971
       7     H     0.41590  0.41590  0.00000  0.16821
       8     H     0.41280  0.41280  0.00000  0.17439
       9     C     3.16106  3.16106  0.00000 -0.32212
      10     H     0.42401  0.42401  0.00000  0.15198
      11     H     0.40904  0.40904  0.00000  0.18191
      12     C     3.16432  3.16432  0.00000 -0.32864
      13     H     0.41785  0.41785  0.00000  0.16431
      14     H     0.41966  0.41966  0.00000  0.16068
      15     C     3.16383  3.16383  0.00000 -0.32766
      16     H     0.41731  0.41731  0.00000  0.16538
      17     H     0.41929  0.41929  0.00000  0.16143
      18     H     0.41678  0.41678  0.00000  0.16643
      19     H     0.42304  0.42304  0.00000  0.15392

   Total alpha = 28.00000, Total beta = 28.00000, Total charge =  0.00000
