                              Psi4 1.0.54 Driver

  ==> Input File <==

--------------------------------------------------------------------------
set {
	reference rhf
	basis cc-pvtz
}

set_num_threads( 4 )
memory 2 gb

molecule MOL {
0 1

O	 -0.840323	 -4.518081	 -1.120527
C	 -0.239686	 -3.866308	 -1.911638
C	 0.056406	 -2.401966	 -1.654578
C	 0.275423	 -4.461842	 -3.200347
C	 1.313235	 -2.237787	 -0.790710
H	 -0.796879	 -1.980871	 -1.138152
H	 0.182389	 -1.873090	 -2.593345
C	 1.630207	 -0.772146	 -0.501001
H	 1.164361	 -2.783412	 0.132523
H	 2.163932	 -2.694455	 -1.290778
C	 2.907848	 -0.545876	 0.309149
H	 0.789726	 -0.322082	 0.021506
H	 1.720940	 -0.241522	 -1.444828
C	 3.373802	 0.906639	 0.372125
H	 3.699140	 -1.146831	 -0.127906
H	 2.764321	 -0.923458	 1.318191
H	 3.519798	 1.311927	 -0.623875
H	 4.316899	 0.983758	 0.900700
H	 2.661122	 1.540651	 0.885346
H	 -0.265160	 -4.027410	 -4.035235
H	 0.135019	 -5.531819	 -3.197990
H	 1.324134	 -4.224380	 -3.339652

	symmetry c1
}
set optking {
	frozen_dihedral = ("
		12 8 11 15
	")
}

ee,wfn = optimize('scf', return_wfn=True)
oeprop( wfn, 'DIPOLE', 'QUADRUPOLE', 'MULLIKEN_CHARGES')
f=open( 'psi4out.xyz', 'w' )
f.write( "22  " )
f.write( str(ee) + "\n" )
f.write( MOL.save_string_xyz() )
f.close()
--------------------------------------------------------------------------

    Molecular point group: c1
  Charge       = 0
  Multiplicity = 1
  Basis Set: CC-PVTZ
  Basis Set:
  @DF-RHF Final Energy:  -348.22434212789767
    Total Energy =                       -348.2243421278974438
    Molecular point group: c1
  Basis Set: CC-PVTZ
  Basis Set:
  Basis Set: CC-PVTZ
  Basis Set:
  @DF-RHF Final Energy:  -348.22482427326031
    Total Energy =                       -348.2248242732607082
  Basis Set: CC-PVTZ
  Basis Set:
  Basis Set: CC-PVTZ
  Basis Set:
  @DF-RHF Final Energy:  -348.22468645841127
    Total Energy =                       -348.2246864584117247
  Basis Set: CC-PVTZ
  Basis Set:
  Basis Set: CC-PVTZ
  Basis Set:
  @DF-RHF Final Energy:  -348.22484781446207
    Total Energy =                       -348.2248478144617820
  Basis Set: CC-PVTZ
  Basis Set:
  Basis Set: CC-PVTZ
  Basis Set:
  @DF-RHF Final Energy:  -348.22482468106250
    Total Energy =                       -348.2248246810620458
  Basis Set: CC-PVTZ
  Basis Set:
  Basis Set: CC-PVTZ
  Basis Set:
  @DF-RHF Final Energy:  -348.22485965296772
    Total Energy =                       -348.2248596529681208
  Basis Set: CC-PVTZ
  Basis Set:
  Basis Set: CC-PVTZ
  Basis Set:
  @DF-RHF Final Energy:  -348.22486133126176
    Total Energy =                       -348.2248613312617636
  Basis Set: CC-PVTZ
  Basis Set:
  Charge       = 0
  Multiplicity = 1
  Basis Set: CC-PVTZ
  Basis Set:

    Orbital Energies (a.u.)
    -----------------------

    Doubly Occupied:

       1A    -20.536722     2A    -11.319248     3A    -11.228390
       4A    -11.227564     5A    -11.226860     6A    -11.220488
       7A    -11.218745     8A    -11.211117     9A     -1.396847
      10A     -1.097735    11A     -1.047173    12A     -1.001628
      13A     -0.940248    14A     -0.846291    15A     -0.799576
      16A     -0.733770    17A     -0.667436    18A     -0.649631
      19A     -0.633351    20A     -0.610488    21A     -0.593377
      22A     -0.586142    23A     -0.563252    24A     -0.552637
      25A     -0.531893    26A     -0.516985    27A     -0.498589
      28A     -0.486767    29A     -0.475883    30A     -0.470406
      31A     -0.462334    32A     -0.398402

  @DF-RHF Final Energy:  -348.22486152530308

   => Energetics <=

    Nuclear Repulsion Energy =            369.3139269843732677
    One-Electron Energy =               -1203.5776227506044052
    Two-Electron Energy =                 486.0388342409281108
    DFT Exchange-Correlation Energy =       0.0000000000000000
    Empirical Dispersion Energy =           0.0000000000000000
    PCM Polarization Energy =               0.0000000000000000
    EFP Energy =                            0.0000000000000000
    Total Energy =                       -348.2248615253030835
    Molecular point group: c1
  Basis Set: CC-PVTZ
  Basis Set:

  -Total Gradient:
     Atom            X                  Y                   Z
    ------   -----------------  -----------------  -----------------
       1        0.000013100472     0.000008438397     0.000002589781
       2        0.000015025432    -0.000014283224    -0.000009904546
       3        0.000000306257    -0.000000960327    -0.000007654653
       4       -0.000038027261    -0.000010742697    -0.000001126706
       5       -0.000003835609    -0.000004170485     0.000013690379
       6        0.000003299766     0.000001132065    -0.000005829933
       7        0.000001462662     0.000000732812     0.000015747616
       8        0.000259283913     0.001682186786    -0.000793261687
       9       -0.000000840048     0.000005761420    -0.000013995873
      10       -0.000010055007    -0.000001647674    -0.000001352984
      11        0.000494266409     0.001419540125    -0.001099051990
      12       -0.000278176998    -0.001636847461     0.000839931084
      13       -0.000001763129    -0.000001858166     0.000007964318
      14        0.000001034275     0.000006357995    -0.000013587404
      15       -0.000473046697    -0.001461215236     0.001063311663
      16        0.000000433040    -0.000003161492    -0.000009036304
      17       -0.000004503566     0.000002666322     0.000011184139
      18       -0.000002176336    -0.000000780300    -0.000005096437
      19        0.000005361508    -0.000004309393    -0.000003162556
      20        0.000010984939     0.000001246196    -0.000001289066
      21        0.000003751882     0.000010309815     0.000000678558
      22        0.000004114092     0.000001604528     0.000009252601

  **** Optimization is complete! (in 8 steps) ****
    Final optimized geometry and variables:
    Molecular point group: c1

    Geometry (in Angstrom), charge = 0, multiplicity = 1:

    O           -1.821135238113    -2.338832403314    -0.032716236292
    C           -1.269815598340    -1.661134033725    -0.837701255329
    C           -1.020439136981    -0.188220532563    -0.580972159692
    C           -0.775016643511    -2.230326972991    -2.146107683958
    C            0.268670595760     0.021251055692     0.222892525752
    H           -1.864574504157     0.194255331696    -0.021633318205
    H           -0.959917618409     0.351756371918    -1.520083501422
    C            0.549181020041     1.493413352803     0.512810427891
    H            0.188323622936    -0.527206936544     1.155169819821
    H            1.110721557997    -0.404294059916    -0.316568247294
    C            1.803833451965     1.706369205245     1.356481375549
    H           -0.306901076439     1.913805104952     1.033889448432
    H            0.642911148587     2.034846747185    -0.425137885315
    C            2.199260876751     3.172541610192     1.488875279046
    H            2.626869821372     1.138588438023     0.931158986552
    H            1.637858283967     1.287943105685     2.345318717899
    H            2.421689108740     3.607364800208     0.520176574634
    H            3.078077273201     3.287171507824     2.112641495954
    H            1.399343581621     3.754129109694     1.935004904075
    H           -1.362260969810    -1.815908337769    -2.959361162267
    H           -0.871341751526    -3.305140941277    -2.144044762540
    H            0.257423038121    -1.949478447661    -2.321126079741

  Mulliken Charges: (a.u.)
   Center  Symbol    Alpha    Beta     Spin     Total
       1     O     4.17803  4.17803  0.00000 -0.35606
       2     C     2.85833  2.85833  0.00000  0.28334
       3     C     3.09815  3.09815  0.00000 -0.19631
       4     C     3.15522  3.15522  0.00000 -0.31044
       5     C     3.10101  3.10101  0.00000 -0.20202
       6     H     0.43899  0.43899  0.00000  0.12202
       7     H     0.44932  0.44932  0.00000  0.10137
       8     C     3.08761  3.08761  0.00000 -0.17523
       9     H     0.44087  0.44087  0.00000  0.11827
      10     H     0.45238  0.45238  0.00000  0.09523
      11     C     3.08482  3.08482  0.00000 -0.16965
      12     H     0.45153  0.45153  0.00000  0.09694
      13     H     0.45484  0.45484  0.00000  0.09031
      14     C     3.14996  3.14996  0.00000 -0.29992
      15     H     0.45488  0.45488  0.00000  0.09024
      16     H     0.45179  0.45179  0.00000  0.09642
      17     H     0.45532  0.45532  0.00000  0.08936
      18     H     0.44744  0.44744  0.00000  0.10512
      19     H     0.45426  0.45426  0.00000  0.09148
      20     H     0.44834  0.44834  0.00000  0.10331
      21     H     0.43602  0.43602  0.00000  0.12797
      22     H     0.45088  0.45088  0.00000  0.09823

   Total alpha = 32.00000, Total beta = 32.00000, Total charge = -0.00000

*** Psi4 exiting successfully. Buy a developer a beer!
