                              Psi4 1.0.54 Driver

  ==> Input File <==

--------------------------------------------------------------------------
set {
	reference rhf
	basis cc-pvtz
}

set_num_threads( 4 )
memory 2 gb

molecule MOL {
0 1

H	 2.288570	 -0.834994	 -0.842124
C	 1.554800	 -1.137659	 -0.103792
N	 0.526300	 -0.128137	 0.000000
H	 2.066375	 -1.239580	 0.844861
H	 1.177392	 -2.119917	 -0.395859
C	 -0.247113	 0.037112	 -1.209233
H	 -0.078428	 -0.336173	 0.764647
H	 -0.996493	 -0.743733	 -1.271440
H	 0.397975	 -0.057351	 -2.073512
H	 -0.763794	 0.997171	 -1.271673

	symmetry c1
}
set optking {
	frozen_dihedral = ("
		2 3 6 8
	")
}

ee,wfn = optimize('scf', return_wfn=True)
oeprop( wfn, 'DIPOLE', 'QUADRUPOLE', 'MULLIKEN_CHARGES')
f=open( 'psi4out.xyz', 'w' )
f.write( "10  " )
f.write( str(ee) + "\n" )
f.write( MOL.save_string_xyz() )
f.close()
--------------------------------------------------------------------------

    Molecular point group: c1
  Charge       = 0
  Multiplicity = 1
  Basis Set: CC-PVTZ
  Basis Set:
  @DF-RHF Final Energy:  -134.29024285041675
    Total Energy =                       -134.2902428504167744
    Molecular point group: c1
  Basis Set: CC-PVTZ
  Basis Set:
  Basis Set: CC-PVTZ
  Basis Set:
  @DF-RHF Final Energy:  -134.29131696539082
    Total Energy =                       -134.2913169653907630
  Basis Set: CC-PVTZ
  Basis Set:
  Basis Set: CC-PVTZ
  Basis Set:
  @DF-RHF Final Energy:  -134.29145279321310
    Total Energy =                       -134.2914527932130682
  Basis Set: CC-PVTZ
  Basis Set:
  Basis Set: CC-PVTZ
  Basis Set:
  @DF-RHF Final Energy:  -134.29145649388488
    Total Energy =                       -134.2914564938849082
  Basis Set: CC-PVTZ
  Basis Set:
  Charge       = 0
  Multiplicity = 1
  Basis Set: CC-PVTZ
  Basis Set:

    Orbital Energies (a.u.)
    -----------------------

    Doubly Occupied:

       1A    -15.530551     2A    -11.234254     3A    -11.233967
       4A     -1.198676     5A     -0.948186     6A     -0.855059
       7A     -0.663016     8A     -0.609347     9A     -0.590997
      10A     -0.541437    11A     -0.513533    12A     -0.507334
      13A     -0.359827

  @DF-RHF Final Energy:  -134.29145698801204

   => Energetics <=

    Nuclear Repulsion Energy =             84.6409467290688013
    One-Electron Energy =                -348.2924389625698041
    Two-Electron Energy =                 129.3600352454890299
    DFT Exchange-Correlation Energy =       0.0000000000000000
    Empirical Dispersion Energy =           0.0000000000000000
    PCM Polarization Energy =               0.0000000000000000
    EFP Energy =                            0.0000000000000000
    Total Energy =                       -134.2914569880119871
    Molecular point group: c1
  Basis Set: CC-PVTZ
  Basis Set:

  -Total Gradient:
     Atom            X                  Y                   Z
    ------   -----------------  -----------------  -----------------
       1       -0.000020672547     0.000017221566     0.000002706375
       2        0.001836225751     0.001871883372    -0.000853240164
       3       -0.003255331996    -0.002073405206     0.001793478342
       4       -0.000009408990     0.000013358052    -0.000000061354
       5       -0.000010003815     0.000023359485     0.000005011458
       6        0.003843178089    -0.001980583204    -0.002799727859
       7        0.000011793896    -0.000010633269     0.000005347290
       8       -0.002378618058     0.002132868471     0.001801798024
       9       -0.000008712727     0.000001313634     0.000040339991
      10       -0.000008449604     0.000004617100     0.000004347898

  **** Optimization is complete! (in 5 steps) ****
    Final optimized geometry and variables:
    Molecular point group: c1

    Geometry (in Angstrom), charge = 0, multiplicity = 1:

    H            1.698652083738    -0.407997507272    -0.360286342294
    C            0.949292749593    -0.712444746462     0.360721620044
    N           -0.083961094687     0.293936789324     0.438474014841
    H            1.438498659318    -0.806976603237     1.322030367713
    H            0.587759739324    -1.700488024164     0.067063258644
    C           -0.843391668872     0.469910000842    -0.780156259274
    H           -0.690961156562     0.118035915015     1.208174641421
    H           -1.620885298954    -0.280935496920    -0.927010619680
    H           -0.176942755176     0.443826462620    -1.632700636169
    H           -1.330482438754     1.438294212280    -0.775445822068

  Mulliken Charges: (a.u.)
   Center  Symbol    Alpha    Beta     Spin     Total
       1     H     0.45684  0.45684  0.00000  0.08632
       2     C     3.07995  3.07995  0.00000 -0.15990
       3     N     3.63243  3.63243  0.00000 -0.26485
       4     H     0.45285  0.45285  0.00000  0.09430
       5     H     0.47588  0.47588  0.00000  0.04823
       6     C     3.08196  3.08196  0.00000 -0.16392
       7     H     0.43945  0.43945  0.00000  0.12110
       8     H     0.46988  0.46988  0.00000  0.06025
       9     H     0.45802  0.45802  0.00000  0.08395
      10     H     0.45274  0.45274  0.00000  0.09452

   Total alpha = 13.00000, Total beta = 13.00000, Total charge = -0.00000

*** Psi4 exiting successfully. Buy a developer a beer!
