                              Psi4 1.0.54 Driver

  ==> Input File <==

--------------------------------------------------------------------------
set {
	reference rhf
	basis cc-pvtz
}

set_num_threads( 4 )
memory 2 gb

molecule MOL {
0 1

H	 -3.436473	 1.252944	 -1.023892
O	 -3.458596	 0.315260	 -0.960865
C	 -3.176635	 -0.080824	 0.355601
C	 -1.763371	 0.265266	 0.799691
H	 -3.321825	 -1.153438	 0.379502
H	 -3.895468	 0.357385	 1.043382
C	 -0.673390	 -0.426948	 -0.013392
H	 -1.631049	 1.344913	 0.747560
H	 -1.664587	 -0.001624	 1.849167
C	 0.737842	 -0.043159	 0.423759
H	 -0.806103	 -0.190518	 -1.063345
H	 -0.797221	 -1.503753	 0.074146
C	 1.824000	 -0.743224	 -0.390623
H	 0.850588	 1.033777	 0.343840
H	 0.868587	 -0.286314	 1.476203
C	 3.255957	 -0.453067	 0.062319
H	 1.718250	 -0.470599	 -1.438164
H	 1.658105	 -1.815850	 -0.339904
C	 4.113981	 -1.693394	 0.300074
H	 3.214638	 0.121846	 0.982397
H	 3.741495	 0.185392	 -0.671195
H	 3.650087	 -2.354151	 1.025526
H	 5.090148	 -1.417918	 0.682766
H	 4.270138	 -2.259576	 -0.610232

	symmetry c1
}
set optking {
	frozen_dihedral = ("
		20 16 13 17
	")
}

ee,wfn = optimize('scf', return_wfn=True)
oeprop( wfn, 'DIPOLE', 'QUADRUPOLE', 'MULLIKEN_CHARGES')
f=open( 'psi4out.xyz', 'w' )
f.write( "24  " )
f.write( str(ee) + "\n" )
f.write( MOL.save_string_xyz() )
f.close()
--------------------------------------------------------------------------

    Molecular point group: c1
  Charge       = 0
  Multiplicity = 1
  Basis Set: CC-PVTZ
  Basis Set:
  @DF-RHF Final Energy:  -349.37640027086292
    Total Energy =                       -349.3764002708626322
    Molecular point group: c1
  Basis Set: CC-PVTZ
  Basis Set:
  Basis Set: CC-PVTZ
  Basis Set:
  @DF-RHF Final Energy:  -349.37695439286705
    Total Energy =                       -349.3769543928669918
  Basis Set: CC-PVTZ
  Basis Set:
  Basis Set: CC-PVTZ
  Basis Set:
  @DF-RHF Final Energy:  -349.37702256573704
    Total Energy =                       -349.3770225657370929
  Basis Set: CC-PVTZ
  Basis Set:
  Charge       = 0
  Multiplicity = 1
  Basis Set: CC-PVTZ
  Basis Set:

    Orbital Energies (a.u.)
    -----------------------

    Doubly Occupied:

       1A    -20.546322     2A    -11.265551     3A    -11.215254
       4A    -11.211368     5A    -11.210918     6A    -11.208992
       7A    -11.208814     8A    -11.205922     9A     -1.364171
      10A     -1.088809    11A     -1.048778    12A     -0.988964
      13A     -0.914576    14A     -0.843590    15A     -0.798919
      16A     -0.788037    17A     -0.681709    18A     -0.656171
      19A     -0.628181    20A     -0.616382    21A     -0.594637
      22A     -0.587591    23A     -0.555537    24A     -0.538074
      25A     -0.528184    26A     -0.505934    27A     -0.495028
      28A     -0.474046    29A     -0.465932    30A     -0.460608
      31A     -0.456931    32A     -0.453107    33A     -0.420139

  @DF-RHF Final Energy:  -349.37702296026742

   => Energetics <=

    Nuclear Repulsion Energy =            381.2631036518717451
    One-Electron Energy =               -1229.2258902336716346
    Two-Electron Energy =                 498.5857636215325783
    DFT Exchange-Correlation Energy =       0.0000000000000000
    Empirical Dispersion Energy =           0.0000000000000000
    PCM Polarization Energy =               0.0000000000000000
    EFP Energy =                            0.0000000000000000
    Total Energy =                       -349.3770229602673680
    Molecular point group: c1
  Basis Set: CC-PVTZ
  Basis Set:

  -Total Gradient:
     Atom            X                  Y                   Z
    ------   -----------------  -----------------  -----------------
       1       -0.000000599872     0.000002905753    -0.000001371529
       2       -0.000015532401     0.000002661840    -0.000000812529
       3        0.000012084942     0.000001672889    -0.000010666415
       4       -0.000000215765     0.000045943725    -0.000048159865
       5        0.000001076484    -0.000003349746    -0.000001679060
       6       -0.000000792726     0.000002902255     0.000000896080
       7       -0.000064269713     0.000020628865     0.000009321318
       8        0.000002194493     0.000021483031     0.000021621463
       9        0.000007077895    -0.000013322347    -0.000022246249
      10       -0.000025296720    -0.000117067471     0.000067690018
      11       -0.000004606350    -0.000029093212    -0.000000815236
      12        0.000022760958     0.000004841127     0.000018707432
      13        0.000963467591    -0.002430395879    -0.001060720347
      14        0.000039539558     0.000018543732     0.000039965273
      15       -0.000021516801    -0.000011396013     0.000010077397
      16       -0.000112766777    -0.001882740839     0.001746617942
      17       -0.000739128133     0.002345952344     0.000588311858
      18        0.000039591748     0.000022371863     0.000074928691
      19        0.000064188893    -0.000097768995     0.000052172660
      20       -0.000133291601     0.002117249259    -0.001484015947
      21       -0.000009785357     0.000005594687     0.000022690834
      22       -0.000016912715    -0.000034221261    -0.000051032739
      23       -0.000007699568    -0.000017587667     0.000034577008
      24        0.000000431935     0.000024192060    -0.000006058060

  **** Optimization is complete! (in 4 steps) ****
    Final optimized geometry and variables:
    Molecular point group: c1

    Geometry (in Angstrom), charge = 0, multiplicity = 1:

    H           -3.401220895898     1.712996269655    -1.146867606788
    O           -3.467764205400     0.777342358854    -1.085165185497
    C           -3.235497053044     0.369322044878     0.237267546064
    C           -1.818524044962     0.649810838277     0.714639232953
    H           -3.430742975485    -0.695418904664     0.256766719364
    H           -3.949344060072     0.840534159085     0.908227866140
    C           -0.742757064287    -0.091769947575    -0.073582000341
    H           -1.635232054429     1.722211587902     0.666950471292
    H           -1.756706233148     0.378549025247     1.765775082053
    C            0.673560350238     0.228832976399     0.393966494230
    H           -0.841920502973     0.148032963091    -1.126464054190
    H           -0.916064153549    -1.162030742519     0.012275187366
    C            1.754127382785    -0.516399701198    -0.388090725853
    H            0.846796086729     1.299445480009     0.308407945514
    H            0.769850144296    -0.009113684634     1.451105233188
    C            3.186658485241    -0.157164820579     0.052560213561
    H            1.627081712218    -0.287267630216    -1.441457666110
    H            1.591696343167    -1.584680153692    -0.281633509228
    C            4.080376088492    -1.370768042498     0.286025422684
    H            3.150062200806     0.448149284626     0.952856336860
    H            3.646078191937     0.478112772768    -0.698101404381
    H            3.676587099829    -2.008083760987     1.065911418261
    H            5.079768269847    -1.073968973894     0.583764575888
    H            4.167092114167    -1.969564063638    -0.614663217753

  Mulliken Charges: (a.u.)
   Center  Symbol    Alpha    Beta     Spin     Total
       1     H     0.39532  0.39532  0.00000  0.20937
       2     O     4.20369  4.20369  0.00000 -0.40738
       3     C     2.97773  2.97773  0.00000  0.04453
       4     C     3.10209  3.10209  0.00000 -0.20419
       5     H     0.45890  0.45890  0.00000  0.08219
       6     H     0.46026  0.46026  0.00000  0.07949
       7     C     3.08876  3.08876  0.00000 -0.17753
       8     H     0.45906  0.45906  0.00000  0.08188
       9     H     0.45333  0.45333  0.00000  0.09335
      10     C     3.08986  3.08986  0.00000 -0.17973
      11     H     0.44655  0.44655  0.00000  0.10690
      12     H     0.45509  0.45509  0.00000  0.08982
      13     C     3.09148  3.09148  0.00000 -0.18296
      14     H     0.45442  0.45442  0.00000  0.09116
      15     H     0.45568  0.45568  0.00000  0.08863
      16     C     3.08783  3.08783  0.00000 -0.17567
      17     H     0.45133  0.45133  0.00000  0.09734
      18     H     0.45415  0.45415  0.00000  0.09170
      19     C     3.14752  3.14752  0.00000 -0.29503
      20     H     0.45489  0.45489  0.00000  0.09023
      21     H     0.45200  0.45200  0.00000  0.09599
      22     H     0.45601  0.45601  0.00000  0.08797
      23     H     0.44990  0.44990  0.00000  0.10021
      24     H     0.45414  0.45414  0.00000  0.09172

   Total alpha = 33.00000, Total beta = 33.00000, Total charge = -0.00000

*** Psi4 exiting successfully. Buy a developer a beer!
