  ==> Input File <==

--------------------------------------------------------------------------
set {
	reference rhf
	basis 6-31G*
}

set_num_threads( 4 )
memory 2 gb

molecule MOL {
0 1

O	 -3.182627	 0.574480	 -0.976344
C	 -2.668563	 0.129746	 -0.000350
C	 -3.294321	 0.168332	 1.370126
O	 -1.481751	 -0.454642	 0.000584
H	 -4.248537	 -0.343369	 1.331439
H	 -2.661361	 -0.290672	 2.115187
H	 -3.486758	 1.200942	 1.635764
C	 -0.334255	 0.388708	 0.000906
C	 0.891947	 -0.504646	 0.000751
H	 -0.365390	 1.025305	 -0.873475
H	 -0.365484	 1.024911	 0.875569
C	 2.191998	 0.301789	 0.000897
H	 0.855148	 -1.151283	 -0.871571
H	 0.855132	 -1.151660	 0.872805
C	 3.441114	 -0.581407	 0.000108
H	 2.215074	 0.954890	 -0.869742
H	 2.215465	 0.953923	 0.872248
C	 4.739576	 0.224112	 -0.001102
H	 3.419457	 -1.233487	 -0.870178
H	 3.420834	 -1.233096	 0.870717
H	 4.804918	 0.861552	 -0.878265
H	 5.606527	 -0.429058	 -0.001824
H	 4.806469	 0.861674	 0.875853

	symmetry c1
}
set optking {
	frozen_dihedral = ("
		1 2 4 8
	")
}

ee = optimize('scf')
oeprop('DIPOLE', 'QUADRUPOLE', 'MULLIKEN_CHARGES')
f=open( 'psi4out.xyz', 'w' )
f.write( "23  " )
f.write( str(ee) + "\n" )
f.write( MOL.save_string_xyz() )
f.close()
--------------------------------------------------------------------------

    Molecular point group: c1
  Charge       = 0
  Multiplicity = 1
  Basis Set: 6-31G*
  Basis Set:
  @DF-RHF Final Energy:  -422.95867031738817
    Total Energy =                       -422.9586703173889646
    Molecular point group: c1
  Basis Set: 6-31G*
  Basis Set:
  Basis Set: 6-31G*
  Basis Set:
  @DF-RHF Final Energy:  -422.95819181351652
    Total Energy =                       -422.9581918135163505
  Basis Set: 6-31G*
  Basis Set:
  Basis Set: 6-31G*
  Basis Set:
  @DF-RHF Final Energy:  -422.95952591989527
    Total Energy =                       -422.9595259198950998
  Basis Set: 6-31G*
  Basis Set:
  Basis Set: 6-31G*
  Basis Set:
  @DF-RHF Final Energy:  -422.96002026818047
    Total Energy =                       -422.9600202681808696
  Basis Set: 6-31G*
  Basis Set:
  @DF-RHF Final Energy:  -422.96002904160963
    Total Energy =                       -422.9600290416095731
  @DF-RHF Final Energy:  -422.96003758859518
    Total Energy =                       -422.9600375885960375
  @DF-RHF Final Energy:  -422.96005508261720
    Total Energy =                       -422.9600550826169183
  @DF-RHF Final Energy:  -422.96003830936718
    Total Energy =                       -422.9600383093670644
  @DF-RHF Final Energy:  -422.96022744220932
    Total Energy =                       -422.9602274422097707
  @DF-RHF Final Energy:  -422.96045033177921
    Total Energy =                       -422.9604503317796116
  @DF-RHF Final Energy:  -422.96058390299936
    Total Energy =                       -422.9605839029991330
  @DF-RHF Final Energy:  -422.96072660558559
    Total Energy =                       -422.9607266055846821
  @DF-RHF Final Energy:  -422.96079351888193
    Total Energy =                       -422.9607935188822694
  @DF-RHF Final Energy:  -422.96124983823375
    Total Energy =                       -422.9612498382340391
  @DF-RHF Final Energy:  -422.96161322148868
    Total Energy =                       -422.9616132214883919
  @DF-RHF Final Energy:  -422.96176068688283
    Total Energy =                       -422.9617606868827124
  @DF-RHF Final Energy:  -422.96198181727561
    Total Energy =                       -422.9619818172752730
  @DF-RHF Final Energy:  -422.96205842609220
    Total Energy =                       -422.9620584260920850
  @DF-RHF Final Energy:  -422.96201344502828
    Total Energy =                       -422.9620134450282194
  @DF-RHF Final Energy:  -422.96206105537721
    Total Energy =                       -422.9620610553768074
  @DF-RHF Final Energy:  -422.96206122304284
    Total Energy =                       -422.9620612230423831
  @DF-RHF Final Energy:  -422.96206124562138
    Total Energy =                       -422.9620612456214985
  @DF-RHF Final Energy:  -422.96206126888165
    Total Energy =                       -422.9620612688815982
  @DF-RHF Final Energy:  -422.96206129132401
    Total Energy =                       -422.9620612913226978
  @DF-RHF Final Energy:  -422.96206131484121
    Total Energy =                       -422.9620613148406392
  @DF-RHF Final Energy:  -422.96206139739388
    Total Energy =                       -422.9620613973941090
  @DF-RHF Final Energy:  -422.96206148104426
    Total Energy =                       -422.9620614810446568
  @DF-RHF Final Energy:  -422.96206153179622
    Total Energy =                       -422.9620615317958254
  @DF-RHF Final Energy:  -422.96178136600889
    Total Energy =                       -422.9617813660090633
  @DF-RHF Final Energy:  -422.96206075664014
    Total Energy =                       -422.9620607566398576
  @DF-RHF Final Energy:  -422.96206179813908
    Total Energy =                       -422.9620617981396435
  @DF-RHF Final Energy:  -422.96206191572537
    Total Energy =                       -422.9620619157254851
  @DF-RHF Final Energy:  -422.96206199079563
    Total Energy =                       -422.9620619907951777
  @DF-RHF Final Energy:  -422.96206205163185
    Total Energy =                       -422.9620620516325289
  @DF-RHF Final Energy:  -422.96206214784917
    Total Energy =                       -422.9620621478492239
  @DF-RHF Final Energy:  -422.96206217104873
    Total Energy =                       -422.9620621710485011
  Basis Set: 6-31G*
  Basis Set:
  @DF-RHF Final Energy:  -422.96206215973342
    Total Energy =                       -422.9620621597330228
  Basis Set: 6-31G*
  Basis Set:
  Basis Set: 6-31G*
  Basis Set:
  @DF-RHF Final Energy:  -422.96206197878803
    Total Energy =                       -422.9620619787882561
  Basis Set: 6-31G*
  Basis Set:
  Basis Set: 6-31G*
  Basis Set:
  @DF-RHF Final Energy:  -422.96206219434038
    Total Energy =                       -422.9620621943411152
  Basis Set: 6-31G*
  Basis Set:
  Charge       = 0
  Multiplicity = 1
  Basis Set: 6-31G*
  Basis Set:

    Orbital Energies (a.u.)
    -----------------------

    Doubly Occupied:

       1A    -20.582726     2A    -20.555158     3A    -11.376328
       4A    -11.291106     5A    -11.235951     6A    -11.226397
       7A    -11.225718     8A    -11.223041     9A    -11.214240
      10A     -1.457411    11A     -1.365322    12A     -1.094657
      13A     -1.037958    14A     -1.007602    15A     -0.933353
      16A     -0.842134    17A     -0.804577    18A     -0.774074
      19A     -0.697405    20A     -0.685327    21A     -0.654521
      22A     -0.648743    23A     -0.617852    24A     -0.590522
      25A     -0.583212    26A     -0.574188    27A     -0.559326
      28A     -0.548691    29A     -0.514939    30A     -0.502028
      31A     -0.492187    32A     -0.479157    33A     -0.473170
      34A     -0.471323    35A     -0.450454    36A     -0.433795

  @DF-RHF Final Energy:  -422.96206220501551

   => Energetics <=

    Nuclear Repulsion Energy =            448.6765845642161139
    One-Electron Energy =               -1464.8281088339194866
    Two-Electron Energy =                 593.1894620646878593
    DFT Exchange-Correlation Energy =       0.0000000000000000
    Empirical Dispersion Energy =           0.0000000000000000
    PCM Polarization Energy =               0.0000000000000000
    EFP Energy =                            0.0000000000000000
    Total Energy =                       -422.9620622050155134
    Molecular point group: c1
  Basis Set: 6-31G*
  Basis Set:

  -Total Gradient:
     Atom            X                  Y                   Z
    ------   -----------------  -----------------  -----------------
       1       -0.002614583036    -0.005019447033    -0.001180491147
       2        0.004228504978     0.008095373373     0.003817100470
       3       -0.000294603159    -0.000552587439    -0.000165576627
       4       -0.001268432746    -0.002448478606    -0.006332004390
       5        0.000001922435     0.000007202139     0.000004990606
       6        0.000008996126    -0.000018418859     0.000010010065
       7        0.000001531266     0.000004092666    -0.000005999572
       8       -0.000053602110    -0.000058045584     0.003848326779
       9       -0.000002527034    -0.000001595006    -0.000000989200
      10       -0.000002446479    -0.000003180057    -0.000004437390
      11       -0.000004252148    -0.000005096677     0.000001975972
      12       -0.000001823205     0.000001696124     0.000003360737
      13        0.000000877897    -0.000000868139     0.000001583157
      14        0.000000248904     0.000000130683     0.000002125498
      15        0.000000126048    -0.000000773310    -0.000002531235
      16        0.000000161730     0.000001690604     0.000003072506
      17       -0.000000206340    -0.000001693117     0.000002004574
      18        0.000000347825    -0.000000470238    -0.000001686820
      19       -0.000001772394    -0.000001830096     0.000000356581
      20        0.000001353751     0.000002275858     0.000000326072
      21        0.000000893853     0.000000193136    -0.000000527841
      22        0.000000097412    -0.000000051862    -0.000000332198
      23       -0.000000813567    -0.000000118563    -0.000000656594

    Molecular point group: c1

    Geometry (in Angstrom), charge = 0, multiplicity = 1:

    O           -3.148216568038     0.648734849174    -1.020311635244
    C           -2.692202827463     0.181283444791    -0.035161594044
    C           -3.402013303359     0.120800956360     1.290327189174
    O           -1.500666395729    -0.455135786690    -0.024807931005
    H           -3.564419433774    -0.918375704904     1.554841730902
    H           -2.784025874071     0.558451553557     2.067153685771
    H           -4.347673322800     0.639329452065     1.233013836711
    C           -0.336258032759     0.357982999104     0.010829065789
    C            0.875199569271    -0.551995268642    -0.058748989929
    H           -0.356871264408     1.046308741255    -0.826048949154
    H           -0.329888155554     0.937499849017     0.930604033932
    C            2.191096711958     0.227134286786    -0.022365495449
    H            0.810592193427    -1.137982882709    -0.970527299434
    H            0.831294365008    -1.252379251560     0.770385308171
    C            3.421155802029    -0.679513888647    -0.096613728258
    H            2.218164049049     0.934558345037    -0.849280974916
    H            2.239446211790     0.820391640593     0.889479852381
    C            4.736198103961     0.097811873124    -0.061708542738
    H            3.375367811635    -1.272176556740    -1.007293360216
    H            3.396731741912    -1.386394882487     0.729669935058
    H            4.805249920882     0.789606163253    -0.896345732505
    H            5.588880258812    -0.571583394418    -0.115950374474
    H            4.826771980068     0.675170161281     0.854055145419

  Mulliken Charges: (a.u.)
   Center  Symbol    Alpha    Beta     Spin     Total
       1     O     4.25244  4.25244  0.00000 -0.50487
       2     C     2.62556  2.62556  0.00000  0.74887
       3     C     3.28544  3.28544  0.00000 -0.57089
       4     O     4.32161  4.32161  0.00000 -0.64323
       5     H     0.39749  0.39749  0.00000  0.20501
       6     H     0.40713  0.40713  0.00000  0.18574
       7     H     0.39761  0.39761  0.00000  0.20479
       8     C     2.99464  2.99464  0.00000  0.01072
       9     C     3.16346  3.16346  0.00000 -0.32693
      10     H     0.41005  0.41005  0.00000  0.17990
      11     H     0.42551  0.42551  0.00000  0.14898
      12     C     3.16094  3.16094  0.00000 -0.32187
      13     H     0.40910  0.40910  0.00000  0.18179
      14     H     0.41374  0.41374  0.00000  0.17252
      15     C     3.15160  3.15160  0.00000 -0.30320
      16     H     0.42018  0.42018  0.00000  0.15964
      17     H     0.42267  0.42267  0.00000  0.15466
      18     C     3.23996  3.23996  0.00000 -0.47991
      19     H     0.42005  0.42005  0.00000  0.15989
      20     H     0.42129  0.42129  0.00000  0.15741
      21     H     0.42057  0.42057  0.00000  0.15885
      22     H     0.41752  0.41752  0.00000  0.16497
      23     H     0.42143  0.42143  0.00000  0.15715

   Total alpha = 36.00000, Total beta = 36.00000, Total charge =  0.00000
