  ==> Input File <==

--------------------------------------------------------------------------
set {
	reference rhf
	basis 6-31G*
}

set_num_threads( 4 )
memory 2 gb

molecule MOL {
0 1

H	 3.893188	 0.355400	 -0.101367
N	 3.092854	 -0.246221	 -0.068770
C	 1.865559	 0.531981	 0.018834
H	 3.199514	 -0.826043	 0.741946
C	 0.645745	 -0.382037	 -0.029944
H	 1.841966	 1.207024	 -0.831236
H	 1.815756	 1.155410	 0.915079
C	 -0.679275	 0.379305	 0.025956
H	 0.698998	 -0.976915	 -0.937203
H	 0.693479	 -1.083846	 0.802235
C	 -1.611769	 -0.114457	 1.133669
H	 -1.186731	 0.291205	 -0.933510
H	 -0.483902	 1.440828	 0.170334
C	 -2.936221	 0.646387	 1.183223
H	 -1.809433	 -1.174510	 0.990740
H	 -1.108318	 -0.025185	 2.093994
H	 -3.480072	 0.548022	 0.247880
H	 -3.575184	 0.273266	 1.977648
H	 -2.773600	 1.705986	 1.359845

	symmetry c1
}
set optking {
	frozen_dihedral = ("
		12 8 5 9
	")
}

ee = optimize('scf')
oeprop('DIPOLE', 'QUADRUPOLE', 'MULLIKEN_CHARGES')
f=open( 'psi4out.xyz', 'w' )
f.write( "19  " )
f.write( str(ee) + "\n" )
f.write( MOL.save_string_xyz() )
f.close()
--------------------------------------------------------------------------

    Molecular point group: c1
  Charge       = 0
  Multiplicity = 1
  Basis Set: 6-31G*
  Basis Set:
  @DF-RHF Final Energy:  -251.34668326838869
    Total Energy =                       -251.3466832683885741
    Molecular point group: c1
  Basis Set: 6-31G*
  Basis Set:
  Basis Set: 6-31G*
  Basis Set:
  @DF-RHF Final Energy:  -251.34687854474097
    Total Energy =                       -251.3468785447410596
  Basis Set: 6-31G*
  Basis Set:
  Basis Set: 6-31G*
  Basis Set:
  @DF-RHF Final Energy:  -251.34694172640002
    Total Energy =                       -251.3469417263999617
  Basis Set: 6-31G*
  Basis Set:
  Basis Set: 6-31G*
  Basis Set:
  @DF-RHF Final Energy:  -251.34694355327184
    Total Energy =                       -251.3469435532718990
  Basis Set: 6-31G*
  Basis Set:
  Charge       = 0
  Multiplicity = 1
  Basis Set: 6-31G*
  Basis Set:

    Orbital Energies (a.u.)
    -----------------------

    Doubly Occupied:

       1A    -15.532446     2A    -11.240084     3A    -11.214742
       4A    -11.212617     5A    -11.209115     6A    -11.207706
       7A     -1.176773     8A     -1.071409     9A     -0.997215
      10A     -0.900150    11A     -0.815510    12A     -0.788931
      13A     -0.661936    14A     -0.639157    15A     -0.616707
      16A     -0.593276    17A     -0.561835    18A     -0.548597
      19A     -0.534923    20A     -0.490429    21A     -0.488519
      22A     -0.465663    23A     -0.456339    24A     -0.447495
      25A     -0.381076

  @DF-RHF Final Energy:  -251.34694363075866

   => Energetics <=

    Nuclear Repulsion Energy =            246.1836010884515815
    One-Electron Energy =                -826.5557925895100198
    Two-Electron Energy =                 329.0252478702999497
    DFT Exchange-Correlation Energy =       0.0000000000000000
    Empirical Dispersion Energy =           0.0000000000000000
    PCM Polarization Energy =               0.0000000000000000
    EFP Energy =                            0.0000000000000000
    Total Energy =                       -251.3469436307584601
    Molecular point group: c1
  Basis Set: 6-31G*
  Basis Set:

  -Total Gradient:
     Atom            X                  Y                   Z
    ------   -----------------  -----------------  -----------------
       1        0.000000554561     0.000000982200    -0.000000168389
       2        0.000004194367    -0.000004897683    -0.000003628960
       3       -0.000009158028     0.000002787218     0.000001831937
       4       -0.000001629867     0.000001832941     0.000001170807
       5       -0.000956035410    -0.001740724938     0.001024698957
       6       -0.000000039448     0.000000135255    -0.000000090298
       7       -0.000000283115    -0.000005772724    -0.000001248706
       8        0.001013346452     0.001821173670    -0.000761097256
       9        0.000635240519     0.001170206382    -0.000720771008
      10        0.000000046540    -0.000003275767     0.000002195392
      11        0.000003213348    -0.000010978611    -0.000023559066
      12       -0.000700443068    -0.001240511117     0.000477999225
      13        0.000006805855    -0.000000798849    -0.000001909338
      14        0.000004254310     0.000010937131     0.000007472601
      15        0.000004640447    -0.000007403841     0.000001871040
      16       -0.000004243183     0.000005835491    -0.000007421614
      17        0.000006089014    -0.000003034646     0.000002601740
      18       -0.000001978229     0.000000457804     0.000001428367
      19       -0.000004575064     0.000003050083    -0.000001375432

  **** Optimization is complete! (in 5 steps) ****
    Final optimized geometry and variables:
    Molecular point group: c1

    Geometry (in Angstrom), charge = 0, multiplicity = 1:

    H            3.805023145848     0.217238249488    -0.513008920241
    N            3.005998519503    -0.385662974418    -0.473493118313
    C            1.778728413731     0.388073495085    -0.366380081069
    H            3.124077004136    -0.971511006656     0.331340431181
    C            0.558403201737    -0.527952769832    -0.403055784452
    H            1.740823148841     1.067923916057    -1.212333612379
    H            1.736435908749     1.006874711439     0.533896622905
    C           -0.777491189116     0.242787831148    -0.345466764121
    H            0.621582559540    -1.123145171614    -1.307506751484
    H            0.621165851177    -1.225427820201     0.430243622232
    C           -1.722734623272    -0.251499975361     0.752941143015
    H           -1.288744384042     0.162612381658    -1.301213368159
    H           -0.588880816191     1.303505296391    -0.191306201536
    C           -3.047604637362     0.508245840140     0.789431861401
    H           -1.917317401775    -1.312025707192     0.607544926605
    H           -1.227560657470    -0.162654327813     1.717978504725
    H           -3.582747641955     0.408219340536    -0.150756413991
    H           -3.693835467235     0.136235254568     1.578582256009
    H           -2.887176610969     1.568347757123     0.965601619828

  Mulliken Charges: (a.u.)
   Center  Symbol    Alpha    Beta     Spin     Total
       1     H     0.33237  0.33237  0.00000  0.33525
       2     N     3.92227  3.92227  0.00000 -0.84455
       3     C     3.06295  3.06295  0.00000 -0.12589
       4     H     0.33523  0.33523  0.00000  0.32954
       5     C     3.15410  3.15410  0.00000 -0.30821
       6     H     0.42040  0.42040  0.00000  0.15920
       7     H     0.43493  0.43493  0.00000  0.13014
       8     C     3.15784  3.15784  0.00000 -0.31568
       9     H     0.41043  0.41043  0.00000  0.17914
      10     H     0.42502  0.42502  0.00000  0.14997
      11     C     3.15283  3.15283  0.00000 -0.30567
      12     H     0.41978  0.41978  0.00000  0.16043
      13     H     0.42256  0.42256  0.00000  0.15489
      14     C     3.24003  3.24003  0.00000 -0.48005
      15     H     0.42196  0.42196  0.00000  0.15609
      16     H     0.42417  0.42417  0.00000  0.15166
      17     H     0.42154  0.42154  0.00000  0.15691
      18     H     0.41947  0.41947  0.00000  0.16107
      19     H     0.42212  0.42212  0.00000  0.15577

   Total alpha = 25.00000, Total beta = 25.00000, Total charge =  0.00000
