  ==> Input File <==

--------------------------------------------------------------------------
set {
	reference rhf
	basis 6-31G*
}

set_num_threads( 4 )
memory 2 gb

molecule MOL {
0 1

H	 2.937353	 0.618458	 1.187763
N	 2.065193	 0.125671	 1.184457
C	 1.267428	 0.496480	 0.024474
H	 1.589587	 0.373375	 2.031425
C	 -0.016086	 -0.325158	 -0.029487
H	 1.860505	 0.293490	 -0.862143
H	 1.017990	 1.560167	 -0.002560
C	 -1.282277	 0.529072	 0.046735
H	 -0.012495	 -0.908639	 -0.945788
H	 -0.015903	 -1.041248	 0.791956
C	 -2.563920	 -0.301775	 -0.006060
H	 -1.284084	 1.244622	 -0.773004
H	 -1.271387	 1.115393	 0.963286
H	 -2.621848	 -0.873522	 -0.927727
H	 -3.445135	 0.329952	 0.047812
H	 -2.609542	 -1.004582	 0.821105

	symmetry c1
}
set optking {
	frozen_dihedral = ("
		6 3 5 9
	")
}

ee = optimize('scf')
oeprop('DIPOLE', 'QUADRUPOLE', 'MULLIKEN_CHARGES')
f=open( 'psi4out.xyz', 'w' )
f.write( "16  " )
f.write( str(ee) + "\n" )
f.write( MOL.save_string_xyz() )
f.close()
--------------------------------------------------------------------------

    Molecular point group: c1
  Charge       = 0
  Multiplicity = 1
  Basis Set: 6-31G*
  Basis Set:
  @DF-RHF Final Energy:  -212.31047662947120
    Total Energy =                       -212.3104766294711681
    Molecular point group: c1
  Basis Set: 6-31G*
  Basis Set:
  Basis Set: 6-31G*
  Basis Set:
  @DF-RHF Final Energy:  -212.31084651555767
    Total Energy =                       -212.3108465155576710
  Basis Set: 6-31G*
  Basis Set:
  Basis Set: 6-31G*
  Basis Set:
  @DF-RHF Final Energy:  -212.31096786446386
    Total Energy =                       -212.3109678644640894
  Basis Set: 6-31G*
  Basis Set:
  Basis Set: 6-31G*
  Basis Set:
  @DF-RHF Final Energy:  -212.31096532822500
    Total Energy =                       -212.3109653282246541
  Basis Set: 6-31G*
  Basis Set:
  Basis Set: 6-31G*
  Basis Set:
  @DF-RHF Final Energy:  -212.31097021721854
    Total Energy =                       -212.3109702172184257
  Basis Set: 6-31G*
  Basis Set:
  Charge       = 0
  Multiplicity = 1
  Basis Set: 6-31G*
  Basis Set:

    Orbital Energies (a.u.)
    -----------------------

    Doubly Occupied:

       1A    -15.532756     2A    -11.240065     3A    -11.215992
       4A    -11.209550     5A    -11.208268     6A     -1.175567
       7A     -1.058427     8A     -0.956969     9A     -0.846956
      10A     -0.790556    11A     -0.666647    12A     -0.628028
      13A     -0.610522    14A     -0.578162    15A     -0.554480
      16A     -0.528053    17A     -0.508498    18A     -0.472298
      19A     -0.464896    20A     -0.453656    21A     -0.379893

  @DF-RHF Final Energy:  -212.31097032085074

   => Energetics <=

    Nuclear Repulsion Energy =            186.6858703201244793
    One-Electron Energy =                -655.8332036131126870
    Two-Electron Energy =                 256.8363629721375219
    DFT Exchange-Correlation Energy =       0.0000000000000000
    Empirical Dispersion Energy =           0.0000000000000000
    PCM Polarization Energy =               0.0000000000000000
    EFP Energy =                            0.0000000000000000
    Total Energy =                       -212.3109703208506858
    Molecular point group: c1
  Basis Set: 6-31G*
  Basis Set:

  -Total Gradient:
     Atom            X                  Y                   Z
    ------   -----------------  -----------------  -----------------
       1        0.000002818659    -0.000000363836     0.000003161301
       2       -0.000011931745     0.000010254673     0.000001107078
       3        0.000353893395    -0.000598063431     0.000356522203
       4        0.000004711473    -0.000001339063     0.000011209806
       5       -0.000348253552     0.000588561754    -0.000366411280
       6       -0.000239526175     0.000397876883    -0.000259765973
       7        0.000002679804     0.000000629192     0.000007293663
       8        0.000003670663    -0.000004379176     0.000001567052
       9        0.000235478989    -0.000390100705     0.000246666265
      10       -0.000003271405    -0.000001982474     0.000001336852
      11       -0.000001075830     0.000002348715    -0.000001465710
      12       -0.000003555475    -0.000001996449    -0.000000620408
      13        0.000004336027    -0.000002505081    -0.000001256009
      14        0.000001772062    -0.000001488483     0.000000746450
      15       -0.000001856471    -0.000000724503    -0.000001440666
      16        0.000000109582     0.000003271983     0.000001349377

  **** Optimization is complete! (in 6 steps) ****
    Final optimized geometry and variables:
    Molecular point group: c1

    Geometry (in Angstrom), charge = 0, multiplicity = 1:

    H            3.020670613814     0.525714886681     0.943595365563
    N            2.160404361737     0.011855024956     0.927042974239
    C            1.365602820704     0.382078408226    -0.238097182251
    H            1.671146931650     0.243306069833     1.771252449524
    C            0.060057522061    -0.435254073888    -0.305903754186
    H            1.971795165423     0.189682090248    -1.116206016149
    H            1.127039760060     1.447619784967    -0.260990726771
    C           -1.209002627800     0.416761196862    -0.227398651968
    H            0.037759632619    -1.023054219688    -1.219716497547
    H            0.065846043980    -1.155291189413     0.507320368371
    C           -2.488739295213    -0.416838081136    -0.263460184381
    H           -1.218908458361     1.128502044893    -1.050271589679
    H           -1.189649132873     1.009851218606     0.685514747243
    H           -2.552481337697    -0.996389650702    -1.180153193268
    H           -3.371343207379     0.212954297881    -0.208324479128
    H           -2.526004803062    -1.113544213428     0.569217800166

  Mulliken Charges: (a.u.)
   Center  Symbol    Alpha    Beta     Spin     Total
       1     H     0.33363  0.33363  0.00000  0.33273
       2     N     3.92022  3.92022  0.00000 -0.84043
       3     C     3.06469  3.06469  0.00000 -0.12938
       4     H     0.33600  0.33600  0.00000  0.32799
       5     C     3.15957  3.15957  0.00000 -0.31914
       6     H     0.41809  0.41809  0.00000  0.16383
       7     H     0.43162  0.43162  0.00000  0.13675
       8     C     3.15482  3.15482  0.00000 -0.30963
       9     H     0.41929  0.41929  0.00000  0.16141
      10     H     0.41193  0.41193  0.00000  0.17614
      11     C     3.23964  3.23964  0.00000 -0.47928
      12     H     0.42293  0.42293  0.00000  0.15415
      13     H     0.42566  0.42566  0.00000  0.14867
      14     H     0.42120  0.42120  0.00000  0.15760
      15     H     0.41960  0.41960  0.00000  0.16081
      16     H     0.42111  0.42111  0.00000  0.15778

   Total alpha = 21.00000, Total beta = 21.00000, Total charge =  0.00000
