                              Psi4 1.0.54 Driver

  ==> Input File <==

--------------------------------------------------------------------------
set {
	reference rhf
	basis cc-pvtz
}

set_num_threads( 4 )
memory 2 gb

molecule MOL {
0 1

H	 2.587682	 -0.739888	 1.085652
N	 1.610839	 -0.543969	 1.103063
C	 0.845149	 -1.727608	 0.767564
C	 1.294714	 0.562363	 0.222190
H	 1.091693	 -2.518526	 1.465430
H	 1.061275	 -2.089114	 -0.239521
C	 -0.636691	 -1.412524	 0.862152
H	 1.867023	 1.430811	 0.524866
H	 1.539244	 0.345538	 -0.819352
C	 -0.187715	 0.874447	 0.317493
H	 -0.889226	 -1.200812	 1.905222
H	 -1.210781	 -2.278592	 0.554798
N	 -0.976577	 -0.298712	 -0.000000
H	 -0.437167	 1.662002	 -0.383684
H	 -0.409319	 1.243711	 1.323041
C	 -2.391156	 -0.021003	 -0.000000
H	 -2.853954	 -0.458728	 -0.875714
H	 -2.853954	 -0.458728	 0.875714
H	 -2.614037	 1.049773	 -0.000000

	symmetry c1
}
set optking {
	frozen_dihedral = ("
		7 13 16 19
	")
}

ee,wfn = optimize('scf', return_wfn=True)
oeprop( wfn, 'DIPOLE', 'QUADRUPOLE', 'MULLIKEN_CHARGES')
f=open( 'psi4out.xyz', 'w' )
f.write( "19  " )
f.write( str(ee) + "\n" )
f.write( MOL.save_string_xyz() )
f.close()
--------------------------------------------------------------------------

    Molecular point group: c1
  Charge       = 0
  Multiplicity = 1
  Basis Set: CC-PVTZ
  Basis Set:
  @DF-RHF Final Energy:  -305.30327047145829
    Total Energy =                       -305.3032704714580632
    Molecular point group: c1
  Basis Set: CC-PVTZ
  Basis Set:
  Basis Set: CC-PVTZ
  Basis Set:
  @DF-RHF Final Energy:  -305.30391551287681
    Total Energy =                       -305.3039155128766424
  Basis Set: CC-PVTZ
  Basis Set:
  Basis Set: CC-PVTZ
  Basis Set:
  @DF-RHF Final Energy:  -305.30402114717219
    Total Energy =                       -305.3040211471726479
  Basis Set: CC-PVTZ
  Basis Set:
  Charge       = 0
  Multiplicity = 1
  Basis Set: CC-PVTZ
  Basis Set:

    Orbital Energies (a.u.)
    -----------------------

    Doubly Occupied:

       1A    -15.534738     2A    -15.530696     3A    -11.236641
       4A    -11.236610     5A    -11.235734     6A    -11.235595
       7A    -11.232934     8A     -1.246918     9A     -1.185806
      10A     -1.023336    11A     -0.964958    12A     -0.860956
      13A     -0.859070    14A     -0.757666    15A     -0.692124
      16A     -0.632196    17A     -0.624537    18A     -0.607626
      19A     -0.605248    20A     -0.581424    21A     -0.543698
      22A     -0.535166    23A     -0.511855    24A     -0.488576
      25A     -0.466271    26A     -0.457289    27A     -0.365456
      28A     -0.345058

  @DF-RHF Final Energy:  -305.30402329635757

   => Energetics <=

    Nuclear Repulsion Energy =            339.9092118308485055
    One-Electron Energy =               -1087.2301000476113586
    Two-Electron Energy =                 442.0168649204051121
    DFT Exchange-Correlation Energy =       0.0000000000000000
    Empirical Dispersion Energy =           0.0000000000000000
    PCM Polarization Energy =               0.0000000000000000
    EFP Energy =                            0.0000000000000000
    Total Energy =                       -305.3040232963576841
    Molecular point group: c1
  Basis Set: CC-PVTZ
  Basis Set:

  -Total Gradient:
     Atom            X                  Y                   Z
    ------   -----------------  -----------------  -----------------
       1       -0.000023060519     0.000010333832    -0.000008773133
       2       -0.000025633751    -0.000000667927     0.000000733284
       3        0.000023238161     0.000012721193    -0.000079051196
       4        0.000047492511     0.000090783192     0.000064139763
       5       -0.000002730157     0.000009078763     0.000001221841
       6        0.000018065474    -0.000015668695    -0.000010897735
       7        0.000305677538     0.001876943596     0.002253798436
       8        0.000079678591    -0.000000067065     0.000008395502
       9       -0.000033243984    -0.000003836735     0.000034483396
      10        0.000065304936    -0.000104252277    -0.000077242695
      11       -0.000025647964     0.000008890448     0.000004095793
      12       -0.000000483890     0.000025792358    -0.000011634181
      13       -0.000574533852    -0.002515534862    -0.001980062249
      14        0.000007009296    -0.000024491793     0.000009825588
      15        0.000028352783    -0.000004959213    -0.000021049974
      16        0.000218281598     0.000737501933    -0.003963270209
      17       -0.000030158535    -0.000003079152    -0.000037668572
      18        0.000004506089    -0.000009215627    -0.000000070153
      19       -0.000082114326    -0.000090271971     0.003813026496

  **** Optimization is complete! (in 4 steps) ****
    Final optimized geometry and variables:
    Molecular point group: c1

    Geometry (in Angstrom), charge = 0, multiplicity = 1:

    H            2.662234671322    -0.412606123222     0.598468249433
    N            1.688025804368    -0.204865136312     0.626704577332
    C            0.904195467006    -1.374620681034     0.285817450880
    C            1.377800578007     0.914341999761    -0.239404912811
    H            1.142769115519    -2.174791551849     0.976134570916
    H            1.109265884207    -1.731348116192    -0.725370235778
    C           -0.572035821853    -1.038395615681     0.391928890189
    H            1.963065118476     1.772900099111     0.067475984106
    H            1.611033262008     0.705491177012    -1.285266556627
    C           -0.100190028690     1.244494460798    -0.131687982469
    H           -0.815550507098    -0.827653305159     1.436973122738
    H           -1.158794134809    -1.896903727254     0.085708593458
    N           -0.905555529678     0.084036871566    -0.461883252761
    H           -0.337684451539     2.042667730813    -0.824132214146
    H           -0.308942748901     1.607298999169     0.878919329840
    C           -2.330950980611     0.361070203685    -0.480589483342
    H           -2.804479250773    -0.067994686014    -1.356162050051
    H           -2.832268413561    -0.038609670976     0.399634574530
    H           -2.515588545393     1.427654113143    -0.471441982641

  Mulliken Charges: (a.u.)
   Center  Symbol    Alpha    Beta     Spin     Total
       1     H     0.44001  0.44001  0.00000  0.11998
       2     N     3.64283  3.64283  0.00000 -0.28565
       3     C     3.04183  3.04183  0.00000 -0.08365
       4     C     3.04205  3.04205  0.00000 -0.08410
       5     H     0.45269  0.45269  0.00000  0.09462
       6     H     0.46572  0.46572  0.00000  0.06855
       7     C     3.03553  3.03553  0.00000 -0.07106
       8     H     0.45266  0.45266  0.00000  0.09467
       9     H     0.46586  0.46586  0.00000  0.06829
      10     C     3.03408  3.03408  0.00000 -0.06816
      11     H     0.46812  0.46812  0.00000  0.06375
      12     H     0.45350  0.45350  0.00000  0.09300
      13     N     3.61729  3.61729  0.00000 -0.23457
      14     H     0.45379  0.45379  0.00000  0.09241
      15     H     0.46882  0.46882  0.00000  0.06235
      16     C     3.09274  3.09274  0.00000 -0.18548
      17     H     0.44961  0.44961  0.00000  0.10079
      18     H     0.46517  0.46517  0.00000  0.06967
      19     H     0.45771  0.45771  0.00000  0.08459

   Total alpha = 28.00000, Total beta = 28.00000, Total charge =  0.00000

*** Psi4 exiting successfully. Buy a developer a beer!
