  ==> Input File <==

--------------------------------------------------------------------------
set {
	reference rhf
	basis 6-31G*
}

set_num_threads( 4 )
memory 2 gb

molecule MOL {
0 1

H	 2.591676	 2.013956	 0.335017
O	 3.341076	 1.666752	 -0.126416
C	 3.569581	 0.339145	 0.272707
C	 2.539767	 -0.640285	 -0.279495
H	 4.553106	 0.084646	 -0.100901
H	 3.608576	 0.269204	 1.359154
C	 1.115811	 -0.397273	 0.226630
H	 2.556196	 -0.582511	 -1.364741
H	 2.852081	 -1.648031	 -0.010655
C	 0.470018	 -1.659861	 0.804248
H	 0.506497	 -0.018917	 -0.589426
H	 1.131169	 0.378373	 0.992448
C	 -0.925817	 -1.452725	 1.403482
H	 0.419382	 -2.422634	 0.029354
H	 1.121578	 -2.058368	 1.579078
C	 -2.012156	 -1.077071	 0.391934
H	 -1.222119	 -2.371620	 1.905132
H	 -0.874662	 -0.689140	 2.178180
C	 -3.404722	 -0.984858	 1.019383
H	 -2.028071	 -1.815353	 -0.408564
H	 -1.774401	 -0.124986	 -0.076372
C	 -4.489980	 -0.603745	 0.013088
H	 -3.656892	 -1.938766	 1.477595
H	 -3.388334	 -0.254662	 1.825876
H	 -4.553686	 -1.332857	 -0.789758
H	 -5.464942	 -0.548516	 0.487465
H	 -4.285992	 0.364074	 -0.436443

	symmetry c1
}
set optking {
	frozen_dihedral = ("
		10 7 4 8
	")
}

ee = optimize('scf')
oeprop('DIPOLE', 'QUADRUPOLE', 'MULLIKEN_CHARGES')
f=open( 'psi4out.xyz', 'w' )
f.write( "27  " )
f.write( str(ee) + "\n" )
f.write( MOL.save_string_xyz() )
f.close()
--------------------------------------------------------------------------

    Molecular point group: c1
  Charge       = 0
  Multiplicity = 1
  Basis Set: 6-31G*
  Basis Set:
  @DF-RHF Final Energy:  -388.27652133905491
    Total Energy =                       -388.2765213390548524
    Molecular point group: c1
  Basis Set: 6-31G*
  Basis Set:
  Basis Set: 6-31G*
  Basis Set:
  @DF-RHF Final Energy:  -388.27688300048862
    Total Energy =                       -388.2768830004886240
  Basis Set: 6-31G*
  Basis Set:
  Basis Set: 6-31G*
  Basis Set:
  @DF-RHF Final Energy:  -388.27697520532854
    Total Energy =                       -388.2769752053281991
  Basis Set: 6-31G*
  Basis Set:
  Basis Set: 6-31G*
  Basis Set:
  @DF-RHF Final Energy:  -388.27698347200089
    Total Energy =                       -388.2769834720006656
  Basis Set: 6-31G*
  Basis Set:
  Basis Set: 6-31G*
  Basis Set:
  @DF-RHF Final Energy:  -388.27698514448520
    Total Energy =                       -388.2769851444854794
  Basis Set: 6-31G*
  Basis Set:
  Charge       = 0
  Multiplicity = 1
  Basis Set: 6-31G*
  Basis Set:

    Orbital Energies (a.u.)
    -----------------------

    Doubly Occupied:

       1A    -20.551372     2A    -11.266559     3A    -11.221582
       4A    -11.219181     5A    -11.216721     6A    -11.216618
       7A    -11.215627     8A    -11.214993     9A    -11.209764
      10A     -1.358449    11A     -1.095503    12A     -1.060900
      13A     -1.011444    14A     -0.948718    15A     -0.888693
      16A     -0.822309    17A     -0.801956    18A     -0.779448
      19A     -0.695446    20A     -0.648228    21A     -0.627757
      22A     -0.621879    23A     -0.605747    24A     -0.584994
      25A     -0.575761    26A     -0.555484    27A     -0.542751
      28A     -0.525924    29A     -0.510248    30A     -0.497344
      31A     -0.485370    32A     -0.475811    33A     -0.468861
      34A     -0.461901    35A     -0.448114    36A     -0.440301
      37A     -0.424636

  @DF-RHF Final Energy:  -388.27698526265885

   => Energetics <=

    Nuclear Repulsion Energy =            458.5080156103251738
    One-Electron Energy =               -1434.9772181695782365
    Two-Electron Energy =                 588.1922172965939808
    DFT Exchange-Correlation Energy =       0.0000000000000000
    Empirical Dispersion Energy =           0.0000000000000000
    PCM Polarization Energy =               0.0000000000000000
    EFP Energy =                            0.0000000000000000
    Total Energy =                       -388.2769852626590819
    Molecular point group: c1
  Basis Set: 6-31G*
  Basis Set:

  -Total Gradient:
     Atom            X                  Y                   Z
    ------   -----------------  -----------------  -----------------
       1        0.000022318827     0.000006783876    -0.000015517330
       2       -0.000025522349     0.000013726616    -0.000022640735
       3        0.000032070750    -0.000020780361     0.000045590097
       4       -0.000372307900    -0.002759672263     0.000362507103
       5        0.000019713444    -0.000008577761     0.000019052631
       6       -0.000009623977    -0.000000018132    -0.000014793531
       7       -0.000738161612     0.000059603044    -0.002138581495
       8        0.000448939197     0.002369551527     0.000186938154
       9       -0.000004643655     0.000018023152     0.000011231100
      10        0.000656176492     0.000366802037     0.001533322360
      11        0.000020809932    -0.000030270370    -0.000015462416
      12       -0.000007072513    -0.000033902116     0.000013976525
      13       -0.000001243422     0.000000514469     0.000037885622
      14       -0.000005188590     0.000008698297     0.000009857326
      15        0.000027829176     0.000015099557    -0.000021896018
      16       -0.000008803779     0.000025271263    -0.000001819956
      17       -0.000033214152     0.000007248536    -0.000003518801
      18       -0.000005542435    -0.000010641078     0.000010515469
      19        0.000001334915    -0.000003514239    -0.000009495568
      20       -0.000006306216     0.000003647760     0.000004433733
      21       -0.000011145786    -0.000018613825     0.000009062433
      22       -0.000001369743    -0.000008225772    -0.000000244628
      23       -0.000000788446    -0.000000745980     0.000006803114
      24        0.000001561091     0.000001265664    -0.000006919722
      25       -0.000001171414     0.000000371138    -0.000001735137
      26       -0.000000458046    -0.000001196619    -0.000000183283
      27        0.000001810199    -0.000000448427     0.000001632956

  **** Optimization is complete! (in 6 steps) ****
    Final optimized geometry and variables:
    Molecular point group: c1

    Geometry (in Angstrom), charge = 0, multiplicity = 1:

    H            2.487823626755     2.475231685327    -0.165135587244
    O            3.289153855038     2.154944166157    -0.554354931232
    C            3.522133572495     0.834478943650    -0.136351226995
    C            2.490813088294    -0.147924115818    -0.680438367127
    H            4.507076748612     0.579704220431    -0.505951083413
    H            3.557694350432     0.778342137048     0.951211888699
    C            1.061086120245     0.094222597959    -0.147004581550
    H            2.505709653237    -0.062086427011    -1.762429189218
    H            2.816913804955    -1.155167565500    -0.432576298359
    C            0.401701016612    -1.173834519499     0.405246362867
    H            0.446596292297     0.527006981813    -0.928678131067
    H            1.085435996412     0.830094052575     0.657719442610
    C           -0.995362465977    -0.967811223658     1.000962351671
    H            0.350826673777    -1.924810863259    -0.381575659625
    H            1.049370626290    -1.587190729284     1.175562618111
    C           -2.078339074488    -0.586767340912    -0.012329604613
    H           -1.294450663128    -1.888538185264     1.497559819753
    H           -0.945957514844    -0.207947733085     1.779648606489
    C           -3.472045662643    -0.492025341828     0.612238006313
    H           -2.094557181289    -1.324004922236    -0.813786961666
    H           -1.837101528912     0.365204967109    -0.478754335499
    C           -4.554584786227    -0.110410972977    -0.396766327764
    H           -3.726538716323    -1.445076184706     1.070989999188
    H           -3.456331512999     0.239077266784     1.417910383678
    H           -4.617929378062    -0.840544992180    -1.198714273801
    H           -5.530368139998    -0.052978656437     0.075616024710
    H           -4.348001981141     0.856427341104    -0.847134213483

  Mulliken Charges: (a.u.)
   Center  Symbol    Alpha    Beta     Spin     Total
       1     H     0.27969  0.27969  0.00000  0.44061
       2     O     4.37166  4.37166  0.00000 -0.74333
       3     C     2.99869  2.99869  0.00000  0.00262
       4     C     3.16450  3.16450  0.00000 -0.32899
       5     H     0.41535  0.41535  0.00000  0.16930
       6     H     0.43224  0.43224  0.00000  0.13552
       7     C     3.16448  3.16448  0.00000 -0.32895
       8     H     0.41229  0.41229  0.00000  0.17542
       9     H     0.42038  0.42038  0.00000  0.15925
      10     C     3.15477  3.15477  0.00000 -0.30954
      11     H     0.41354  0.41354  0.00000  0.17291
      12     H     0.43093  0.43093  0.00000  0.13813
      13     C     3.15436  3.15436  0.00000 -0.30872
      14     H     0.42159  0.42159  0.00000  0.15681
      15     H     0.42157  0.42157  0.00000  0.15687
      16     C     3.15252  3.15252  0.00000 -0.30504
      17     H     0.42101  0.42101  0.00000  0.15798
      18     H     0.42447  0.42447  0.00000  0.15105
      19     C     3.15122  3.15122  0.00000 -0.30243
      20     H     0.42386  0.42386  0.00000  0.15228
      21     H     0.42285  0.42285  0.00000  0.15431
      22     C     3.23924  3.23924  0.00000 -0.47848
      23     H     0.42291  0.42291  0.00000  0.15418
      24     H     0.42325  0.42325  0.00000  0.15351
      25     H     0.42158  0.42158  0.00000  0.15684
      26     H     0.41914  0.41914  0.00000  0.16171
      27     H     0.42191  0.42191  0.00000  0.15618

   Total alpha = 37.00000, Total beta = 37.00000, Total charge = -0.00000
