  ==> Input File <==

--------------------------------------------------------------------------
set {
	reference rhf
	basis 6-31G*
}

set_num_threads( 1 )
memory 2 gb

molecule MOL {
0 1

H	 3.893188	 0.355400	 -0.101367
N	 3.092854	 -0.246221	 -0.068770
C	 1.865559	 0.531981	 0.018834
H	 3.199514	 -0.826043	 0.741946
C	 0.645745	 -0.382037	 -0.029944
H	 1.841966	 1.207024	 -0.831236
H	 1.815756	 1.155410	 0.915079
C	 -0.679275	 0.379305	 0.025956
H	 0.698998	 -0.976915	 -0.937203
H	 0.693479	 -1.083846	 0.802235
C	 -0.806595	 1.277747	 1.257608
H	 -1.504373	 -0.331298	 0.015621
H	 -0.789178	 0.986038	 -0.871620
C	 -2.133818	 2.033453	 1.311454
H	 -0.698428	 0.673525	 2.155622
H	 0.015164	 1.990650	 1.269255
H	 -2.975293	 1.346676	 1.335411
H	 -2.194168	 2.660758	 2.195451
H	 -2.256077	 2.674025	 0.442483

	symmetry c1
}
set optking {
	frozen_dihedral = ("
		6 3 5 9,
		12 8 11 15,
		1 2 3 6
	")
}

ee = energy('scf')
oeprop('DIPOLE', 'QUADRUPOLE', 'MULLIKEN_CHARGES')
f=open( 'psi4out.xyz', 'w' )
f.write( "19  " )
f.write( str(ee) + "\n" )
f.write( MOL.save_string_xyz() )
f.close()
--------------------------------------------------------------------------

    Molecular point group: c1

    Geometry (in Angstrom), charge = 0, multiplicity = 1:

       Center              X                  Y                   Z               Mass
    ------------   -----------------  -----------------  -----------------  -----------------
           H          3.528535035952    -0.247848873953    -0.528799098451     1.007825032070
           N          2.728201035952    -0.849469873953    -0.496202098451    14.003074004780
           C          1.500906035952    -0.071267873953    -0.408598098451    12.000000000000
           H          2.834861035952    -1.429291873953     0.314513901549     1.007825032070
           C          0.281092035952    -0.985285873953    -0.457376098451    12.000000000000
           H          1.477313035952     0.603775126047    -1.258668098451     1.007825032070
           H          1.451103035952     0.552161126047     0.487646901549     1.007825032070
           C         -1.043927964048    -0.223943873953    -0.401476098451    12.000000000000
           H          0.334345035952    -1.580163873953    -1.364635098451     1.007825032070
           H          0.328826035952    -1.687094873953     0.374802901549     1.007825032070
           C         -1.171247964048     0.674498126047     0.830175901549    12.000000000000
           H         -1.869025964048    -0.934546873953    -0.411811098451     1.007825032070
           H         -1.153830964048     0.382789126047    -1.299052098451     1.007825032070
           C         -2.498470964048     1.430204126047     0.884021901549    12.000000000000
           H         -1.063080964048     0.070276126047     1.728189901549     1.007825032070
           H         -0.349488964048     1.387401126047     0.841822901549     1.007825032070
           H         -3.339945964048     0.743427126047     0.907978901549     1.007825032070
           H         -2.558820964048     2.057509126047     1.768018901549     1.007825032070
           H         -2.620729964048     2.070776126047     0.015050901549     1.007825032070

  Charge       = 0
  Multiplicity = 1
  Basis Set: 6-31G*
  Basis Set:

    Orbital Energies (a.u.)
    -----------------------

    Doubly Occupied:

       1A    -15.531993     2A    -11.238616     3A    -11.214332
       4A    -11.212847     5A    -11.209498     6A    -11.208240
       7A     -1.176368     8A     -1.074764     9A     -0.996487
      10A     -0.898600    11A     -0.831787    12A     -0.775002
      13A     -0.656534    14A     -0.637384    15A     -0.632054
      16A     -0.585572    17A     -0.570782    18A     -0.546627
      19A     -0.528486    20A     -0.506095    21A     -0.481533
      22A     -0.463059    23A     -0.458521    24A     -0.450652
      25A     -0.378508

  @DF-RHF Final Energy:  -251.34808972131501

   => Energetics <=

    Nuclear Repulsion Energy =            250.4724118091772596
    One-Electron Energy =                -835.1123198854022576
    Two-Electron Energy =                 333.2918183549107312
    DFT Exchange-Correlation Energy =       0.0000000000000000
    Empirical Dispersion Energy =           0.0000000000000000
    PCM Polarization Energy =               0.0000000000000000
    EFP Energy =                            0.0000000000000000
    Total Energy =                       -251.3480897213142384

  Mulliken Charges: (a.u.)
   Center  Symbol    Alpha    Beta     Spin     Total
       1     H     0.33266  0.33266  0.00000  0.33468
       2     N     3.92201  3.92201  0.00000 -0.84401
       3     C     3.06373  3.06373  0.00000 -0.12747
       4     H     0.33546  0.33546  0.00000  0.32909
       5     C     3.15245  3.15245  0.00000 -0.30489
       6     H     0.42144  0.42144  0.00000  0.15711
       7     H     0.43110  0.43110  0.00000  0.13780
       8     C     3.15551  3.15551  0.00000 -0.31101
       9     H     0.41102  0.41102  0.00000  0.17796
      10     H     0.42785  0.42785  0.00000  0.14430
      11     C     3.15630  3.15630  0.00000 -0.31260
      12     H     0.42066  0.42066  0.00000  0.15869
      13     H     0.42339  0.42339  0.00000  0.15321
      14     C     3.23813  3.23813  0.00000 -0.47625
      15     H     0.42380  0.42380  0.00000  0.15240
      16     H     0.42099  0.42099  0.00000  0.15802
      17     H     0.42186  0.42186  0.00000  0.15628
      18     H     0.41987  0.41987  0.00000  0.16025
      19     H     0.42178  0.42178  0.00000  0.15644

   Total alpha = 25.00000, Total beta = 25.00000, Total charge = -0.00000
