                              Psi4 1.0.54 Driver

  ==> Input File <==

--------------------------------------------------------------------------
set {
	reference rhf
	basis cc-pvtz
}

set_num_threads( 4 )
memory 2 gb

molecule MOL {
0 1

H	 3.044796	 0.281312	 0.907776
O	 2.346028	 0.825700	 0.595654
C	 1.135873	 0.113391	 0.608264
C	 0.027642	 1.012027	 0.090274
H	 0.893145	 -0.201916	 1.619912
H	 1.217216	 -0.783094	 -0.000144
C	 -1.138737	 0.285728	 -0.581921
H	 0.464661	 1.708096	 -0.618252
H	 -0.340737	 1.603071	 0.925246
C	 -1.933983	 -0.631436	 0.343653
H	 -0.763151	 -0.285569	 -1.422081
H	 -1.808359	 1.035291	 -0.992333
H	 -2.789188	 -1.049673	 -0.174718
H	 -1.335629	 -1.461368	 0.700418
H	 -2.305435	 -0.092167	 1.209725

	symmetry c1
}
set optking {
	frozen_dihedral = ("
		2 3 4 8
	")
}

ee,wfn = optimize('scf', return_wfn=True)
oeprop( wfn, 'DIPOLE', 'QUADRUPOLE', 'MULLIKEN_CHARGES')
f=open( 'psi4out.xyz', 'w' )
f.write( "15  " )
f.write( str(ee) + "\n" )
f.write( MOL.save_string_xyz() )
f.close()
--------------------------------------------------------------------------

    Molecular point group: c1
  Charge       = 0
  Multiplicity = 1
  Basis Set: CC-PVTZ
  Basis Set:
  @DF-RHF Final Energy:  -232.23503026669232
    Total Energy =                       -232.2350302666923199
    Molecular point group: c1
  Basis Set: CC-PVTZ
  Basis Set:
  Basis Set: CC-PVTZ
  Basis Set:
  @DF-RHF Final Energy:  -232.23546427449381
    Total Energy =                       -232.2354642744936655
  Basis Set: CC-PVTZ
  Basis Set:
  Basis Set: CC-PVTZ
  Basis Set:
  @DF-RHF Final Energy:  -232.23548739908188
    Total Energy =                       -232.2354873990818760
  Basis Set: CC-PVTZ
  Basis Set:
  Basis Set: CC-PVTZ
  Basis Set:
  @DF-RHF Final Energy:  -232.23551796232405
    Total Energy =                       -232.2355179623241384
  Basis Set: CC-PVTZ
  Basis Set:
  Basis Set: CC-PVTZ
  Basis Set:
  @DF-RHF Final Energy:  -232.23552839152904
    Total Energy =                       -232.2355283915290443
  Basis Set: CC-PVTZ
  Basis Set:
  Charge       = 0
  Multiplicity = 1
  Basis Set: CC-PVTZ
  Basis Set:

    Orbital Energies (a.u.)
    -----------------------

    Doubly Occupied:

       1A    -20.545730     2A    -11.265437     3A    -11.216003
       4A    -11.209339     5A    -11.209292     6A     -1.363267
       7A     -1.070737     8A     -0.970857     9A     -0.870950
      10A     -0.784784    11A     -0.702370    12A     -0.649693
      13A     -0.611524    14A     -0.591350    15A     -0.558118
      16A     -0.536863    17A     -0.511094    18A     -0.475417
      19A     -0.473212    20A     -0.456507    21A     -0.434902

  @DF-RHF Final Energy:  -232.23552851780050

   => Energetics <=

    Nuclear Repulsion Energy =            188.4544202502573853
    One-Electron Energy =                -688.3650048008311160
    Two-Electron Energy =                 267.6750560327731137
    DFT Exchange-Correlation Energy =       0.0000000000000000
    Empirical Dispersion Energy =           0.0000000000000000
    PCM Polarization Energy =               0.0000000000000000
    EFP Energy =                            0.0000000000000000
    Total Energy =                       -232.2355285178006170
    Molecular point group: c1
  Basis Set: CC-PVTZ
  Basis Set:

  -Total Gradient:
     Atom            X                  Y                   Z
    ------   -----------------  -----------------  -----------------
       1       -0.000003479975     0.000002838303    -0.000007596813
       2        0.000568711465    -0.000898479476    -0.002826190222
       3       -0.000591656059     0.001656014028     0.004281852825
       4       -0.000652907713    -0.003219362455    -0.004404095569
       5       -0.000000557117     0.000003165139    -0.000005570345
       6        0.000007388718     0.000001147996     0.000003670900
       7        0.000023682843     0.000009295468    -0.000001397706
       8        0.000658521296     0.002447039613     0.002955915422
       9       -0.000004812165     0.000004999650    -0.000006033482
      10       -0.000004108242    -0.000008231982     0.000008009060
      11       -0.000002526585     0.000006450270     0.000000741013
      12        0.000005896938    -0.000004735213     0.000001685251
      13       -0.000001081542    -0.000000483979     0.000004102917
      14       -0.000008364482     0.000004337695    -0.000002672324
      15        0.000005292619    -0.000003995056    -0.000002420926

  **** Optimization is complete! (in 6 steps) ****
    Final optimized geometry and variables:
    Molecular point group: c1

    Geometry (in Angstrom), charge = 0, multiplicity = 1:

    H            2.868423093602     0.002607262582     0.764246975533
    O            2.186593593026     0.515307785096     0.371107169733
    C            0.983579686878    -0.209033557871     0.362243535536
    C           -0.123657345784     0.704563686374    -0.148158468771
    H            0.753103140013    -0.580187558196     1.356460250190
    H            1.079162470669    -1.071966082341    -0.294418099197
    C           -1.287476756337    -0.023768306462    -0.814744454272
    H            0.330702501720     1.409446227820    -0.834275693874
    H           -0.496577600122     1.303795386389     0.678240177170
    C           -2.056364376515    -0.957230364479     0.117808800528
    H           -0.917799677963    -0.588396444448    -1.666285088046
    H           -1.972927283691     0.715858809246    -1.215269961926
    H           -2.895811393791    -1.412144601554    -0.395064908411
    H           -1.429989169866    -1.759899142545     0.491096090984
    H           -2.445517656078    -0.417031589941     0.974749387067

  Mulliken Charges: (a.u.)
   Center  Symbol    Alpha    Beta     Spin     Total
       1     H     0.39591  0.39591  0.00000  0.20818
       2     O     4.19747  4.19747  0.00000 -0.39494
       3     C     2.96411  2.96411  0.00000  0.07179
       4     C     3.09150  3.09150  0.00000 -0.18301
       5     H     0.47162  0.47162  0.00000  0.05675
       6     H     0.47552  0.47552  0.00000  0.04895
       7     C     3.09752  3.09752  0.00000 -0.19503
       8     H     0.44235  0.44235  0.00000  0.11531
       9     H     0.45519  0.45519  0.00000  0.08961
      10     C     3.15045  3.15045  0.00000 -0.30090
      11     H     0.45391  0.45391  0.00000  0.09218
      12     H     0.44810  0.44810  0.00000  0.10380
      13     H     0.44656  0.44656  0.00000  0.10687
      14     H     0.45580  0.45580  0.00000  0.08840
      15     H     0.45399  0.45399  0.00000  0.09203

   Total alpha = 21.00000, Total beta = 21.00000, Total charge = -0.00000

*** Psi4 exiting successfully. Buy a developer a beer!
