  ==> Input File <==

--------------------------------------------------------------------------
set {
	reference rhf
	basis 6-31G*
}

set_num_threads( 1 )
memory 2 gb

molecule MOL {
0 1

H	 -3.301617	 0.570527	 0.000000
C	 -2.250981	 0.344174	 0.000000
C	 -1.813665	 -0.976045	 0.000000
C	 -1.315303	 1.358057	 0.000000
H	 -2.528860	 -1.779366	 0.000000
C	 -0.467298	 -1.270142	 0.000000
H	 -1.635074	 2.385107	 0.000000
C	 0.047081	 1.078114	 0.000000
H	 -0.115948	 -2.285222	 0.000000
C	 0.472063	 -0.241155	 0.000000
H	 0.749976	 1.888426	 0.000000
O	 1.765256	 -0.628444	 0.000000
C	 2.369723	 -1.029492	 1.195346
H	 2.375240	 -0.227628	 1.926315
H	 3.387983	 -1.288697	 0.946809
H	 1.875167	 -1.897416	 1.618966

	symmetry c1
}
set optking {
	frozen_dihedral = ("
		10 12 13 14
	")
}

ee = energy('scf')
oeprop('DIPOLE', 'QUADRUPOLE', 'MULLIKEN_CHARGES')
f=open( 'psi4out.xyz', 'w' )
f.write( "16  " )
f.write( str(ee) + "\n" )
f.write( MOL.save_string_xyz() )
f.close()
--------------------------------------------------------------------------

    Molecular point group: c1

    Geometry (in Angstrom), charge = 0, multiplicity = 1:

       Center              X                  Y                   Z               Mass
    ------------   -----------------  -----------------  -----------------  -----------------
           H         -3.241905648637     0.769908397835    -0.174642113230     1.007825032070
           C         -2.191269648637     0.543555397835    -0.174642113230    12.000000000000
           C         -1.753953648637    -0.776663602165    -0.174642113230    12.000000000000
           C         -1.255591648637     1.557438397835    -0.174642113230    12.000000000000
           H         -2.469148648637    -1.579984602165    -0.174642113230     1.007825032070
           C         -0.407586648637    -1.070760602165    -0.174642113230    12.000000000000
           H         -1.575362648637     2.584488397835    -0.174642113230     1.007825032070
           C          0.106792351363     1.277495397835    -0.174642113230    12.000000000000
           H         -0.056236648637    -2.085840602165    -0.174642113230     1.007825032070
           C          0.531774351363    -0.041773602165    -0.174642113230    12.000000000000
           H          0.809687351363     2.087807397835    -0.174642113230     1.007825032070
           O          1.824967351363    -0.429062602165    -0.174642113230    15.994914619560
           C          2.429434351363    -0.830110602165     1.020703886770    12.000000000000
           H          2.434951351363    -0.028246602165     1.751672886770     1.007825032070
           H          3.447694351363    -1.089315602165     0.772166886770     1.007825032070
           H          1.934878351363    -1.698034602165     1.444323886770     1.007825032070

  Charge       = 0
  Multiplicity = 1
  Basis Set: 6-31G*
  Basis Set:

    Orbital Energies (a.u.)
    -----------------------

    Doubly Occupied:

       1A    -20.570057     2A    -11.287300     3A    -11.276653
       4A    -11.232601     5A    -11.231589     6A    -11.226508
       7A    -11.225193     8A    -11.222268     9A     -1.404842
      10A     -1.146612    11A     -1.017233    12A     -1.015744
      13A     -0.935215    14A     -0.833216    15A     -0.805910
      16A     -0.715071    17A     -0.669375    18A     -0.662935
      19A     -0.638130    20A     -0.610768    21A     -0.599334
      22A     -0.583908    23A     -0.530229    24A     -0.506656
      25A     -0.504944    26A     -0.479642    27A     -0.433731
      28A     -0.334462    29A     -0.318771

  @DF-RHF Final Energy:  -344.57772331879892

   => Energetics <=

    Nuclear Repulsion Energy =            347.9271406155564819
    One-Electron Energy =               -1156.9718107136302478
    Two-Electron Energy =                 464.4669467792749629
    DFT Exchange-Correlation Energy =       0.0000000000000000
    Empirical Dispersion Energy =           0.0000000000000000
    PCM Polarization Energy =               0.0000000000000000
    EFP Energy =                            0.0000000000000000
    Total Energy =                       -344.5777233187988031

  Mulliken Charges: (a.u.)
   Center  Symbol    Alpha    Beta     Spin     Total
       1     H     0.39952  0.39952  0.00000  0.20095
       2     C     3.10574  3.10574  0.00000 -0.21149
       3     C     3.09625  3.09625  0.00000 -0.19250
       4     C     3.09710  3.09710  0.00000 -0.19420
       5     H     0.39967  0.39967  0.00000  0.20066
       6     C     3.12173  3.12173  0.00000 -0.24346
       7     H     0.39896  0.39896  0.00000  0.20207
       8     C     3.12351  3.12351  0.00000 -0.24702
       9     H     0.39628  0.39628  0.00000  0.20743
      10     C     2.79711  2.79711  0.00000  0.40578
      11     H     0.39477  0.39477  0.00000  0.21045
      12     O     4.33284  4.33284  0.00000 -0.66567
      13     C     3.07949  3.07949  0.00000 -0.15897
      14     H     0.42248  0.42248  0.00000  0.15503
      15     H     0.40987  0.40987  0.00000  0.18026
      16     H     0.42466  0.42466  0.00000  0.15068

   Total alpha = 29.00000, Total beta = 29.00000, Total charge = -0.00000
