  ==> Input File <==

--------------------------------------------------------------------------
set {
	reference rhf
	basis 6-31G*
}

set_num_threads( 4 )
memory 2 gb

molecule MOL {
0 1

H	 1.148083	 -1.049780	 0.784252
O	 1.319262	 -0.618148	 -0.041729
C	 0.709265	 0.639550	 -0.033818
C	 1.675785	 1.794008	 0.006739
H	 0.076589	 0.663247	 0.846161
H	 0.050350	 0.755492	 -0.893710
C	 2.977169	 1.691737	 0.187582
H	 1.228019	 2.767196	 -0.123239
H	 3.454416	 0.740478	 0.338481
H	 3.609559	 2.561084	 0.204750

	symmetry c1
}
set optking {
	frozen_dihedral = ("
		5 3 2 1
	")
}

ee = optimize('scf')
oeprop('DIPOLE', 'QUADRUPOLE', 'MULLIKEN_CHARGES')
f=open( 'psi4out.xyz', 'w' )
f.write( "10  " )
f.write( str(ee) + "\n" )
f.write( MOL.save_string_xyz() )
f.close()
--------------------------------------------------------------------------

    Molecular point group: c1
  Charge       = 0
  Multiplicity = 1
  Basis Set: 6-31G*
  Basis Set:
  @DF-RHF Final Energy:  -191.91323898038445
    Total Energy =                       -191.9132389803845342
    Molecular point group: c1
  Basis Set: 6-31G*
  Basis Set:
  Basis Set: 6-31G*
  Basis Set:
  @DF-RHF Final Energy:  -191.91445014198914
    Total Energy =                       -191.9144501419891071
  Basis Set: 6-31G*
  Basis Set:
  Basis Set: 6-31G*
  Basis Set:
  @DF-RHF Final Energy:  -191.91485789030850
    Total Energy =                       -191.9148578903085536
  Basis Set: 6-31G*
  Basis Set:
  Basis Set: 6-31G*
  Basis Set:
  @DF-RHF Final Energy:  -191.91486807750636
    Total Energy =                       -191.9148680775064122
  Basis Set: 6-31G*
  Basis Set:
  Basis Set: 6-31G*
  Basis Set:
  @DF-RHF Final Energy:  -191.91486950977378
    Total Energy =                       -191.9148695097738369
  Basis Set: 6-31G*
  Basis Set:
  Charge       = 0
  Multiplicity = 1
  Basis Set: 6-31G*
  Basis Set:

    Orbital Energies (a.u.)
    -----------------------

    Doubly Occupied:

       1A    -20.559228     2A    -11.278835     3A    -11.223859
       4A    -11.210788     5A     -1.367286     6A     -1.053223
       7A     -0.924311     8A     -0.757967     9A     -0.702125
      10A     -0.650486    11A     -0.610309    12A     -0.575626
      13A     -0.509350    14A     -0.506087    15A     -0.444839
      16A     -0.357109

  @DF-RHF Final Energy:  -191.91486955690945

   => Energetics <=

    Nuclear Repulsion Energy =            119.2345824732691710
    One-Electron Energy =                -496.8360501042694182
    Two-Electron Energy =                 185.6865980740907673
    DFT Exchange-Correlation Energy =       0.0000000000000000
    Empirical Dispersion Energy =           0.0000000000000000
    PCM Polarization Energy =               0.0000000000000000
    EFP Energy =                            0.0000000000000000
    Total Energy =                       -191.9148695569094514
    Molecular point group: c1
  Basis Set: 6-31G*
  Basis Set:

  -Total Gradient:
     Atom            X                  Y                   Z
    ------   -----------------  -----------------  -----------------
       1       -0.001113045279    -0.000600987698    -0.000611226418
       2        0.001616638169     0.000858917643     0.000956500231
       3       -0.001381786566    -0.000743105508    -0.001032079101
       4       -0.000008209703     0.000002489665    -0.000043331422
       5        0.000865298603     0.000466710215     0.000717524299
       6        0.000010386621     0.000014147023    -0.000001146520
       7        0.000006864996    -0.000000617346    -0.000028907780
       8        0.000002030684     0.000000311104     0.000012860923
       9        0.000000823721     0.000001380014     0.000011834645
      10        0.000000998754     0.000000754890     0.000017971143

  **** Optimization is complete! (in 6 steps) ****
    Final optimized geometry and variables:
    Molecular point group: c1

    Geometry (in Angstrom), charge = 0, multiplicity = 1:

    H           -0.503227698200    -1.846343706514     0.763877880507
    O           -0.296200876316    -1.402558723311    -0.043874192001
    C           -0.938007030559    -0.156569561366    -0.087209876543
    C            0.026108087854     0.996451604848    -0.014548829891
    H           -1.657343142144    -0.061505465216     0.724147532739
    H           -1.502371450245    -0.095448608296    -1.013245352190
    C            1.333473097108     0.890059322105     0.101641823560
    H           -0.433116856411     1.971719812871    -0.071014730469
    H            1.815301119559    -0.068425304480     0.149109036788
    H            1.962069648296     1.761512549492     0.144832602761

  Mulliken Charges: (a.u.)
   Center  Symbol    Alpha    Beta     Spin     Total
       1     H     0.27748  0.27748  0.00000  0.44504
       2     O     4.36949  4.36949  0.00000 -0.73898
       3     C     3.00222  3.00222  0.00000 -0.00444
       4     C     3.08931  3.08931  0.00000 -0.17862
       5     H     0.42655  0.42655  0.00000  0.14689
       6     H     0.41471  0.41471  0.00000  0.17058
       7     C     3.19202  3.19202  0.00000 -0.38404
       8     H     0.41305  0.41305  0.00000  0.17390
       9     H     0.40116  0.40116  0.00000  0.19768
      10     H     0.41401  0.41401  0.00000  0.17198

   Total alpha = 16.00000, Total beta = 16.00000, Total charge = -0.00000
