  ==> Input File <==

--------------------------------------------------------------------------
set {
	reference rhf
	basis 6-31G*
}

set_num_threads( 1 )
memory 2 gb

molecule MOL {
0 1

H	 -2.646374	 -0.642757	 1.268656
C	 -2.083525	 -0.384536	 0.393091
O	 -0.807605	 -0.127164	 0.768327
F	 -2.118945	 -1.383102	 -0.486752
F	 -2.621877	 0.670592	 -0.209486
C	 0.084052	 0.273579	 -0.209957
C	 0.616189	 1.638944	 0.205699
Cl	 -0.712276	 0.368751	 -1.789203
H	 0.917838	 -0.399893	 -0.304874
F	 1.486386	 2.081203	 -0.677083
F	 1.233425	 1.519084	 1.364185
F	 -0.341283	 2.524650	 0.335104

	symmetry c1
}
set optking {
	frozen_dihedral = ("
		10 7 6 9,
		6 3 2 4
	")
}

ee = energy('scf')
oeprop('DIPOLE', 'QUADRUPOLE', 'MULLIKEN_CHARGES')
f=open( 'psi4out.xyz', 'w' )
f.write( "12  " )
f.write( str(ee) + "\n" )
f.write( MOL.save_string_xyz() )
f.close()
--------------------------------------------------------------------------

    Molecular point group: c1

    Geometry (in Angstrom), charge = 0, multiplicity = 1:

       Center              X                  Y                   Z               Mass
    ------------   -----------------  -----------------  -----------------  -----------------
           H         -2.097123883202    -1.354679092403     1.477638772513     1.007825032070
           C         -1.534274883202    -1.096458092403     0.602073772513    12.000000000000
           O         -0.258354883202    -0.839086092403     0.977309772513    15.994914619560
           F         -1.569694883202    -2.095024092403    -0.277769227487    18.998403224000
           F         -2.072626883202    -0.041330092403    -0.000503227487    18.998403224000
           C          0.633302116798    -0.438343092403    -0.000974227487    12.000000000000
           C          1.165439116798     0.927021907597     0.414681772513    12.000000000000
          CL         -0.163025883202    -0.343171092403    -1.580220227487    34.968852682000
           H          1.467088116798    -1.111815092403    -0.095891227487     1.007825032070
           F          2.035636116798     1.369280907597    -0.468100227487    18.998403224000
           F          1.782675116798     0.807161907597     1.573167772513    18.998403224000
           F          0.207967116798     1.812727907597     0.544086772513    18.998403224000

  Charge       = 0
  Multiplicity = 1
  Basis Set: 6-31G*
  Basis Set:

    Orbital Energies (a.u.)
    -----------------------

    Doubly Occupied:

       1A   -104.832359     2A    -26.357402     3A    -26.356878
       4A    -26.356064     5A    -26.333964     6A    -26.332832
       7A    -20.646251     8A    -11.523637     9A    -11.483946
      10A    -11.397728    11A    -10.569080    12A     -8.038329
      13A     -8.034764    14A     -8.034551    15A     -1.759043
      16A     -1.710012    17A     -1.655442    18A     -1.654436
      19A     -1.629358    20A     -1.483845    21A     -1.177029
      22A     -1.053355    23A     -0.982910    24A     -0.914791
      25A     -0.850873    26A     -0.848299    27A     -0.842167
      28A     -0.824306    29A     -0.802561    30A     -0.775668
      31A     -0.732192    32A     -0.722266    33A     -0.707266
      34A     -0.689346    35A     -0.676385    36A     -0.671756
      37A     -0.656814    38A     -0.655224    39A     -0.646279
      40A     -0.631587    41A     -0.602052    42A     -0.551139
      43A     -0.536136    44A     -0.462143    45A     -0.456724

  @DF-RHF Final Energy: -1146.28370419654266

   => Energetics <=

    Nuclear Repulsion Energy =            765.4949361647713886
    One-Electron Energy =               -3114.2385703434115385
    Two-Electron Energy =                1202.4599299820970373
    DFT Exchange-Correlation Energy =       0.0000000000000000
    Empirical Dispersion Energy =           0.0000000000000000
    PCM Polarization Energy =               0.0000000000000000
    EFP Energy =                            0.0000000000000000
    Total Energy =                      -1146.2837041965431126

  Mulliken Charges: (a.u.)
   Center  Symbol    Alpha    Beta     Spin     Total
       1     H     0.39688  0.39688  0.00000  0.20624
       2     C     2.56859  2.56859  0.00000  0.86282
       3     O     4.30787  4.30787  0.00000 -0.61574
       4     F     4.68532  4.68532  0.00000 -0.37065
       5     F     4.68214  4.68214  0.00000 -0.36428
       6     C     3.03610  3.03610  0.00000 -0.07219
       7     C     2.43569  2.43569  0.00000  1.12863
       8    CL     8.49850  8.49850  0.00000  0.00300
       9     H     0.36897  0.36897  0.00000  0.26207
      10     F     4.67405  4.67405  0.00000 -0.34809
      11     F     4.67682  4.67682  0.00000 -0.35364
      12     F     4.66909  4.66909  0.00000 -0.33817

   Total alpha = 45.00000, Total beta = 45.00000, Total charge = -0.00000
