                              Psi4 1.0.54 Driver

  ==> Input File <==

--------------------------------------------------------------------------
set {
	reference rhf
	basis cc-pvtz
}

set_num_threads( 4 )
memory 2 gb

molecule MOL {
0 1

H	 3.241626	 -1.361106	 -0.691182
O	 2.824271	 -1.154299	 0.131461
C	 2.076458	 -0.067370	 -0.038225
C	 0.626018	 -0.337582	 0.258241
O	 2.538288	 0.965419	 -0.381593
C	 -0.267326	 0.883135	 0.076490
H	 0.325620	 -1.161483	 -0.378003
H	 0.574537	 -0.713685	 1.275261
C	 -1.726822	 0.642622	 0.463839
H	 -0.210803	 1.217591	 -0.953497
H	 0.129920	 1.693110	 0.675679
C	 -2.480891	 -0.340606	 -0.429852
H	 -2.243098	 1.597649	 0.438609
H	 -1.776542	 0.301208	 1.495542
C	 -3.955933	 -0.460128	 -0.060472
H	 -2.393755	 -0.020485	 -1.464726
H	 -2.024244	 -1.323637	 -0.374360
H	 -4.467673	 -1.160944	 -0.709827
H	 -4.458917	 0.497287	 -0.144505
H	 -4.076458	 -0.806900	 0.960497

	symmetry c1
}
set optking {
	frozen_dihedral = ("
		1 2 3 5
	")
}

ee,wfn = optimize('scf', return_wfn=True)
oeprop( wfn, 'DIPOLE', 'QUADRUPOLE', 'MULLIKEN_CHARGES')
f=open( 'psi4out.xyz', 'w' )
f.write( "20  " )
f.write( str(ee) + "\n" )
f.write( MOL.save_string_xyz() )
f.close()
--------------------------------------------------------------------------

    Molecular point group: c1
  Charge       = 0
  Multiplicity = 1
  Basis Set: CC-PVTZ
  Basis Set:
  @DF-RHF Final Energy:  -384.07979706208448
    Total Energy =                       -384.0797970620846513
    Molecular point group: c1
  Basis Set: CC-PVTZ
  Basis Set:
  Basis Set: CC-PVTZ
  Basis Set:
  @DF-RHF Final Energy:  -384.07783634775018
    Total Energy =                       -384.0778363477498374
  Basis Set: CC-PVTZ
  Basis Set:
  Basis Set: CC-PVTZ
  Basis Set:
  @DF-RHF Final Energy:  -384.08096533833151
    Total Energy =                       -384.0809653383312252
  Basis Set: CC-PVTZ
  Basis Set:
  Basis Set: CC-PVTZ
  Basis Set:
  @DF-RHF Final Energy:  -384.08112134118346
    Total Energy =                       -384.0811213411832341
  Basis Set: CC-PVTZ
  Basis Set:
  Basis Set: CC-PVTZ
  Basis Set:
  @DF-RHF Final Energy:  -384.08112943802411
    Total Energy =                       -384.0811294380241634
  Basis Set: CC-PVTZ
  Basis Set:
  Basis Set: CC-PVTZ
  Basis Set:
  @DF-RHF Final Energy:  -384.08113089533515
    Total Energy =                       -384.0811308953353205
  Basis Set: CC-PVTZ
  Basis Set:
  Charge       = 0
  Multiplicity = 1
  Basis Set: CC-PVTZ
  Basis Set:

    Orbital Energies (a.u.)
    -----------------------

    Doubly Occupied:

       1A    -20.590902     2A    -20.547522     3A    -11.373843
       4A    -11.238702     5A    -11.221252     6A    -11.219569
       7A    -11.218806     8A    -11.211268     9A     -1.466433
      10A     -1.370149    11A     -1.097573    12A     -1.041707
      13A     -0.960957    14A     -0.868133    15A     -0.817983
      16A     -0.779972    17A     -0.709084    18A     -0.685039
      19A     -0.665856    20A     -0.632706    21A     -0.618185
      22A     -0.589349    23A     -0.561495    24A     -0.550354
      25A     -0.545201    26A     -0.510644    27A     -0.502033
      28A     -0.489250    29A     -0.471066    30A     -0.468004
      31A     -0.458912    32A     -0.445946

  @DF-RHF Final Energy:  -384.08113124369339

   => Energetics <=

    Nuclear Repulsion Energy =            375.9681764073268937
    One-Electron Energy =               -1268.2428247023331096
    Two-Electron Energy =                 508.1935170513123126
    DFT Exchange-Correlation Energy =       0.0000000000000000
    Empirical Dispersion Energy =           0.0000000000000000
    PCM Polarization Energy =               0.0000000000000000
    EFP Energy =                            0.0000000000000000
    Total Energy =                       -384.0811312436939602
    Molecular point group: c1
  Basis Set: CC-PVTZ
  Basis Set:

  -Total Gradient:
     Atom            X                  Y                   Z
    ------   -----------------  -----------------  -----------------
       1       -0.007460245504    -0.006321577107    -0.002961803103
       2        0.009255903568     0.009367667750     0.007638221788
       3       -0.001992753596    -0.005749036514    -0.013210245521
       4       -0.000100538066    -0.000061600279    -0.000088739138
       5        0.000266230295     0.002716163551     0.008624147778
       6       -0.000136361673    -0.000003348331     0.000077702188
       7       -0.000024067494    -0.000012716496    -0.000028954016
       8        0.000119712323     0.000090122130    -0.000017538848
       9        0.000029852398    -0.000016155969     0.000021720212
      10        0.000007751663    -0.000016195285    -0.000041913407
      11        0.000026240463    -0.000003052572     0.000012522582
      12       -0.000011606445     0.000022341044    -0.000032325118
      13        0.000031010588    -0.000004496042    -0.000004219572
      14        0.000005310547     0.000007574481     0.000031890034
      15        0.000002211980    -0.000006329502    -0.000000428561
      16       -0.000007711570    -0.000008464312    -0.000027051252
      17        0.000001721932    -0.000000557887     0.000005477545
      18       -0.000005269775    -0.000001283779    -0.000001176216
      19       -0.000006367232    -0.000005069699    -0.000000173066
      20       -0.000001024401     0.000006014819     0.000002885690

  **** Optimization is complete! (in 7 steps) ****
    Final optimized geometry and variables:
    Molecular point group: c1

    Geometry (in Angstrom), charge = 0, multiplicity = 1:

    H            3.368585227545    -1.415290438006    -0.474995194710
    O            2.852559844440    -1.139960847661     0.265211381701
    C            2.078675253593    -0.076888232471    -0.049630805644
    C            0.624697718100    -0.333560004263     0.240560470849
    O            2.535421838889     0.943617858822    -0.415801145100
    C           -0.265781752519     0.888672614492     0.058901044800
    H            0.321400477865    -1.158228260586    -0.395387257713
    H            0.572753634194    -0.714001440131     1.256046918885
    C           -1.725688827602     0.654038399034     0.448455776158
    H           -0.209588593412     1.222919513751    -0.971363271148
    H            0.135263362603     1.697645151965     0.657336989502
    C           -2.484984893185    -0.325929705635    -0.444591182607
    H           -2.238189721294     1.611092775768     0.424289943332
    H           -1.775114748267     0.312583005292     1.480133087274
    C           -3.958527476592    -0.445339172401    -0.068873107242
    H           -2.402276890961    -0.003343203133    -1.479184382418
    H           -2.028968069605    -1.309589565881    -0.393458354930
    H           -4.473094408456    -1.146650248711    -0.715493085635
    H           -4.461956639721     0.511947552532    -0.151470877794
    H           -4.074694814654    -0.791271635745     0.952868082339

  Mulliken Charges: (a.u.)
   Center  Symbol    Alpha    Beta     Spin     Total
       1     H     0.38247  0.38247  0.00000  0.23507
       2     O     4.17554  4.17554  0.00000 -0.35108
       3     C     2.80191  2.80191  0.00000  0.39618
       4     C     3.11168  3.11168  0.00000 -0.22336
       5     O     4.17079  4.17079  0.00000 -0.34158
       6     C     3.09473  3.09473  0.00000 -0.18945
       7     H     0.44390  0.44390  0.00000  0.11221
       8     H     0.43670  0.43670  0.00000  0.12660
       9     C     3.09880  3.09880  0.00000 -0.19761
      10     H     0.44602  0.44602  0.00000  0.10796
      11     H     0.43887  0.43887  0.00000  0.12226
      12     C     3.08668  3.08668  0.00000 -0.17336
      13     H     0.44553  0.44553  0.00000  0.10895
      14     H     0.45348  0.45348  0.00000  0.09304
      15     C     3.14947  3.14947  0.00000 -0.29895
      16     H     0.45287  0.45287  0.00000  0.09426
      17     H     0.45464  0.45464  0.00000  0.09071
      18     H     0.44787  0.44787  0.00000  0.10426
      19     H     0.45346  0.45346  0.00000  0.09308
      20     H     0.45460  0.45460  0.00000  0.09081

   Total alpha = 32.00000, Total beta = 32.00000, Total charge =  0.00000

*** Psi4 exiting successfully. Buy a developer a beer!
