  ==> Input File <==

--------------------------------------------------------------------------
set {
	reference rhf
	basis 6-31G*
}

set_num_threads( 4 )
memory 2 gb

molecule MOL {
0 1

H	 1.824617	 -1.513360	 -0.179748
O	 1.654024	 -0.625927	 -0.460906
C	 1.135793	 0.118896	 0.612333
C	 0.031547	 1.023609	 0.088541
H	 1.915668	 0.729681	 1.063582
H	 0.754543	 -0.542641	 1.387006
C	 -1.134819	 0.293262	 -0.585751
H	 0.474374	 1.714721	 -0.623187
H	 -0.338529	 1.620940	 0.920081
C	 -1.917817	 -0.639439	 0.339494
H	 -0.758119	 -0.268455	 -1.433105
H	 -1.813832	 1.041889	 -0.986690
H	 -2.777680	 -1.057197	 -0.174994
H	 -1.310268	 -1.471279	 0.680599
H	 -2.283753	 -0.111424	 1.216626

	symmetry c1
}
set optking {
	frozen_dihedral = ("
		1 2 3 4
	")
}

ee = optimize('scf')
oeprop('DIPOLE', 'QUADRUPOLE', 'MULLIKEN_CHARGES')
f=open( 'psi4out.xyz', 'w' )
f.write( "15  " )
f.write( str(ee) + "\n" )
f.write( MOL.save_string_xyz() )
f.close()
--------------------------------------------------------------------------

    Molecular point group: c1
  Charge       = 0
  Multiplicity = 1
  Basis Set: 6-31G*
  Basis Set:
  @DF-RHF Final Energy:  -232.14233004860995
    Total Energy =                       -232.1423300486098356
    Molecular point group: c1
  Basis Set: 6-31G*
  Basis Set:
  Basis Set: 6-31G*
  Basis Set:
  @DF-RHF Final Energy:  -232.14244116294199
    Total Energy =                       -232.1424411629421343
  Basis Set: 6-31G*
  Basis Set:
  Basis Set: 6-31G*
  Basis Set:
  @DF-RHF Final Energy:  -232.14248934736295
    Total Energy =                       -232.1424893473630391
  Basis Set: 6-31G*
  Basis Set:
  Basis Set: 6-31G*
  Basis Set:
  @DF-RHF Final Energy:  -232.14249270879043
    Total Energy =                       -232.1424927087906553
  Basis Set: 6-31G*
  Basis Set:
  Charge       = 0
  Multiplicity = 1
  Basis Set: 6-31G*
  Basis Set:

    Orbital Energies (a.u.)
    -----------------------

    Doubly Occupied:

       1A    -20.552452     2A    -11.267782     3A    -11.212175
       4A    -11.210766     5A    -11.208563     6A     -1.358677
       7A     -1.064969     8A     -0.971856     9A     -0.870816
      10A     -0.776282    11A     -0.704591    12A     -0.647029
      13A     -0.607937    14A     -0.578192    15A     -0.561963
      16A     -0.535862    17A     -0.507356    18A     -0.478720
      19A     -0.468916    20A     -0.454575    21A     -0.427745

  @DF-RHF Final Energy:  -232.14249366202773

   => Energetics <=

    Nuclear Repulsion Energy =            191.5182291915922406
    One-Electron Energy =                -694.3869986924119075
    Two-Electron Energy =                 270.7262758387921053
    DFT Exchange-Correlation Energy =       0.0000000000000000
    Empirical Dispersion Energy =           0.0000000000000000
    PCM Polarization Energy =               0.0000000000000000
    EFP Energy =                            0.0000000000000000
    Total Energy =                       -232.1424936620275616
    Molecular point group: c1
  Basis Set: 6-31G*
  Basis Set:

  -Total Gradient:
     Atom            X                  Y                   Z
    ------   -----------------  -----------------  -----------------
       1       -0.001375488878    -0.000396229961    -0.000451550541
       2        0.001443136836     0.000251808372     0.000603084598
       3        0.000560115406     0.000857423500    -0.000281638229
       4       -0.000630079975    -0.000674675177     0.000155768027
       5       -0.000008095034     0.000002880702     0.000009039294
       6       -0.000002344826     0.000007289950    -0.000016034589
       7        0.000003565541    -0.000021501276    -0.000018490735
       8        0.000021081999    -0.000018038776     0.000025174958
       9        0.000028532134     0.000019500022     0.000012989353
      10       -0.000019745762     0.000023391175    -0.000005328176
      11        0.000002656699     0.000004408266    -0.000039038662
      12       -0.000016418237    -0.000044655289     0.000000149677
      13       -0.000005572281    -0.000003750898     0.000007825352
      14       -0.000019756497    -0.000003834343     0.000002197251
      15        0.000018412875    -0.000004016266    -0.000004147577

  **** Optimization is complete! (in 5 steps) ****
    Final optimized geometry and variables:
    Molecular point group: c1

    Geometry (in Angstrom), charge = 0, multiplicity = 1:

    H            1.898933632877    -1.483327154996    -0.222944069669
    O            1.712285521118    -0.591834630391    -0.474081206907
    C            1.140966920072     0.109706874526     0.605322787907
    C            0.026561657670     1.012137406300     0.095480996212
    H            1.903919556622     0.712242034049     1.091465180000
    H            0.757541369119    -0.581971101968     1.350337408818
    C           -1.136997480332     0.279819719344    -0.580278091061
    H            0.462777618948     1.710854529758    -0.613142042247
    H           -0.342609118717     1.603939277030     0.931814766958
    C           -1.946968592642    -0.622560822682     0.352677786438
    H           -0.751738166814    -0.302922915561    -1.410090536571
    H           -1.803223369872     1.024037147890    -1.009214904998
    H           -2.798387572942    -1.049248849183    -0.168451168385
    H           -1.356141140545    -1.449866197019     0.733680796996
    H           -2.327593665073    -0.067539763157     1.206204592069

  Mulliken Charges: (a.u.)
   Center  Symbol    Alpha    Beta     Spin     Total
       1     H     0.27954  0.27954  0.00000  0.44092
       2     O     4.37161  4.37161  0.00000 -0.74323
       3     C     2.99960  2.99960  0.00000  0.00080
       4     C     3.15959  3.15959  0.00000 -0.31919
       5     H     0.42417  0.42417  0.00000  0.15166
       6     H     0.43107  0.43107  0.00000  0.13786
       7     C     3.15558  3.15558  0.00000 -0.31116
       8     H     0.41366  0.41366  0.00000  0.17267
       9     H     0.42558  0.42558  0.00000  0.14885
      10     C     3.24225  3.24225  0.00000 -0.48451
      11     H     0.40967  0.40967  0.00000  0.18065
      12     H     0.42152  0.42152  0.00000  0.15695
      13     H     0.41828  0.41828  0.00000  0.16343
      14     H     0.42465  0.42465  0.00000  0.15071
      15     H     0.42320  0.42320  0.00000  0.15359

   Total alpha = 21.00000, Total beta = 21.00000, Total charge = -0.00000
