                              Psi4 1.0.54 Driver

  ==> Input File <==

--------------------------------------------------------------------------
set {
	reference rhf
	basis cc-pvtz
}

set_num_threads( 4 )
memory 2 gb

molecule MOL {
0 1

H	 -2.599262	 -0.495334	 -0.023082
N	 -1.852575	 0.166496	 -0.019739
C	 -0.561396	 -0.500007	 0.035200
H	 -1.984056	 0.755106	 0.776242
C	 0.575129	 0.507849	 -0.048832
H	 -0.500767	 -1.176977	 -0.810526
H	 -0.434401	 -1.108054	 0.932176
C	 1.951750	 -0.141983	 0.035101
H	 0.478254	 1.061643	 -0.975981
H	 0.467676	 1.231891	 0.755499
H	 2.101550	 -0.848142	 -0.774949
H	 2.738260	 0.600794	 -0.026526
H	 2.078939	 -0.679792	 0.968824

	symmetry c1
}
set optking {
	frozen_dihedral = ("
		6 3 5 9
	")
}

ee,wfn = optimize('scf', return_wfn=True)
oeprop( wfn, 'DIPOLE', 'QUADRUPOLE', 'MULLIKEN_CHARGES')
f=open( 'psi4out.xyz', 'w' )
f.write( "13  " )
f.write( str(ee) + "\n" )
f.write( MOL.save_string_xyz() )
f.close()
--------------------------------------------------------------------------

    Molecular point group: c1
  Charge       = 0
  Multiplicity = 1
  Basis Set: CC-PVTZ
  Basis Set:
  @DF-RHF Final Energy:  -173.35258612879016
    Total Energy =                       -173.3525861287901080
    Molecular point group: c1
  Basis Set: CC-PVTZ
  Basis Set:
  Basis Set: CC-PVTZ
  Basis Set:
  @DF-RHF Final Energy:  -173.35258919446838
    Total Energy =                       -173.3525891944684645
  Basis Set: CC-PVTZ
  Basis Set:
  Charge       = 0
  Multiplicity = 1
  Basis Set: CC-PVTZ
  Basis Set:

    Orbital Energies (a.u.)
    -----------------------

    Doubly Occupied:

       1A    -15.526691     2A    -11.238379     3A    -11.210467
       4A    -11.207013     5A     -1.178460     6A     -1.036377
       7A     -0.899326     8A     -0.800132     9A     -0.663687
      10A     -0.630215    11A     -0.604574    12A     -0.566232
      13A     -0.531457    14A     -0.492491    15A     -0.477773
      16A     -0.469041    17A     -0.384421

  @DF-RHF Final Energy:  -173.35259013113938

   => Energetics <=

    Nuclear Repulsion Energy =            131.9908502166122730
    One-Electron Energy =                -494.8534095723488235
    Two-Electron Energy =                 189.5099692245971710
    DFT Exchange-Correlation Energy =       0.0000000000000000
    Empirical Dispersion Energy =           0.0000000000000000
    PCM Polarization Energy =               0.0000000000000000
    EFP Energy =                            0.0000000000000000
    Total Energy =                       -173.3525901311393795
    Molecular point group: c1
  Basis Set: CC-PVTZ
  Basis Set:

  -Total Gradient:
     Atom            X                  Y                   Z
    ------   -----------------  -----------------  -----------------
       1       -0.000005948841     0.000004641007     0.000002219789
       2        0.000027746459    -0.000012730771     0.000007757655
       3        0.000415130066    -0.000439992924     0.000270389538
       4       -0.000011487230     0.000010229485     0.000001506845
       5       -0.000415718702     0.000461507324     0.000221996645
       6       -0.000280841722     0.000302700190    -0.000284330069
       7       -0.000001236803    -0.000009025237     0.000017411184
       8       -0.000018691741     0.000014252153    -0.000002063422
       9        0.000287254495    -0.000334043083    -0.000245220008
      10        0.000000380153     0.000004089817     0.000008892409
      11        0.000000422941     0.000003714354     0.000002085516
      12        0.000002710151    -0.000002845983    -0.000002236794
      13        0.000000280773    -0.000002496335     0.000001590710

  **** Optimization is complete! (in 3 steps) ****
    Final optimized geometry and variables:
    Molecular point group: c1

    Geometry (in Angstrom), charge = 0, multiplicity = 1:

    H           -2.598960486077    -0.497020652246    -0.047982647640
    N           -1.852299778226     0.164793828122    -0.038602579538
    C           -0.561167246275    -0.501383475231     0.023426246991
    H           -1.989270560120     0.752189395418     0.757338113685
    C            0.574622610236     0.507602871304    -0.058731813749
    H           -0.497984999582    -1.177862247843    -0.822494344872
    H           -0.438006896280    -1.107953600520     0.921869477160
    C            1.951469756258    -0.142426877836     0.021982616352
    H            0.478884288481     1.061512374843    -0.985930014691
    H            0.467842270223     1.229917252590     0.747014403924
    H            2.097437092463    -0.852206055733    -0.785667671385
    H            2.737982297429     0.599767283136    -0.046582727789
    H            2.082552131354    -0.676247768834     0.957427261014

  Mulliken Charges: (a.u.)
   Center  Symbol    Alpha    Beta     Spin     Total
       1     H     0.42981  0.42981  0.00000  0.14038
       2     N     3.68998  3.68998  0.00000 -0.37997
       3     C     3.02225  3.02225  0.00000 -0.04451
       4     H     0.43085  0.43085  0.00000  0.13831
       5     C     3.07752  3.07752  0.00000 -0.15504
       6     H     0.45735  0.45735  0.00000  0.08530
       7     H     0.46987  0.46987  0.00000  0.06026
       8     C     3.15291  3.15291  0.00000 -0.30582
       9     H     0.44938  0.44938  0.00000  0.10123
      10     H     0.46019  0.46019  0.00000  0.07963
      11     H     0.45516  0.45516  0.00000  0.08969
      12     H     0.44778  0.44778  0.00000  0.10444
      13     H     0.45695  0.45695  0.00000  0.08610

   Total alpha = 17.00000, Total beta = 17.00000, Total charge = -0.00000

*** Psi4 exiting successfully. Buy a developer a beer!
