  ==> Input File <==

--------------------------------------------------------------------------
set {
	reference rhf
	basis 6-31G*
}

set_num_threads( 1 )
memory 2 gb

molecule MOL {
0 1

H	 1.444139	 3.742382	 -2.233475
N	 0.679586	 3.098091	 -2.295878
C	 0.648548	 2.220172	 -1.134921
H	 0.816909	 2.566414	 -3.134503
C	 -0.571570	 1.306641	 -1.185198
H	 0.591418	 2.846267	 -0.249709
H	 1.551629	 1.613433	 -1.031426
C	 -0.679275	 0.379305	 0.025956
H	 -1.460535	 1.925769	 -1.264287
H	 -0.530695	 0.708099	 -2.094820
C	 -1.903357	 -0.536963	 -0.023547
H	 -0.717172	 0.976809	 0.935573
H	 0.220235	 -0.230042	 0.099599
C	 -3.225172	 0.228290	 0.028445
H	 -1.867824	 -1.134999	 -0.931459
H	 -1.860449	 -1.239604	 0.805977
H	 -3.313397	 0.915643	 -0.808262
H	 -4.073500	 -0.448134	 -0.008893
H	 -3.306061	 0.809945	 0.942516

	symmetry c1
}
set optking {
	frozen_dihedral = ("
		6 3 5 9,
		12 8 5 9,
		1 2 3 6
	")
}

ee = energy('scf')
oeprop('DIPOLE', 'QUADRUPOLE', 'MULLIKEN_CHARGES')
f=open( 'psi4out.xyz', 'w' )
f.write( "19  " )
f.write( str(ee) + "\n" )
f.write( MOL.save_string_xyz() )
f.close()
--------------------------------------------------------------------------

    Molecular point group: c1

    Geometry (in Angstrom), charge = 0, multiplicity = 1:

       Center              X                  Y                   Z               Mass
    ------------   -----------------  -----------------  -----------------  -----------------
           H          2.269085235150     2.597711988861    -1.445184178702     1.007825032070
           N          1.504532235150     1.953420988861    -1.507587178702    14.003074004780
           C          1.473494235150     1.075501988861    -0.346630178702    12.000000000000
           H          1.641855235150     1.421743988861    -2.346212178702     1.007825032070
           C          0.253376235150     0.161970988861    -0.396907178702    12.000000000000
           H          1.416364235150     1.701596988861     0.538581821298     1.007825032070
           H          2.376575235150     0.468762988861    -0.243135178702     1.007825032070
           C          0.145671235150    -0.765365011139     0.814246821298    12.000000000000
           H         -0.635588764850     0.781098988861    -0.475996178702     1.007825032070
           H          0.294251235150    -0.436571011139    -1.306529178702     1.007825032070
           C         -1.078410764850    -1.681633011139     0.764743821298    12.000000000000
           H          0.107774235150    -0.167861011139     1.723863821298     1.007825032070
           H          1.045181235150    -1.374712011139     0.887889821298     1.007825032070
           C         -2.400225764850    -0.916380011139     0.816735821298    12.000000000000
           H         -1.042877764850    -2.279669011139    -0.143168178702     1.007825032070
           H         -1.035502764850    -2.384274011139     1.594267821298     1.007825032070
           H         -2.488450764850    -0.229027011139    -0.019971178702     1.007825032070
           H         -3.248553764850    -1.592804011139     0.779397821298     1.007825032070
           H         -2.481114764850    -0.334725011139     1.730806821298     1.007825032070

  Charge       = 0
  Multiplicity = 1
  Basis Set: 6-31G*
  Basis Set:

    Orbital Energies (a.u.)
    -----------------------

    Doubly Occupied:

       1A    -15.532463     2A    -11.239661     3A    -11.213765
       4A    -11.212556     5A    -11.208828     6A    -11.205459
       7A     -1.176561     8A     -1.074286     9A     -0.993824
      10A     -0.902918    11A     -0.822580    12A     -0.777517
      13A     -0.663624    14A     -0.640013    15A     -0.604703
      16A     -0.597584    17A     -0.586579    18A     -0.535824
      19A     -0.519848    20A     -0.507726    21A     -0.485177
      22A     -0.461000    23A     -0.455420    24A     -0.449743
      25A     -0.381062

  @DF-RHF Final Energy:  -251.34963001187415

   => Energetics <=

    Nuclear Repulsion Energy =            249.7032979024450867
    One-Electron Energy =                -833.6084119231622935
    Two-Electron Energy =                 332.5554840088430524
    DFT Exchange-Correlation Energy =       0.0000000000000000
    Empirical Dispersion Energy =           0.0000000000000000
    PCM Polarization Energy =               0.0000000000000000
    EFP Energy =                            0.0000000000000000
    Total Energy =                       -251.3496300118741260

  Mulliken Charges: (a.u.)
   Center  Symbol    Alpha    Beta     Spin     Total
       1     H     0.33251  0.33251  0.00000  0.33498
       2     N     3.92189  3.92189  0.00000 -0.84378
       3     C     3.05934  3.05934  0.00000 -0.11868
       4     H     0.33540  0.33540  0.00000  0.32921
       5     C     3.15500  3.15500  0.00000 -0.31001
       6     H     0.42090  0.42090  0.00000  0.15819
       7     H     0.43486  0.43486  0.00000  0.13027
       8     C     3.15651  3.15651  0.00000 -0.31302
       9     H     0.41048  0.41048  0.00000  0.17904
      10     H     0.42797  0.42797  0.00000  0.14406
      11     C     3.15190  3.15190  0.00000 -0.30380
      12     H     0.42385  0.42385  0.00000  0.15229
      13     H     0.42277  0.42277  0.00000  0.15445
      14     C     3.24233  3.24233  0.00000 -0.48467
      15     H     0.42349  0.42349  0.00000  0.15302
      16     H     0.42110  0.42110  0.00000  0.15780
      17     H     0.41810  0.41810  0.00000  0.16380
      18     H     0.41953  0.41953  0.00000  0.16094
      19     H     0.42205  0.42205  0.00000  0.15589

   Total alpha = 25.00000, Total beta = 25.00000, Total charge = -0.00000
