  ==> Input File <==

--------------------------------------------------------------------------
set {
	reference rhf
	basis 6-31G*
}

set_num_threads( 4 )
memory 2 gb

molecule MOL {
0 1

O	 3.225979	 0.970355	 -0.599647
C	 2.701189	 0.057885	 -0.047330
C	 1.245376	 -0.013843	 0.345420
O	 3.347903	 -1.046386	 0.304773
C	 0.455112	 1.231400	 -0.050772
H	 0.838542	 -0.913825	 -0.103701
H	 1.208210	 -0.175333	 1.419774
C	 -0.998893	 1.219485	 0.433193
H	 0.482531	 1.345121	 -1.130325
H	 0.957290	 2.103070	 0.354729
C	 -1.883438	 0.145884	 -0.207175
H	 -1.431207	 2.195402	 0.224832
H	 -1.019646	 1.105716	 1.516076
C	 -3.347647	 0.245583	 0.225435
H	 -1.822183	 0.231698	 -1.291012
H	 -1.510341	 -0.844814	 0.042401
C	 -3.732916	 1.631577	 0.745742
H	 -3.545694	 -0.495253	 0.998205
H	 -3.989863	 -0.012979	 -0.615044
C	 -5.195674	 1.721636	 1.179250
H	 -3.091459	 1.891952	 1.585017
H	 -3.539750	 2.372910	 -0.026846
H	 -5.438139	 2.715416	 1.542870
H	 -5.412507	 1.015927	 1.976214
H	 -5.864143	 1.499974	 0.352032
C	 4.728119	 -1.109107	 -0.004993
H	 4.882018	 -1.033965	 -1.071845
H	 5.068212	 -2.067527	 0.355250
H	 5.265056	 -0.311663	 0.488280

	symmetry c1
}
set optking {
	frozen_dihedral = ("
		17 14 11 15
	")
}

ee = optimize('scf')
oeprop('DIPOLE', 'QUADRUPOLE', 'MULLIKEN_CHARGES')
f=open( 'psi4out.xyz', 'w' )
f.write( "29  " )
f.write( str(ee) + "\n" )
f.write( MOL.save_string_xyz() )
f.close()
--------------------------------------------------------------------------

    Molecular point group: c1
  Charge       = 0
  Multiplicity = 1
  Basis Set: 6-31G*
  Basis Set:
  @DF-RHF Final Energy:  -501.03256070636280
    Total Energy =                       -501.0325607063630287
    Molecular point group: c1
  Basis Set: 6-31G*
  Basis Set:
  Basis Set: 6-31G*
  Basis Set:
  @DF-RHF Final Energy:  -501.03297259512260
    Total Energy =                       -501.0329725951230557
  Basis Set: 6-31G*
  Basis Set:
  Basis Set: 6-31G*
  Basis Set:
  @DF-RHF Final Energy:  -501.03606929281386
    Total Energy =                       -501.0360692928136359
  Basis Set: 6-31G*
  Basis Set:
  Basis Set: 6-31G*
  Basis Set:
  @DF-RHF Final Energy:  -501.03651046672610
    Total Energy =                       -501.0365104667259857
  Basis Set: 6-31G*
  Basis Set:
  @DF-RHF Final Energy:  -501.03645830167261
    Total Energy =                       -501.0364583016730649
  @DF-RHF Final Energy:  -501.03630198820304
    Total Energy =                       -501.0363019882029221
  @DF-RHF Final Energy:  -501.03656999834209
    Total Energy =                       -501.0365699983424292
  Basis Set: 6-31G*
  Basis Set:
  @DF-RHF Final Energy:  -501.03650115072401
    Total Energy =                       -501.0365011507233248
  Basis Set: 6-31G*
  Basis Set:
  Basis Set: 6-31G*
  Basis Set:
  @DF-RHF Final Energy:  -501.03657518036118
    Total Energy =                       -501.0365751803618650
  Basis Set: 6-31G*
  Basis Set:
  Basis Set: 6-31G*
  Basis Set:
  @DF-RHF Final Energy:  -501.03658380030276
    Total Energy =                       -501.0365838003027648
  Basis Set: 6-31G*
  Basis Set:
  Charge       = 0
  Multiplicity = 1
  Basis Set: 6-31G*
  Basis Set:

    Orbital Energies (a.u.)
    -----------------------

    Doubly Occupied:

       1A    -20.603370     2A    -20.545197     3A    -11.372024
       4A    -11.280663     5A    -11.234720     6A    -11.219172
       7A    -11.217655     8A    -11.216313     9A    -11.215445
      10A    -11.214870    11A    -11.208732    12A     -1.469072
      13A     -1.362513    14A     -1.096864    15A     -1.064792
      16A     -1.017395    17A     -0.976200    18A     -0.929279
      19A     -0.862898    20A     -0.819856    21A     -0.773231
      22A     -0.758417    23A     -0.700939    24A     -0.682094
      25A     -0.672141    26A     -0.643996    27A     -0.628662
      28A     -0.608368    29A     -0.592849    30A     -0.581588
      31A     -0.565617    32A     -0.553239    33A     -0.545457
      34A     -0.524355    35A     -0.521485    36A     -0.497732
      37A     -0.492048    38A     -0.485728    39A     -0.480235
      40A     -0.456990    41A     -0.449669    42A     -0.448433
      43A     -0.441622    44A     -0.437196

  @DF-RHF Final Energy:  -501.03658387776193

   => Energetics <=

    Nuclear Repulsion Energy =            614.3197098981949011
    One-Electron Energy =               -1899.7743423747042470
    Two-Electron Energy =                 784.4180485987476459
    DFT Exchange-Correlation Energy =       0.0000000000000000
    Empirical Dispersion Energy =           0.0000000000000000
    PCM Polarization Energy =               0.0000000000000000
    EFP Energy =                            0.0000000000000000
    Total Energy =                       -501.0365838777615863
    Molecular point group: c1
  Basis Set: 6-31G*
  Basis Set:

  -Total Gradient:
     Atom            X                  Y                   Z
    ------   -----------------  -----------------  -----------------
       1        0.000001733879     0.000002282329     0.000003516044
       2       -0.000004809176    -0.000008037590    -0.000017132545
       3       -0.000003180473     0.000000331029     0.000016382678
       4       -0.000000539295     0.000002976577     0.000003792068
       5       -0.000005614926     0.000008866954     0.000013899922
       6        0.000001186334    -0.000002481227    -0.000001511109
       7        0.000000545556    -0.000003745190     0.000001311008
       8        0.000000535841     0.000006199141    -0.000010931715
       9       -0.000008328598     0.000002225049    -0.000001734768
      10       -0.000006685070     0.000001586800    -0.000000676534
      11        0.000812101888     0.006777802213     0.002319945548
      12        0.000005184358     0.000008113566     0.000003678827
      13        0.000012082285    -0.000003736141    -0.000007488964
      14       -0.001869728802     0.000177155273    -0.006049403244
      15       -0.000199938200    -0.005894119449    -0.000378871378
      16        0.000000461613    -0.000006814695    -0.000003805821
      17        0.001258884089    -0.001077887563     0.004101259483
      18        0.000011039693    -0.000009882468    -0.000000617564
      19       -0.000000576852     0.000000922748     0.000000838157
      20        0.000000980983     0.000011766983     0.000000862861
      21       -0.000004739556    -0.000008069975    -0.000004131431
      22       -0.000004829885     0.000015071843     0.000008220862
      23       -0.000005975290     0.000001442895    -0.000002221739
      24        0.000002918932     0.000003591731     0.000003707521
      25        0.000005693020    -0.000004701379     0.000000764369
      26        0.000000912174    -0.000000338702     0.000000582948
      27       -0.000000094320    -0.000000000461     0.000000128765
      28        0.000000319570    -0.000000082434    -0.000000044780
      29        0.000000460209    -0.000000437849    -0.000000319469

  **** Optimization is complete! (in 11 steps) ****
    Final optimized geometry and variables:
    Molecular point group: c1

    Geometry (in Angstrom), charge = 0, multiplicity = 1:

    O            3.190771958621     0.445003963104    -0.851476964406
    C            2.635873591014    -0.431589942961    -0.271188165994
    C            1.182553266640    -0.435385160945     0.137255030864
    O            3.241835530373    -1.551680949188     0.102797713981
    C            0.438707599990     0.830194660678    -0.284292781078
    H            0.737173216128    -1.330747575251    -0.283095479187
    H            1.150926038308    -0.566402261546     1.215941831966
    C           -1.007714196573     0.901088273215     0.219985419989
    H            0.455025231742     0.912596295149    -1.366949981033
    H            0.984561698639     1.689880403110     0.088983365038
    C           -1.939760918014    -0.139223288287    -0.407168284888
    H           -1.381955896422     1.897932532563     0.010105714030
    H           -1.015654266440     0.795356072951     1.303676354668
    C           -3.417822250740    -0.118675531331     0.051926679161
    H           -1.895222064928    -0.070529805898    -1.492273189302
    H           -1.553771581345    -1.131810003464    -0.189201459295
    C           -3.965122689160     1.215197647736     0.570637437181
    H           -3.543553535846    -0.849345943393     0.848640346298
    H           -4.042223679064    -0.466050320968    -0.766835880928
    C           -5.441672801047     1.118876645581     0.955027738471
    H           -3.393600509466     1.538159178079     1.435184144056
    H           -3.844276417765     1.989066845028    -0.184618403367
    H           -5.812705874787     2.067730702913     1.330093699904
    H           -5.597274457828     0.373476627718     1.730113150871
    H           -6.052631126382     0.838756808780     0.101579651746
    C            4.615152042322    -1.677337157823    -0.218294677663
    H            4.760758079213    -1.635174880429    -1.288122913216
    H            4.920576810211    -2.639272485470     0.163005994788
    H            5.188511683882    -0.889920086253     0.249436082029

  Mulliken Charges: (a.u.)
   Center  Symbol    Alpha    Beta     Spin     Total
       1     O     4.28597  4.28597  0.00000 -0.57194
       2     C     2.60471  2.60471  0.00000  0.79058
       3     C     3.20992  3.20992  0.00000 -0.41984
       4     O     4.30748  4.30748  0.00000 -0.61497
       5     C     3.15397  3.15397  0.00000 -0.30793
       6     H     0.39881  0.39881  0.00000  0.20238
       7     H     0.40129  0.40129  0.00000  0.19743
       8     C     3.15945  3.15945  0.00000 -0.31890
       9     H     0.41301  0.41301  0.00000  0.17397
      10     H     0.40848  0.40848  0.00000  0.18303
      11     C     3.15848  3.15848  0.00000 -0.31696
      12     H     0.41509  0.41509  0.00000  0.16982
      13     H     0.42388  0.42388  0.00000  0.15225
      14     C     3.15184  3.15184  0.00000 -0.30368
      15     H     0.42130  0.42130  0.00000  0.15741
      16     H     0.42210  0.42210  0.00000  0.15581
      17     C     3.15538  3.15538  0.00000 -0.31076
      18     H     0.42380  0.42380  0.00000  0.15241
      19     H     0.42060  0.42060  0.00000  0.15880
      20     C     3.23926  3.23926  0.00000 -0.47851
      21     H     0.42037  0.42037  0.00000  0.15925
      22     H     0.42279  0.42279  0.00000  0.15442
      23     H     0.41910  0.41910  0.00000  0.16181
      24     H     0.42210  0.42210  0.00000  0.15580
      25     H     0.42172  0.42172  0.00000  0.15655
      26     C     3.09240  3.09240  0.00000 -0.18480
      27     H     0.40908  0.40908  0.00000  0.18184
      28     H     0.40851  0.40851  0.00000  0.18297
      29     H     0.40914  0.40914  0.00000  0.18173

   Total alpha = 44.00000, Total beta = 44.00000, Total charge =  0.00000
