                              Psi4 1.0.54 Driver

  ==> Input File <==

--------------------------------------------------------------------------
set {
	reference rhf
	basis cc-pvtz
}

set_num_threads( 4 )
memory 2 gb

molecule MOL {
0 1

H	 -3.184631	 -0.088163	 0.630441
C	 -2.782255	 -0.149526	 -0.378129
O	 -1.401606	 -0.295183	 -0.366624
H	 -3.202119	 -1.016078	 -0.867710
H	 -3.085954	 0.741757	 -0.924267
C	 -0.718530	 0.758693	 0.228682
C	 0.718529	 0.758687	 -0.228709
H	 -1.176498	 1.708665	 -0.046615
H	 -0.748705	 0.673525	 1.312779
O	 1.401606	 -0.295166	 0.366636
H	 0.748705	 0.673477	 -1.312803
H	 1.176496	 1.708671	 0.046552
C	 2.714315	 -0.441627	 -0.061017
H	 2.765292	 -0.641548	 -1.128869
H	 3.305661	 0.447341	 0.150952
H	 3.143725	 -1.278506	 0.470147

	symmetry c1
}
set optking {
	frozen_dihedral = ("
		2 3 6 7
	")
}

ee,wfn = optimize('scf', return_wfn=True)
oeprop( wfn, 'DIPOLE', 'QUADRUPOLE', 'MULLIKEN_CHARGES')
f=open( 'psi4out.xyz', 'w' )
f.write( "16  " )
f.write( str(ee) + "\n" )
f.write( MOL.save_string_xyz() )
f.close()
--------------------------------------------------------------------------

    Molecular point group: c1
  Charge       = 0
  Multiplicity = 1
  Basis Set: CC-PVTZ
  Basis Set:
  @DF-RHF Final Energy:  -307.09666611513461
    Total Energy =                       -307.0966661151348944
    Molecular point group: c1
  Basis Set: CC-PVTZ
  Basis Set:
  Basis Set: CC-PVTZ
  Basis Set:
  @DF-RHF Final Energy:  -307.09672467538917
    Total Energy =                       -307.0967246753889981
  Basis Set: CC-PVTZ
  Basis Set:
  Basis Set: CC-PVTZ
  Basis Set:
  @DF-RHF Final Energy:  -307.09673393376346
    Total Energy =                       -307.0967339337637441
  Basis Set: CC-PVTZ
  Basis Set:
  Charge       = 0
  Multiplicity = 1
  Basis Set: CC-PVTZ
  Basis Set:

    Orbital Energies (a.u.)
    -----------------------

    Doubly Occupied:

       1A    -20.547519     2A    -20.547402     3A    -11.267768
       4A    -11.267079     5A    -11.262600     6A    -11.261370
       7A     -1.391191     8A     -1.374222     9A     -1.032045
      10A     -0.937257    11A     -0.893803    12A     -0.823487
      13A     -0.687905    14A     -0.680756    15A     -0.659502
      16A     -0.640069    17A     -0.629910    18A     -0.599138
      19A     -0.555623    20A     -0.532656    21A     -0.508987
      22A     -0.478060    23A     -0.468567    24A     -0.422372
      25A     -0.412698

  @DF-RHF Final Energy:  -307.09673422044000

   => Energetics <=

    Nuclear Repulsion Energy =            258.4899059683104952
    One-Electron Energy =                -931.4092984969367990
    Two-Electron Energy =                 365.8226583081861918
    DFT Exchange-Correlation Energy =       0.0000000000000000
    Empirical Dispersion Energy =           0.0000000000000000
    PCM Polarization Energy =               0.0000000000000000
    EFP Energy =                            0.0000000000000000
    Total Energy =                       -307.0967342204401120
    Molecular point group: c1
  Basis Set: CC-PVTZ
  Basis Set:

  -Total Gradient:
     Atom            X                  Y                   Z
    ------   -----------------  -----------------  -----------------
       1        0.000018169855     0.000002717343     0.000000178087
       2        0.000123936683     0.000982773203    -0.002021694410
       3       -0.000377730110    -0.000991887135     0.002254747680
       4       -0.000023071128    -0.000006670308     0.000003519987
       5        0.000008625106     0.000002425718     0.000014074355
       6        0.000729756088    -0.001140732155     0.001305215348
       7       -0.000489526854     0.001223076803    -0.001562986411
       8       -0.000001544495    -0.000002018726    -0.000008752973
       9        0.000002234443    -0.000010387161    -0.000025367332
      10        0.000024909403    -0.000052506110     0.000026738567
      11       -0.000007735694    -0.000015551701     0.000021746378
      12        0.000008732258    -0.000013440202     0.000006537862
      13       -0.000015608970     0.000023979129    -0.000019539153
      14        0.000003844125    -0.000003020920    -0.000001422419
      15        0.000007336265    -0.000000126620     0.000001489242
      16       -0.000012326970     0.000001368840     0.000005515190

  **** Optimization is complete! (in 4 steps) ****
    Final optimized geometry and variables:
    Molecular point group: c1

    Geometry (in Angstrom), charge = 0, multiplicity = 1:

    H           -3.182233953684    -0.119504111407     0.709098579220
    C           -2.773457900917    -0.205153552042    -0.295728452345
    O           -1.392306846302    -0.347157422087    -0.278732340958
    H           -3.189982480906    -1.085472506558    -0.763217014512
    H           -3.076126294493     0.671085840011    -0.865217969395
    C           -0.705191536399     0.713440550126     0.303290276797
    C            0.733783485484     0.710561222141    -0.149503744527
    H           -1.150132784918     1.661009910111     0.001678850690
    H           -0.751227482176     0.651802637481     1.387967503718
    O            1.413254333227    -0.351898913698     0.434114662169
    H            0.764935133845     0.637504008542    -1.234403389922
    H            1.194527069473     1.655856785021     0.138214053166
    C            2.728083369882    -0.492848626688     0.011476577146
    H            2.784867663798    -0.676457487976    -1.059068246248
    H            3.318820227652     0.392425168596     0.240234809733
    H            3.153928410846    -1.338071686910     0.532111115185

  Mulliken Charges: (a.u.)
   Center  Symbol    Alpha    Beta     Spin     Total
       1     H     0.47141  0.47141  0.00000  0.05719
       2     C     3.03173  3.03173  0.00000 -0.06346
       3     O     4.17055  4.17055  0.00000 -0.34110
       4     H     0.44685  0.44685  0.00000  0.10629
       5     H     0.47252  0.47252  0.00000  0.05497
       6     C     2.96055  2.96055  0.00000  0.07890
       7     C     2.96006  2.96006  0.00000  0.07989
       8     H     0.47926  0.47926  0.00000  0.04147
       9     H     0.46599  0.46599  0.00000  0.06802
      10     O     4.16960  4.16960  0.00000 -0.33919
      11     H     0.47182  0.47182  0.00000  0.05636
      12     H     0.47715  0.47715  0.00000  0.04571
      13     C     3.03203  3.03203  0.00000 -0.06405
      14     H     0.47053  0.47053  0.00000  0.05895
      15     H     0.47384  0.47384  0.00000  0.05233
      16     H     0.44613  0.44613  0.00000  0.10774

   Total alpha = 25.00000, Total beta = 25.00000, Total charge =  0.00000

*** Psi4 exiting successfully. Buy a developer a beer!
