  ==> Input File <==

--------------------------------------------------------------------------
set {
	reference rhf
	basis 6-31G*
}

set_num_threads( 4 )
memory 2 gb

molecule MOL {
0 1

H	 2.302506	 1.085596	 -4.955887
C	 2.679573	 1.274335	 -3.955527
C	 1.535925	 1.420210	 -2.952549
H	 3.330628	 0.447970	 -3.686099
H	 3.286308	 2.174949	 -3.995098
C	 2.033116	 1.694271	 -1.531456
H	 0.936928	 0.515348	 -2.958028
H	 0.882596	 2.232245	 -3.267910
C	 0.909925	 1.863058	 -0.508119
H	 2.682821	 0.887329	 -1.211501
H	 2.632645	 2.601795	 -1.533674
C	 0.169600	 0.576866	 -0.172154
H	 1.319490	 2.238493	 0.428404
H	 0.193822	 2.612812	 -0.837119
C	 -1.181045	 0.701995	 0.511084
O	 0.635318	 -0.495341	 -0.416867
C	 -2.285934	 -0.139295	 -0.145128
H	 -1.449051	 1.751551	 0.493206
H	 -1.071135	 0.403303	 1.551943
C	 -3.651768	 0.085446	 0.506485
H	 -2.346596	 0.110469	 -1.202272
H	 -2.034737	 -1.195320	 -0.088721
C	 -4.759797	 -0.746382	 -0.137905
H	 -3.908762	 1.140117	 0.445781
H	 -3.588286	 -0.154158	 1.565709
H	 -4.868882	 -0.505166	 -1.191300
H	 -4.548009	 -1.809175	 -0.062213
H	 -5.715422	 -0.564821	 0.343442

	symmetry c1
}
set optking {
	frozen_dihedral = ("
		16 12 15 17
	")
}

ee = optimize('scf')
oeprop('DIPOLE', 'QUADRUPOLE', 'MULLIKEN_CHARGES')
f=open( 'psi4out.xyz', 'w' )
f.write( "28  " )
f.write( str(ee) + "\n" )
f.write( MOL.save_string_xyz() )
f.close()
--------------------------------------------------------------------------

    Molecular point group: c1
  Charge       = 0
  Multiplicity = 1
  Basis Set: 6-31G*
  Basis Set:
  @DF-RHF Final Energy:  -426.16866708373630
    Total Energy =                       -426.1686670837358406
    Molecular point group: c1
  Basis Set: 6-31G*
  Basis Set:
  Basis Set: 6-31G*
  Basis Set:
  @DF-RHF Final Energy:  -426.16931146957097
    Total Energy =                       -426.1693114695706299
  Basis Set: 6-31G*
  Basis Set:
  Basis Set: 6-31G*
  Basis Set:
  @DF-RHF Final Energy:  -426.16893467857926
    Total Energy =                       -426.1689346785792623
  Basis Set: 6-31G*
  Basis Set:
  Basis Set: 6-31G*
  Basis Set:
  @DF-RHF Final Energy:  -426.17001739299883
    Total Energy =                       -426.1700173929990569
  Basis Set: 6-31G*
  Basis Set:
  @DF-RHF Final Energy:  -426.16987823520242
    Total Energy =                       -426.1698782352025319
  @DF-RHF Final Energy:  -426.17005776499002
    Total Energy =                       -426.1700577649897923
  Basis Set: 6-31G*
  Basis Set:
  @DF-RHF Final Energy:  -426.17008642750864
    Total Energy =                       -426.1700864275085223
  Basis Set: 6-31G*
  Basis Set:
  Basis Set: 6-31G*
  Basis Set:
  @DF-RHF Final Energy:  -426.17008536355775
    Total Energy =                       -426.1700853635579733
  Basis Set: 6-31G*
  Basis Set:
  Basis Set: 6-31G*
  Basis Set:
  @DF-RHF Final Energy:  -426.17008820262822
    Total Energy =                       -426.1700882026279942
  Basis Set: 6-31G*
  Basis Set:
  Charge       = 0
  Multiplicity = 1
  Basis Set: 6-31G*
  Basis Set:

    Orbital Energies (a.u.)
    -----------------------

    Doubly Occupied:

       1A    -20.548492     2A    -11.323786     3A    -11.231489
       4A    -11.229597     5A    -11.222715     6A    -11.221069
       7A    -11.216491     8A    -11.211758     9A    -11.210809
      10A    -11.204939    11A     -1.394464    12A     -1.089308
      13A     -1.077427    14A     -1.021756    15A     -0.990780
      16A     -0.909720    17A     -0.866620    18A     -0.805350
      19A     -0.794891    20A     -0.724347    21A     -0.669771
      22A     -0.651373    23A     -0.625900    24A     -0.618330
      25A     -0.607956    26A     -0.586273    27A     -0.576172
      28A     -0.573141    29A     -0.538860    30A     -0.530805
      31A     -0.517966    32A     -0.509470    33A     -0.495979
      34A     -0.479038    35A     -0.477231    36A     -0.471329
      37A     -0.467128    38A     -0.464132    39A     -0.456149
      40A     -0.392522

  @DF-RHF Final Energy:  -426.17008826048527

   => Energetics <=

    Nuclear Repulsion Energy =            531.0501725199288785
    One-Electron Energy =               -1630.4298558618941115
    Two-Electron Energy =                 673.2095950814803018
    DFT Exchange-Correlation Energy =       0.0000000000000000
    Empirical Dispersion Energy =           0.0000000000000000
    PCM Polarization Energy =               0.0000000000000000
    EFP Energy =                            0.0000000000000000
    Total Energy =                       -426.1700882604848175
    Molecular point group: c1
  Basis Set: 6-31G*
  Basis Set:

  -Total Gradient:
     Atom            X                  Y                   Z
    ------   -----------------  -----------------  -----------------
       1       -0.000001104533    -0.000003357394     0.000001503526
       2       -0.000000118957    -0.000005799680     0.000003978482
       3        0.000003176944     0.000011776872    -0.000007912822
       4        0.000003750463     0.000001705103     0.000001554134
       5       -0.000001517273     0.000001231475    -0.000002778503
       6       -0.000005166285    -0.000009219045     0.000002535257
       7       -0.000004407480     0.000001693497     0.000002069430
       8        0.000001136802     0.000002225191    -0.000000206674
       9       -0.000000709678    -0.000006645154     0.000001831293
      10        0.000005786993    -0.000001730254     0.000000261825
      11       -0.000007077646     0.000001049214     0.000001915223
      12       -0.000483815780     0.000204298157    -0.000807020192
      13       -0.000002735319    -0.000001381720     0.000001753021
      14       -0.000004634027     0.000000292936    -0.000000338186
      15        0.000295552239    -0.000525003405     0.000528234450
      16        0.000313483485    -0.000040752932     0.000513695037
      17       -0.000119375510     0.000369135277    -0.000240474004
      18       -0.000001150619    -0.000003019440    -0.000007228706
      19        0.000007498840     0.000003327039     0.000004207969
      20        0.000002182042    -0.000004155254     0.000002353649
      21       -0.000005681794    -0.000003873180    -0.000007056771
      22        0.000006385690     0.000007554502     0.000006041080
      23       -0.000001456625     0.000003361224    -0.000001709801
      24       -0.000000114080    -0.000001060315     0.000001442852
      25       -0.000000640335    -0.000002080642     0.000001006157
      26        0.000000861819    -0.000000944824    -0.000000816292
      27        0.000000190759    -0.000000089405     0.000001980461
      28       -0.000000300133     0.000001462156    -0.000000821892

  **** Optimization is complete! (in 10 steps) ****
    Final optimized geometry and variables:
    Molecular point group: c1

    Geometry (in Angstrom), charge = 0, multiplicity = 1:

    H            3.165019355579     0.467844730287    -3.976137110305
    C            3.408043854407     0.658322347638    -2.935370602842
    C            2.142842511470     0.812232327585    -2.092409692549
    H            4.014023226304    -0.170191792292    -2.580649876004
    H            4.019324358546     1.556044601007    -2.897393003685
    C            2.450433275533     1.092460856331    -0.619518246319
    H            1.545335466859    -0.089173054943    -2.171134108585
    H            1.541068993354     1.626377013066    -2.493474080443
    C            1.205101136619     1.260865305631     0.249236339437
    H            3.057830121096     0.289034035649    -0.216142245476
    H            3.042950582370     2.001826600549    -0.548267540394
    C            0.456877766877    -0.023282508010     0.554289758501
    H            1.465913924844     1.701983610500     1.211222434334
    H            0.504734503082     1.960089715989    -0.205263879416
    C           -0.816029670306     0.099732155016     1.379738333966
    O            0.852211061829    -1.093861386452     0.202469771129
    C           -1.987831474392    -0.673295492335     0.766086691030
    H           -1.079560554877     1.144383472665     1.516264300557
    H           -0.589877783155    -0.300513470589     2.365874577575
    C           -3.247627655351    -0.620960403720     1.631308721757
    H           -2.209886506204    -0.267461120455    -0.219088796357
    H           -1.683506826036    -1.702852450129     0.614563574624
    C           -4.418172731915    -1.387480158076     1.016768928845
    H           -3.538410099483     0.415541714273     1.789590278058
    H           -3.025243953941    -1.029541752389     2.614763108153
    H           -4.687597638513    -0.980032081176     0.046506570751
    H           -4.169259537997    -2.435330988010     0.877069113172
    H           -5.296839673626    -1.337249898986     1.652145273086

  Mulliken Charges: (a.u.)
   Center  Symbol    Alpha    Beta     Spin     Total
       1     H     0.41940  0.41940  0.00000  0.16119
       2     C     3.24029  3.24029  0.00000 -0.48057
       3     C     3.15623  3.15623  0.00000 -0.31246
       4     H     0.41867  0.41867  0.00000  0.16266
       5     H     0.42403  0.42403  0.00000  0.15195
       6     C     3.14934  3.14934  0.00000 -0.29867
       7     H     0.40709  0.40709  0.00000  0.18583
       8     H     0.42814  0.42814  0.00000  0.14372
       9     C     3.21264  3.21264  0.00000 -0.42529
      10     H     0.40898  0.40898  0.00000  0.18203
      11     H     0.42181  0.42181  0.00000  0.15638
      12     C     2.73103  2.73103  0.00000  0.53793
      13     H     0.40596  0.40596  0.00000  0.18808
      14     H     0.40955  0.40955  0.00000  0.18090
      15     C     3.20243  3.20243  0.00000 -0.40486
      16     O     4.26996  4.26996  0.00000 -0.53992
      17     C     3.15566  3.15566  0.00000 -0.31131
      18     H     0.41498  0.41498  0.00000  0.17003
      19     H     0.40333  0.40333  0.00000  0.19334
      20     C     3.15277  3.15277  0.00000 -0.30553
      21     H     0.42098  0.42098  0.00000  0.15804
      22     H     0.40320  0.40320  0.00000  0.19360
      23     C     3.23982  3.23982  0.00000 -0.47965
      24     H     0.42361  0.42361  0.00000  0.15277
      25     H     0.42144  0.42144  0.00000  0.15711
      26     H     0.42109  0.42109  0.00000  0.15781
      27     H     0.41905  0.41905  0.00000  0.16191
      28     H     0.41851  0.41851  0.00000  0.16298

   Total alpha = 40.00000, Total beta = 40.00000, Total charge =  0.00000
