  ==> Input File <==

--------------------------------------------------------------------------
set {
	reference rhf
	basis 6-31G*
}

set_num_threads( 4 )
memory 2 gb

molecule MOL {
0 1

H	 -0.000158	 1.970498	 0.756846
O	 -0.000074	 1.880206	 -0.189275
C	 -0.000015	 0.544847	 -0.545111
C	 -1.432006	 0.063231	 -0.753520
C	 0.782827	 -0.265999	 0.482356
H	 0.514179	 0.455318	 -1.490463
F	 -1.999383	 0.764584	 -1.711504
F	 -1.486705	 -1.207557	 -1.091846
F	 -2.148722	 0.228608	 0.346738
F	 2.024484	 0.166613	 0.534037
F	 0.810229	 -1.548921	 0.189545
F	 0.256977	 -0.129256	 1.689153

	symmetry c1
}
set optking {
	frozen_dihedral = ("
		6 3 2 1
	")
}

ee = optimize('scf')
oeprop('DIPOLE', 'QUADRUPOLE', 'MULLIKEN_CHARGES')
f=open( 'psi4out.xyz', 'w' )
f.write( "12  " )
f.write( str(ee) + "\n" )
f.write( MOL.save_string_xyz() )
f.close()
--------------------------------------------------------------------------

    Molecular point group: c1
  Charge       = 0
  Multiplicity = 1
  Basis Set: 6-31G*
  Basis Set:
  @DF-RHF Final Energy:  -786.27597556010573
    Total Energy =                       -786.2759755601060760
    Molecular point group: c1
  Basis Set: 6-31G*
  Basis Set:
  Basis Set: 6-31G*
  Basis Set:
  @DF-RHF Final Energy:  -786.27623740521585
    Total Energy =                       -786.2762374052161931
  Basis Set: 6-31G*
  Basis Set:
  Basis Set: 6-31G*
  Basis Set:
  @DF-RHF Final Energy:  -786.27629829852447
    Total Energy =                       -786.2762982985246936
  Basis Set: 6-31G*
  Basis Set:
  Basis Set: 6-31G*
  Basis Set:
  @DF-RHF Final Energy:  -786.27630424487961
    Total Energy =                       -786.2763042448790429
  Basis Set: 6-31G*
  Basis Set:
  Charge       = 0
  Multiplicity = 1
  Basis Set: 6-31G*
  Basis Set:

    Orbital Energies (a.u.)
    -----------------------

    Doubly Occupied:

       1A    -26.368956     2A    -26.367417     3A    -26.363773
       4A    -26.356865     5A    -26.356820     6A    -26.353535
       7A    -20.615575     8A    -11.531689     9A    -11.521029
      10A    -11.349357    11A     -1.768334    12A     -1.755921
      13A     -1.666237    14A     -1.662005    15A     -1.653480
      16A     -1.651748    17A     -1.433843    18A     -1.102617
      19A     -0.997628    20A     -0.938213    21A     -0.866747
      22A     -0.862933    23A     -0.854443    24A     -0.842669
      25A     -0.831348    26A     -0.812127    27A     -0.744783
      28A     -0.731057    29A     -0.721213    30A     -0.717495
      31A     -0.692296    32A     -0.689668    33A     -0.684431
      34A     -0.672483    35A     -0.667795    36A     -0.666376
      37A     -0.654171    38A     -0.653035    39A     -0.618724
      40A     -0.549976    41A     -0.504858

  @DF-RHF Final Energy:  -786.27630509455832

   => Energetics <=

    Nuclear Repulsion Energy =            670.6025145885065513
    One-Electron Energy =               -2428.0502983027072332
    Two-Electron Energy =                 971.1714786196423574
    DFT Exchange-Correlation Energy =       0.0000000000000000
    Empirical Dispersion Energy =           0.0000000000000000
    PCM Polarization Energy =               0.0000000000000000
    EFP Energy =                            0.0000000000000000
    Total Energy =                       -786.2763050945584382
    Molecular point group: c1
  Basis Set: 6-31G*
  Basis Set:

  -Total Gradient:
     Atom            X                  Y                   Z
    ------   -----------------  -----------------  -----------------
       1        0.003617415737     0.000012347727     0.000123076504
       2       -0.003831628755    -0.000079880826     0.000269062614
       3       -0.002452234641     0.000517401714    -0.001998529120
       4       -0.000059296411    -0.000042689037    -0.000003501610
       5       -0.000076468276     0.000027345676     0.000112654108
       6        0.002653528862    -0.000385865333     0.001588462892
       7        0.000008045948     0.000011378035    -0.000025891192
       8        0.000023646232    -0.000018429398    -0.000003589074
       9        0.000083230101     0.000013745183     0.000036905902
      10        0.000042680177    -0.000012859847    -0.000020223765
      11        0.000021545635    -0.000046832502    -0.000026112393
      12       -0.000030464628     0.000004338605    -0.000052314869

  **** Optimization is complete! (in 5 steps) ****
    Final optimized geometry and variables:
    Molecular point group: c1

    Geometry (in Angstrom), charge = 0, multiplicity = 1:

    H            0.296788563600     1.969614187611     0.828422691229
    O            0.321350270177     1.860857170068    -0.114215817027
    C            0.333374062906     0.521496769677    -0.461039225337
    C           -1.096045296373     0.036834927590    -0.674193403473
    C            1.106513934118    -0.285183524901     0.577264315547
    H            0.870310738097     0.413698458894    -1.392705062251
    F           -1.691688791082     0.795832046505    -1.568020131626
    F           -1.127296257126    -1.206508712348    -1.113009241948
    F           -1.794442397104     0.095710927091     0.444738767237
    F            2.369807178551     0.090892625526     0.575106673055
    F            1.063141099798    -1.577398642672     0.345945280873
    F            0.630837478116    -0.064158284128     1.793762546875

  Mulliken Charges: (a.u.)
   Center  Symbol    Alpha    Beta     Spin     Total
       1     H     0.26407  0.26407  0.00000  0.47186
       2     O     4.36677  4.36677  0.00000 -0.73354
       3     C     3.03652  3.03652  0.00000 -0.07305
       4     C     2.44046  2.44046  0.00000  1.11908
       5     C     2.45741  2.45741  0.00000  1.08517
       6     H     0.37750  0.37750  0.00000  0.24501
       7     F     4.67497  4.67497  0.00000 -0.34994
       8     F     4.67666  4.67666  0.00000 -0.35332
       9     F     4.67867  4.67867  0.00000 -0.35735
      10     F     4.67565  4.67565  0.00000 -0.35131
      11     F     4.67097  4.67097  0.00000 -0.34193
      12     F     4.68034  4.68034  0.00000 -0.36068

   Total alpha = 41.00000, Total beta = 41.00000, Total charge =  0.00000
