  ==> Input File <==

--------------------------------------------------------------------------
set {
	reference rhf
	basis 6-31G*
}

set_num_threads( 1 )
memory 2 gb

molecule MOL {
0 1

H	 -2.646374	 -0.642757	 1.268656
C	 -2.083525	 -0.384536	 0.393091
O	 -0.807605	 -0.127164	 0.768327
F	 -2.118945	 -1.383102	 -0.486752
F	 -2.621877	 0.670592	 -0.209486
C	 0.084052	 0.273579	 -0.209957
C	 1.045119	 -0.886014	 -0.437674
Cl	 0.965549	 1.724381	 0.295368
H	 -0.404117	 0.496510	 -1.142570
F	 1.920801	 -0.580513	 -1.371477
F	 0.357328	 -1.932783	 -0.848352
F	 1.690287	 -1.215675	 0.654596

	symmetry c1
}
set optking {
	frozen_dihedral = ("
		10 7 6 9,
		6 3 2 4
	")
}

ee = energy('scf')
oeprop('DIPOLE', 'QUADRUPOLE', 'MULLIKEN_CHARGES')
f=open( 'psi4out.xyz', 'w' )
f.write( "12  " )
f.write( str(ee) + "\n" )
f.write( MOL.save_string_xyz() )
f.close()
--------------------------------------------------------------------------

    Molecular point group: c1

    Geometry (in Angstrom), charge = 0, multiplicity = 1:

       Center              X                  Y                   Z               Mass
    ------------   -----------------  -----------------  -----------------  -----------------
           H         -2.600961938163    -0.434972335941     1.395163360548     1.007825032070
           C         -2.038112938163    -0.176751335941     0.519598360548    12.000000000000
           O         -0.762192938163     0.080620664059     0.894834360548    15.994914619560
           F         -2.073532938163    -1.175317335941    -0.360244639452    18.998403224000
           F         -2.576464938163     0.878376664059    -0.082978639452    18.998403224000
           C          0.129464061837     0.481363664059    -0.083449639452    12.000000000000
           C          1.090531061837    -0.678229335941    -0.311166639452    12.000000000000
          CL          1.010961061837     1.932165664059     0.421875360548    34.968852682000
           H         -0.358704938163     0.704294664059    -1.016062639452     1.007825032070
           F          1.966213061837    -0.372728335941    -1.244969639452    18.998403224000
           F          0.402740061837    -1.724998335941    -0.721844639452    18.998403224000
           F          1.735699061837    -1.007890335941     0.781103360548    18.998403224000

  Charge       = 0
  Multiplicity = 1
  Basis Set: 6-31G*
  Basis Set:

    Orbital Energies (a.u.)
    -----------------------

    Doubly Occupied:

       1A   -104.847564     2A    -26.357754     3A    -26.356077
       4A    -26.355691     5A    -26.348135     6A    -26.342363
       7A    -20.648550     8A    -11.524125     9A    -11.489215
      10A    -11.400409    11A    -10.582012    12A     -8.051384
      13A     -8.047827    14A     -8.047730    15A     -1.759136
      16A     -1.717324    17A     -1.655751    18A     -1.654201
      19A     -1.637456    20A     -1.485668    21A     -1.181264
      22A     -1.049176    23A     -0.987920    24A     -0.917457
      25A     -0.856140    26A     -0.852007    27A     -0.842580
      28A     -0.829658    29A     -0.811224    30A     -0.789031
      31A     -0.727832    32A     -0.722521    33A     -0.706100
      34A     -0.698598    35A     -0.673393    36A     -0.672726
      37A     -0.657015    38A     -0.652661    39A     -0.646566
      40A     -0.636172    41A     -0.595385    42A     -0.577796
      43A     -0.525714    44A     -0.480328    45A     -0.470116

  @DF-RHF Final Energy: -1146.31161508556261

   => Energetics <=

    Nuclear Repulsion Energy =            743.5089176243596967
    One-Electron Energy =               -3069.9053607773112162
    Two-Electron Energy =                1180.0848280673881163
    DFT Exchange-Correlation Energy =       0.0000000000000000
    Empirical Dispersion Energy =           0.0000000000000000
    PCM Polarization Energy =               0.0000000000000000
    EFP Energy =                            0.0000000000000000
    Total Energy =                      -1146.3116150855635169

  Mulliken Charges: (a.u.)
   Center  Symbol    Alpha    Beta     Spin     Total
       1     H     0.40100  0.40100  0.00000  0.19800
       2     C     2.56460  2.56460  0.00000  0.87080
       3     O     4.29807  4.29807  0.00000 -0.59615
       4     F     4.68577  4.68577  0.00000 -0.37153
       5     F     4.68610  4.68610  0.00000 -0.37219
       6     C     3.05254  3.05254  0.00000 -0.10509
       7     C     2.43358  2.43358  0.00000  1.13283
       8    CL     8.49416  8.49416  0.00000  0.01168
       9     H     0.36602  0.36602  0.00000  0.26795
      10     F     4.67423  4.67423  0.00000 -0.34847
      11     F     4.67540  4.67540  0.00000 -0.35080
      12     F     4.66852  4.66852  0.00000 -0.33704

   Total alpha = 45.00000, Total beta = 45.00000, Total charge =  0.00000
