  ==> Input File <==

--------------------------------------------------------------------------
set {
	reference rhf
	basis 6-31G*
}

set_num_threads( 1 )
memory 2 gb

molecule MOL {
0 1

H	 -2.034644	 -0.819910	 -1.213768
O	 -2.310168	 -0.871793	 -0.309793
C	 -2.026376	 0.340750	 0.341611
C	 -0.673256	 0.843270	 -0.132153
H	 -2.792215	 1.080697	 0.115987
H	 -2.013526	 0.200402	 1.421792
C	 0.486613	 -0.083066	 0.235839
H	 -0.715586	 0.970948	 -1.210718
H	 -0.508072	 1.829858	 0.297090
C	 1.840406	 0.433480	 -0.254303
H	 0.300215	 -1.068318	 -0.178947
H	 0.519509	 -0.203625	 1.318070
C	 3.000220	 -0.489290	 0.118523
H	 1.809207	 0.553576	 -1.335192
H	 2.021860	 1.424500	 0.157276
H	 2.864959	 -1.479103	 -0.307933
H	 3.946603	 -0.099227	 -0.243630
H	 3.080049	 -0.602997	 1.196117

	symmetry c1
}
set optking {
	frozen_dihedral = ("
		14 10 7 11,
		10 7 4 8,
		2 3 4 8
	")
}

ee = energy('scf')
oeprop('DIPOLE', 'QUADRUPOLE', 'MULLIKEN_CHARGES')
f=open( 'psi4out.xyz', 'w' )
f.write( "18  " )
f.write( str(ee) + "\n" )
f.write( MOL.save_string_xyz() )
f.close()
--------------------------------------------------------------------------

    Molecular point group: c1

    Geometry (in Angstrom), charge = 0, multiplicity = 1:

       Center              X                  Y                   Z               Mass
    ------------   -----------------  -----------------  -----------------  -----------------
           H         -2.047238067136    -0.824431075396    -1.199865687234     1.007825032070
           O         -2.322762067136    -0.876314075396    -0.295890687234    15.994914619560
           C         -2.038970067136     0.336228924604     0.355513312766    12.000000000000
           C         -0.685850067136     0.838748924604    -0.118250687234    12.000000000000
           H         -2.804809067136     1.076175924604     0.129889312766     1.007825032070
           H         -2.026120067136     0.195880924604     1.435694312766     1.007825032070
           C          0.474018932864    -0.087587075396     0.249741312766    12.000000000000
           H         -0.728180067136     0.966426924604    -1.196815687234     1.007825032070
           H         -0.520666067136     1.825336924604     0.310992312766     1.007825032070
           C          1.827811932864     0.428958924604    -0.240400687234    12.000000000000
           H          0.287620932864    -1.072839075396    -0.165044687234     1.007825032070
           H          0.506914932864    -0.208146075396     1.331972312766     1.007825032070
           C          2.987625932864    -0.493811075396     0.132425312766    12.000000000000
           H          1.796612932864     0.549054924604    -1.321289687234     1.007825032070
           H          2.009265932864     1.419978924604     0.171178312766     1.007825032070
           H          2.852364932864    -1.483624075396    -0.294030687234     1.007825032070
           H          3.934008932864    -0.103748075396    -0.229727687234     1.007825032070
           H          3.067454932864    -0.607518075396     1.210019312766     1.007825032070

  Charge       = 0
  Multiplicity = 1
  Basis Set: 6-31G*
  Basis Set:

    Orbital Energies (a.u.)
    -----------------------

    Doubly Occupied:

       1A    -20.551036     2A    -11.268782     3A    -11.219889
       4A    -11.217724     5A    -11.215276     6A    -11.209856
       7A     -1.360110     8A     -1.081565     9A     -1.012590
      10A     -0.918962    11A     -0.832071    12A     -0.795172
      13A     -0.668984    14A     -0.656468    15A     -0.627481
      16A     -0.613447    17A     -0.574714    18A     -0.556876
      19A     -0.540161    20A     -0.497260    21A     -0.484802
      22A     -0.478131    23A     -0.467367    24A     -0.457301
      25A     -0.424665

  @DF-RHF Final Energy:  -271.17692619268303

   => Energetics <=

    Nuclear Repulsion Energy =            250.0641001592226473
    One-Electron Energy =                -863.0208107033117813
    Two-Electron Energy =                 341.7797843514060787
    DFT Exchange-Correlation Energy =       0.0000000000000000
    Empirical Dispersion Energy =           0.0000000000000000
    PCM Polarization Energy =               0.0000000000000000
    EFP Energy =                            0.0000000000000000
    Total Energy =                       -271.1769261926830268

  Mulliken Charges: (a.u.)
   Center  Symbol    Alpha    Beta     Spin     Total
       1     H     0.28141  0.28141  0.00000  0.43718
       2     O     4.37114  4.37114  0.00000 -0.74228
       3     C     2.98641  2.98641  0.00000  0.02717
       4     C     3.18006  3.18006  0.00000 -0.36011
       5     H     0.42708  0.42708  0.00000  0.14585
       6     H     0.41775  0.41775  0.00000  0.16449
       7     C     3.14971  3.14971  0.00000 -0.29942
       8     H     0.42780  0.42780  0.00000  0.14439
       9     H     0.42108  0.42108  0.00000  0.15784
      10     C     3.15141  3.15141  0.00000 -0.30283
      11     H     0.41548  0.41548  0.00000  0.16904
      12     H     0.42239  0.42239  0.00000  0.15522
      13     C     3.23909  3.23909  0.00000 -0.47819
      14     H     0.42444  0.42444  0.00000  0.15112
      15     H     0.42329  0.42329  0.00000  0.15342
      16     H     0.42105  0.42105  0.00000  0.15789
      17     H     0.41931  0.41931  0.00000  0.16138
      18     H     0.42109  0.42109  0.00000  0.15783

   Total alpha = 25.00000, Total beta = 25.00000, Total charge =  0.00000
