                              Psi4 1.0.54 Driver

  ==> Input File <==

--------------------------------------------------------------------------
set {
	reference rhf
	basis cc-pvtz
}

set_num_threads( 4 )
memory 2 gb

molecule MOL {
0 1

H	 -0.485319	 -1.631949	 0.148447
N	 -0.625934	 -0.663929	 -0.000707
C	 -1.978635	 -0.158664	 0.001017
C	 0.462529	 0.113727	 -0.193274
H	 -2.519057	 -0.493535	 -0.876362
H	 -1.938890	 0.917202	 -0.004137
H	 -2.514266	 -0.485137	 0.884506
C	 1.781264	 -0.626493	 -0.150480
O	 0.401654	 1.293356	 -0.377245
H	 1.813291	 -1.386936	 -0.922036
H	 2.582420	 0.077006	 -0.306387
H	 1.910884	 -1.114860	 0.808328

	symmetry c1
}
set optking {
	frozen_dihedral = ("
		4 2 3 5
	")
}

ee,wfn = optimize('scf', return_wfn=True)
oeprop( wfn, 'DIPOLE', 'QUADRUPOLE', 'MULLIKEN_CHARGES')
f=open( 'psi4out.xyz', 'w' )
f.write( "12  " )
f.write( str(ee) + "\n" )
f.write( MOL.save_string_xyz() )
f.close()
--------------------------------------------------------------------------

    Molecular point group: c1
  Charge       = 0
  Multiplicity = 1
  Basis Set: CC-PVTZ
  Basis Set:
  @DF-RHF Final Energy:  -247.10097108789594
    Total Energy =                       -247.1009710878956298
    Molecular point group: c1
  Basis Set: CC-PVTZ
  Basis Set:
  Basis Set: CC-PVTZ
  Basis Set:
  @DF-RHF Final Energy:  -247.10094759703472
    Total Energy =                       -247.1009475970348603
  Basis Set: CC-PVTZ
  Basis Set:
  Basis Set: CC-PVTZ
  Basis Set:
  @DF-RHF Final Energy:  -247.10097585908679
    Total Energy =                       -247.1009758590869865
  Basis Set: CC-PVTZ
  Basis Set:
  Basis Set: CC-PVTZ
  Basis Set:
  @DF-RHF Final Energy:  -247.10100257711676
    Total Energy =                       -247.1010025771168443
  Basis Set: CC-PVTZ
  Basis Set:
  Basis Set: CC-PVTZ
  Basis Set:
  @DF-RHF Final Energy:  -247.10100481215554
    Total Energy =                       -247.1010048121555656
  Basis Set: CC-PVTZ
  Basis Set:
  Basis Set: CC-PVTZ
  Basis Set:
  @DF-RHF Final Energy:  -247.10100740507079
    Total Energy =                       -247.1010074050709591
  Basis Set: CC-PVTZ
  Basis Set:
  Charge       = 0
  Multiplicity = 1
  Basis Set: CC-PVTZ
  Basis Set:

    Orbital Energies (a.u.)
    -----------------------

    Doubly Occupied:

       1A    -20.506693     2A    -15.574879     3A    -11.336846
       4A    -11.252469     5A    -11.228077     6A     -1.388518
       7A     -1.231023     8A     -1.016697     9A     -0.932868
      10A     -0.788216    11A     -0.690971    12A     -0.651692
      13A     -0.635373    14A     -0.586773    15A     -0.582981
      16A     -0.555638    17A     -0.545009    18A     -0.511235
      19A     -0.417308    20A     -0.389364

  @DF-RHF Final Energy:  -247.10100766130441

   => Energetics <=

    Nuclear Repulsion Energy =            181.6458793952124040
    One-Electron Energy =                -695.8485085806752295
    Two-Electron Energy =                 267.1016215241585883
    DFT Exchange-Correlation Energy =       0.0000000000000000
    Empirical Dispersion Energy =           0.0000000000000000
    PCM Polarization Energy =               0.0000000000000000
    EFP Energy =                            0.0000000000000000
    Total Energy =                       -247.1010076613042088
    Molecular point group: c1
  Basis Set: CC-PVTZ
  Basis Set:

  -Total Gradient:
     Atom            X                  Y                   Z
    ------   -----------------  -----------------  -----------------
       1       -0.000004263099    -0.000002032637    -0.000014696260
       2       -0.000014444290    -0.000041676097    -0.000141439780
       3        0.000054407057     0.000130918740    -0.000000669266
       4        0.000006514125     0.000016500214     0.000090523579
       5       -0.000034369114    -0.000100948601     0.000057398110
       6        0.000003481241    -0.000002739974    -0.000004565046
       7       -0.000010119880     0.000001931259    -0.000002646969
       8       -0.000000616580    -0.000002587371    -0.000030192906
       9       -0.000002827599     0.000000439128     0.000021897739
      10        0.000006899019    -0.000014444101     0.000012948620
      11        0.000000912198     0.000000640584    -0.000001777485
      12       -0.000005573078     0.000013998861     0.000013219663

  **** Optimization is complete! (in 7 steps) ****
    Final optimized geometry and variables:
    Molecular point group: c1

    Geometry (in Angstrom), charge = 0, multiplicity = 1:

    H           -0.480297501663    -1.626664046386     0.260967056424
    N           -0.620102631557    -0.653706031164     0.146800647332
    C           -1.974151941733    -0.152659358562     0.125323043106
    C            0.467108870337     0.126472274137    -0.043778185166
    H           -2.510574489953    -0.497081907472    -0.751554131495
    H           -1.939350285895     0.923424188884     0.109227698700
    H           -2.511690959300    -0.474073195433     1.008848192485
    C            1.787413651113    -0.611705149307    -0.006667946922
    O            0.402852065964     1.306281640662    -0.224550297741
    H            1.824875141711    -1.357822695508    -0.792036442275
    H            2.587936306925     0.095991798789    -0.146515418632
    H            1.913145863324    -1.117317610175     0.943593056564

  Mulliken Charges: (a.u.)
   Center  Symbol    Alpha    Beta     Spin     Total
       1     H     0.41041  0.41041  0.00000  0.17918
       2     N     3.62171  3.62171  0.00000 -0.24342
       3     C     3.08556  3.08556  0.00000 -0.17112
       4     C     2.83663  2.83663  0.00000  0.32673
       5     H     0.45626  0.45626  0.00000  0.08748
       6     H     0.43144  0.43144  0.00000  0.13712
       7     H     0.45525  0.45525  0.00000  0.08949
       8     C     3.15357  3.15357  0.00000 -0.30714
       9     O     4.21553  4.21553  0.00000 -0.43106
      10     H     0.45005  0.45005  0.00000  0.09990
      11     H     0.43353  0.43353  0.00000  0.13294
      12     H     0.45005  0.45005  0.00000  0.09990

   Total alpha = 20.00000, Total beta = 20.00000, Total charge = -0.00000

*** Psi4 exiting successfully. Buy a developer a beer!
