  ==> Input File <==

--------------------------------------------------------------------------
set {
	reference rhf
	basis 6-31G*
}

set_num_threads( 4 )
memory 2 gb

molecule MOL {
0 1

H	 3.024352	 1.301732	 0.962855
C	 2.356674	 0.500082	 0.659868
C	 0.948573	 1.039929	 0.429791
H	 2.344287	 -0.252385	 1.440511
H	 2.774174	 0.046867	 -0.232782
N	 -0.000257	 -0.000071	 0.054619
H	 0.609234	 1.495416	 1.351614
H	 0.970465	 1.841248	 -0.314584
C	 -1.363055	 0.315058	 0.462241
C	 0.091940	 -0.356708	 -1.354979
C	 -2.412078	 -0.285320	 -0.468531
H	 -1.482241	 1.391144	 0.451970
H	 -1.549931	 -0.001174	 1.492681
C	 -0.319724	 -1.800112	 -1.627672
H	 1.120418	 -0.236126	 -1.670963
H	 -0.497822	 0.325604	 -1.974187
H	 -2.262839	 0.075384	 -1.480151
H	 -2.369300	 -1.368867	 -0.491760
H	 -3.410332	 -0.003975	 -0.144961
H	 0.304912	 -2.479613	 -1.058689
H	 -1.352443	 -1.991413	 -1.356665
H	 -0.210112	 -2.031783	 -2.683437

	symmetry c1
}
set optking {
	frozen_dihedral = ("
		3 6 9 11
	")
}

ee = optimize('scf')
oeprop('DIPOLE', 'QUADRUPOLE', 'MULLIKEN_CHARGES')
f=open( 'psi4out.xyz', 'w' )
f.write( "22  " )
f.write( str(ee) + "\n" )
f.write( MOL.save_string_xyz() )
f.close()
--------------------------------------------------------------------------

    Molecular point group: c1
  Charge       = 0
  Multiplicity = 1
  Basis Set: 6-31G*
  Basis Set:
  @DF-RHF Final Energy:  -290.34155419648044
    Total Energy =                       -290.3415541964801605
    Molecular point group: c1
  Basis Set: 6-31G*
  Basis Set:
  Basis Set: 6-31G*
  Basis Set:
  @DF-RHF Final Energy:  -290.35761701439912
    Total Energy =                       -290.3576170143991249
  Basis Set: 6-31G*
  Basis Set:
  Basis Set: 6-31G*
  Basis Set:
  @DF-RHF Final Energy:  -290.36037706293615
    Total Energy =                       -290.3603770629359815
  Basis Set: 6-31G*
  Basis Set:
  Basis Set: 6-31G*
  Basis Set:
  @DF-RHF Final Energy:  -290.36089133878511
    Total Energy =                       -290.3608913387845973
  Basis Set: 6-31G*
  Basis Set:
  @DF-RHF Final Energy:  -290.36134654775685
    Total Energy =                       -290.3613465477562841
  @DF-RHF Final Energy:  -290.36148438563919
    Total Energy =                       -290.3614843856391872
  @DF-RHF Final Energy:  -290.36151379934660
    Total Energy =                       -290.3615137993467670
  @DF-RHF Final Energy:  -290.36158475526395
    Total Energy =                       -290.3615847552641185
  Basis Set: 6-31G*
  Basis Set:
  @DF-RHF Final Energy:  -290.36162846290227
    Total Energy =                       -290.3616284629027859
  Basis Set: 6-31G*
  Basis Set:
  Basis Set: 6-31G*
  Basis Set:
  @DF-RHF Final Energy:  -290.36167260881712
    Total Energy =                       -290.3616726088171163
  Basis Set: 6-31G*
  Basis Set:
  Basis Set: 6-31G*
  Basis Set:
  @DF-RHF Final Energy:  -290.36168547967117
    Total Energy =                       -290.3616854796708822
  Basis Set: 6-31G*
  Basis Set:
  Charge       = 0
  Multiplicity = 1
  Basis Set: 6-31G*
  Basis Set:

    Orbital Energies (a.u.)
    -----------------------

    Doubly Occupied:

       1A    -15.533122     2A    -11.242029     3A    -11.239986
       4A    -11.237650     5A    -11.212300     6A    -11.204571
       7A    -11.200640     8A     -1.216178     9A     -1.026544
      10A     -1.017831    11A     -0.958726    12A     -0.859713
      13A     -0.831521    14A     -0.767458    15A     -0.660226
      16A     -0.633874    17A     -0.622460    18A     -0.592770
      19A     -0.569242    20A     -0.554102    21A     -0.538987
      22A     -0.532428    23A     -0.510715    24A     -0.502504
      25A     -0.487306    26A     -0.476457    27A     -0.466777
      28A     -0.463506    29A     -0.330229

  @DF-RHF Final Energy:  -290.36168622265114

   => Energetics <=

    Nuclear Repulsion Energy =            338.0898841634534051
    One-Electron Energy =               -1061.9234380074137789
    Two-Electron Energy =                 433.4718676213094000
    DFT Exchange-Correlation Energy =       0.0000000000000000
    Empirical Dispersion Energy =           0.0000000000000000
    PCM Polarization Energy =               0.0000000000000000
    EFP Energy =                            0.0000000000000000
    Total Energy =                       -290.3616862226509170
    Molecular point group: c1
  Basis Set: 6-31G*
  Basis Set:

  -Total Gradient:
     Atom            X                  Y                   Z
    ------   -----------------  -----------------  -----------------
       1       -0.000003332752    -0.000011618221    -0.000009327826
       2       -0.000001502447    -0.000006249226    -0.000001725026
       3       -0.000502684780     0.002177122048    -0.003317612542
       4       -0.000011818367     0.000005008721     0.000006615885
       5        0.000003503382    -0.000003150967    -0.000005731472
       6        0.000879789219    -0.001276956876     0.003641104103
       7       -0.000025115962    -0.000006113173    -0.000005958658
       8       -0.000005435247    -0.000013720995     0.000011820145
       9       -0.000622013147    -0.004295449274     0.001793749611
      10       -0.000009807776     0.000042983626    -0.000129419605
      11        0.000244989224     0.003426807470    -0.002003154500
      12        0.000032715303     0.000026012910     0.000016635583
      13        0.000015993881    -0.000008770134    -0.000019802381
      14        0.000036450341    -0.000038360266     0.000025294707
      15       -0.000018687649     0.000007291254     0.000018228526
      16        0.000022858171    -0.000032487057    -0.000003179403
      17       -0.000009987039    -0.000001366509     0.000019414907
      18        0.000013414940    -0.000022377672    -0.000045139713
      19        0.000016206639    -0.000002568668    -0.000009634233
      20       -0.000006592126     0.000038714759    -0.000002116758
      21       -0.000030863743    -0.000022665070     0.000015584257
      22       -0.000018080064     0.000017913322     0.000004354393

  **** Optimization is complete! (in 12 steps) ****
    Final optimized geometry and variables:
    Molecular point group: c1

    Geometry (in Angstrom), charge = 0, multiplicity = 1:

    H            3.104410589287     1.199897727371     1.232411381983
    C            2.410264152720     0.454674561392     0.854302118136
    C            1.015602984900     1.057580077158     0.713649746998
    H            2.387543824849    -0.378282629546     1.548433655341
    H            2.803919194000     0.092926760275    -0.089384098107
    N            0.014970680816     0.097047905183     0.275799181930
    H            0.715932633716     1.421552959145     1.690405416689
    H            1.049050026719     1.931759790142     0.055821518235
    C           -1.323629063042     0.483500517237     0.737483138129
    C            0.175997262191    -0.310918786833    -1.117522170461
    C           -2.515730706096     0.078034275675    -0.127402774963
    H           -1.376892170370     1.568170423655     0.845485092144
    H           -1.462656790421     0.074512946495     1.734538591834
    C            0.224927664140    -1.828005430518    -1.282189015485
    H            1.104624804185     0.102302456135    -1.493235733240
    H           -0.597144205581     0.102390464400    -1.756691934597
    H           -2.542970021984     0.608056684295    -1.071319527093
    H           -2.539305503094    -0.986338684593    -0.331527262103
    H           -3.426169258188     0.327553216372     0.408742847009
    H            1.048767628239    -2.241918594644    -0.710808673135
    H           -0.686928041428    -2.296476952888    -0.928862170721
    H            0.359450919690    -2.098975417099    -2.326566170223

  Mulliken Charges: (a.u.)
   Center  Symbol    Alpha    Beta     Spin     Total
       1     H     0.42297  0.42297  0.00000  0.15406
       2     C     3.23832  3.23832  0.00000 -0.47664
       3     C     3.05646  3.05646  0.00000 -0.11292
       4     H     0.41514  0.41514  0.00000  0.16972
       5     H     0.42117  0.42117  0.00000  0.15766
       6     N     3.79502  3.79502  0.00000 -0.59004
       7     H     0.41884  0.41884  0.00000  0.16232
       8     H     0.43396  0.43396  0.00000  0.13209
       9     C     3.04182  3.04182  0.00000 -0.08363
      10     C     3.05999  3.05999  0.00000 -0.11998
      11     C     3.25687  3.25687  0.00000 -0.51375
      12     H     0.43139  0.43139  0.00000  0.13722
      13     H     0.41970  0.41970  0.00000  0.16060
      14     C     3.22924  3.22924  0.00000 -0.45849
      15     H     0.41962  0.41962  0.00000  0.16076
      16     H     0.42417  0.42417  0.00000  0.15166
      17     H     0.41724  0.41724  0.00000  0.16552
      18     H     0.41476  0.41476  0.00000  0.17048
      19     H     0.41615  0.41615  0.00000  0.16771
      20     H     0.41811  0.41811  0.00000  0.16378
      21     H     0.42125  0.42125  0.00000  0.15749
      22     H     0.42780  0.42780  0.00000  0.14440

   Total alpha = 29.00000, Total beta = 29.00000, Total charge =  0.00000
