  ==> Input File <==

--------------------------------------------------------------------------
set {
	reference rhf
	basis cc-pvtz
}

set_num_threads( 4 )
memory 2 gb

molecule MOL {
0 1

H	 2.737634	 -1.021297	 1.810569
C	 2.096784	 -0.997396	 0.935626
C	 0.917263	 -0.064144	 1.172850
H	 1.745771	 -2.002843	 0.738686
H	 2.703721	 -0.686134	 0.094509
N	 0.000297	 0.000045	 0.046090
H	 0.373750	 -0.424527	 2.035307
H	 1.279939	 0.932630	 1.439004
C	 -1.359159	 0.315706	 0.454404
C	 0.479819	 0.876571	 -1.010454
C	 -2.416729	 -0.286720	 -0.460525
H	 -1.478729	 1.390261	 0.442008
H	 -1.539692	 0.003361	 1.486761
C	 -0.027123	 0.485611	 -2.391974
H	 1.560098	 0.833926	 -1.025894
H	 0.221398	 1.918385	 -0.801277
H	 -2.285276	 0.073129	 -1.473515
H	 -2.371743	 -1.368476	 -0.483209
H	 -3.408658	 -0.007405	 -0.121593
H	 0.284869	 -0.522748	 -2.634422
H	 -1.107278	 0.524903	 -2.459035
H	 0.372122	 1.159703	 -3.142318

	symmetry c1
}
set optking {
	frozen_dihedral = ("
		3 6 9 11
	")
}

ee = optimize('scf')
oeprop('DIPOLE', 'QUADRUPOLE', 'MULLIKEN_CHARGES')
f=open( 'psi4out.xyz', 'w' )
f.write( "22  " )
f.write( str(ee) + "\n" )
f.write( MOL.save_string_xyz() )
f.close()
--------------------------------------------------------------------------

    Molecular point group: c1
  Charge       = 0
  Multiplicity = 1
  Basis Set: CC-PVTZ
  Basis Set:
  @DF-RHF Final Energy:  -290.46470373149020
    Total Energy =                       -290.4647037314904310
    Molecular point group: c1
  Basis Set: CC-PVTZ
  Basis Set:
  Basis Set: CC-PVTZ
  Basis Set:
  @DF-RHF Final Energy:  -290.47054856871358
    Total Energy =                       -290.4705485687138662
  Basis Set: CC-PVTZ
  Basis Set:
  Basis Set: CC-PVTZ
  Basis Set:
  @DF-RHF Final Energy:  -290.47149664315140
    Total Energy =                       -290.4714966431517951
  Basis Set: CC-PVTZ
  Basis Set:
  Basis Set: CC-PVTZ
  Basis Set:
  @DF-RHF Final Energy:  -290.47173058815292
    Total Energy =                       -290.4717305881533775
  Basis Set: CC-PVTZ
  Basis Set:
  @DF-RHF Final Energy:  -290.47227173377803
    Total Energy =                       -290.4722717337783706
  @DF-RHF Final Energy:  -290.47246249181836
    Total Energy =                       -290.4724624918181917
  @DF-RHF Final Energy:  -290.47287609238646
    Total Energy =                       -290.4728760923862865
  @DF-RHF Final Energy:  -290.47338892404912
    Total Energy =                       -290.4733889240495159
  @DF-RHF Final Energy:  -290.47397330515025
    Total Energy =                       -290.4739733051501389
  @DF-RHF Final Energy:  -290.47412019598238
    Total Energy =                       -290.4741201959826640
  @DF-RHF Final Energy:  -290.47417196260290
    Total Energy =                       -290.4741719626031227
  @DF-RHF Final Energy:  -290.47418892050342
    Total Energy =                       -290.4741889205031953
  Basis Set: CC-PVTZ
  Basis Set:
  @DF-RHF Final Energy:  -290.47420399055767
    Total Energy =                       -290.4742039905574416
  Basis Set: CC-PVTZ
  Basis Set:
  Basis Set: CC-PVTZ
  Basis Set:
  @DF-RHF Final Energy:  -290.47420632190506
    Total Energy =                       -290.4742063219052284
  Basis Set: CC-PVTZ
  Basis Set:
  Basis Set: CC-PVTZ
  Basis Set:
  @DF-RHF Final Energy:  -290.47420744183927
    Total Energy =                       -290.4742074418390985
  Basis Set: CC-PVTZ
  Basis Set:
  Charge       = 0
  Multiplicity = 1
  Basis Set: CC-PVTZ
  Basis Set:

    Orbital Energies (a.u.)
    -----------------------

    Doubly Occupied:

       1A    -15.530968     2A    -11.239783     3A    -11.238944
       4A    -11.238830     5A    -11.204860     6A    -11.203322
       7A    -11.200865     8A     -1.223845     9A     -1.028251
      10A     -1.019943    11A     -0.958736    12A     -0.854854
      13A     -0.834672    14A     -0.774653    15A     -0.660702
      16A     -0.643260    17A     -0.608522    18A     -0.598363
      19A     -0.570050    20A     -0.560698    21A     -0.539291
      22A     -0.531205    23A     -0.514429    24A     -0.497736
      25A     -0.494421    26A     -0.472689    27A     -0.468854
      28A     -0.464245    29A     -0.338403

  @DF-RHF Final Energy:  -290.47420751719841

   => Energetics <=

    Nuclear Repulsion Energy =            339.0339444505155484
    One-Electron Energy =               -1063.9855134860304133
    Two-Electron Energy =                 434.4773615183166271
    DFT Exchange-Correlation Energy =       0.0000000000000000
    Empirical Dispersion Energy =           0.0000000000000000
    PCM Polarization Energy =               0.0000000000000000
    EFP Energy =                            0.0000000000000000
    Total Energy =                       -290.4742075171982947
    Molecular point group: c1
  Basis Set: CC-PVTZ
  Basis Set:

  -Total Gradient:
     Atom            X                  Y                   Z
    ------   -----------------  -----------------  -----------------
       1        0.000000423425     0.000001147964    -0.000002187030
       2        0.000000960364    -0.000000041079    -0.000000152203
       3       -0.000520693981    -0.001949531208     0.000069030298
       4       -0.000001299038    -0.000001155444     0.000005055658
       5        0.000002513098     0.000000530446    -0.000006557530
       6        0.000703741037     0.002024534015     0.000288561147
       7       -0.000005848147     0.000001109827    -0.000001143277
       8       -0.000001857904    -0.000005562693    -0.000003120351
       9       -0.000116009702     0.001589863124    -0.001288009248
      10        0.000024754212     0.000019728292    -0.000006666208
      11       -0.000083359906    -0.001673350216     0.000946102712
      12       -0.000000627830    -0.000003371502    -0.000001317582
      13        0.000004005364     0.000001825105    -0.000003330454
      14       -0.000000358161     0.000002476697     0.000000892073
      15       -0.000003485766    -0.000000789510     0.000000953748
      16       -0.000001636156    -0.000005297763     0.000002006172
      17        0.000000182813     0.000002924198    -0.000000714251
      18        0.000004618758     0.000000343285     0.000001805921
      19       -0.000000113031    -0.000001424769    -0.000002809671
      20       -0.000000992640     0.000002739222     0.000003167007
      21       -0.000003889755    -0.000005376224    -0.000004782865
      22       -0.000001027052    -0.000001321766     0.000003215932

  **** Optimization is complete! (in 16 steps) ****
    Final optimized geometry and variables:
    Molecular point group: c1

    Geometry (in Angstrom), charge = 0, multiplicity = 1:

    H            2.805357623446    -1.202505423444     1.611207911086
    C            2.135953251407    -1.000041776965     0.782461014860
    C            0.915058382193    -0.241093296210     1.283499252051
    H            1.842447566656    -1.944280144368     0.340097206952
    H            2.694685715491    -0.438966001104     0.043967102630
    N           -0.085852826173    -0.001072639312     0.262064610587
    H            0.453111804464    -0.830693412066     2.064591162157
    H            1.244483057917     0.692855489835     1.751798320902
    C           -1.382867434724     0.364641562870     0.801212364731
    C            0.355596389137     0.856740356102    -0.831491362669
    C           -2.538790224065    -0.076420552897    -0.086490906396
    H           -1.452319323953     1.438820866527     0.991000977664
    H           -1.496708289740    -0.120542407704     1.762048241355
    C            0.582886482389     0.112711711595    -2.142709519917
    H            1.266342369659     1.380737148585    -0.551066720604
    H           -0.385496392891     1.630719136461    -0.999600450863
    H           -2.500930142678     0.392959143513    -1.062720334255
    H           -2.512916502871    -1.149506594035    -0.229902805553
    H           -3.486641879916     0.190183966155     0.368922000062
    H            1.343362260954    -0.649944911392    -2.038363334084
    H           -0.328300009406    -0.373461080531    -2.468764410815
    H            0.898669673463     0.801612663592    -2.920232905610

  Mulliken Charges: (a.u.)
   Center  Symbol    Alpha    Beta     Spin     Total
       1     H     0.44702  0.44702  0.00000  0.10596
       2     C     3.15317  3.15317  0.00000 -0.30635
       3     C     3.03719  3.03719  0.00000 -0.07438
       4     H     0.44999  0.44999  0.00000  0.10003
       5     H     0.45322  0.45322  0.00000  0.09356
       6     N     3.61518  3.61518  0.00000 -0.23036
       7     H     0.45478  0.45478  0.00000  0.09045
       8     H     0.46944  0.46944  0.00000  0.06112
       9     C     3.04086  3.04086  0.00000 -0.08171
      10     C     3.06600  3.06600  0.00000 -0.13200
      11     C     3.14296  3.14296  0.00000 -0.28591
      12     H     0.46591  0.46591  0.00000  0.06817
      13     H     0.45441  0.45441  0.00000  0.09118
      14     C     3.13026  3.13026  0.00000 -0.26052
      15     H     0.45128  0.45128  0.00000  0.09745
      16     H     0.44807  0.44807  0.00000  0.10386
      17     H     0.45521  0.45521  0.00000  0.08958
      18     H     0.45157  0.45157  0.00000  0.09686
      19     H     0.45112  0.45112  0.00000  0.09776
      20     H     0.45301  0.45301  0.00000  0.09398
      21     H     0.45277  0.45277  0.00000  0.09446
      22     H     0.45658  0.45658  0.00000  0.08684

   Total alpha = 29.00000, Total beta = 29.00000, Total charge = -0.00000
