  ==> Input File <==

--------------------------------------------------------------------------
set {
	reference rhf
	basis 6-31G*
}

set_num_threads( 4 )
memory 2 gb

molecule MOL {
0 1

H	 -3.101736	 2.021735	 -0.178062
C	 -3.175922	 1.055328	 -0.692043
C	 -2.145596	 0.825118	 -1.768167
O	 -4.023837	 0.280602	 -0.387758
C	 -0.712604	 1.061565	 -1.271295
H	 -2.272879	 -0.179560	 -2.154340
H	 -2.364550	 1.523262	 -2.575204
C	 -0.252658	 0.041456	 -0.226725
H	 -0.042853	 1.030146	 -2.125538
H	 -0.633596	 2.067452	 -0.861776
C	 1.180775	 0.282413	 0.250794
H	 -0.332121	 -0.958930	 -0.647155
H	 -0.923987	 0.061887	 0.629685
C	 2.148627	 -0.814315	 -0.201312
H	 1.516199	 1.249228	 -0.115937
H	 1.192670	 0.346017	 1.338083
C	 3.580890	 -0.659131	 0.322722
H	 2.166869	 -0.852443	 -1.289387
H	 1.762857	 -1.776509	 0.128956
C	 4.324889	 0.564933	 -0.213704
H	 4.142010	 -1.551473	 0.056605
H	 3.564836	 -0.624694	 1.410140
H	 4.342616	 0.565491	 -1.300421
H	 3.866655	 1.493402	 0.110242
H	 5.353900	 0.572371	 0.132816

	symmetry c1
}
set optking {
	frozen_dihedral = ("
		12 8 11 14
	")
}

ee = optimize('scf')
oeprop('DIPOLE', 'QUADRUPOLE', 'MULLIKEN_CHARGES')
f=open( 'psi4out.xyz', 'w' )
f.write( "25  " )
f.write( str(ee) + "\n" )
f.write( MOL.save_string_xyz() )
f.close()
--------------------------------------------------------------------------

    Molecular point group: c1
  Charge       = 0
  Multiplicity = 1
  Basis Set: 6-31G*
  Basis Set:
  @DF-RHF Final Energy:  -387.11653577177805
    Total Energy =                       -387.1165357717777624
    Molecular point group: c1
  Basis Set: 6-31G*
  Basis Set:
  Basis Set: 6-31G*
  Basis Set:
  @DF-RHF Final Energy:  -387.11653284638118
    Total Energy =                       -387.1165328463810056
  Basis Set: 6-31G*
  Basis Set:
  Basis Set: 6-31G*
  Basis Set:
  @DF-RHF Final Energy:  -387.11332135441421
    Total Energy =                       -387.1133213544145519
  Basis Set: 6-31G*
  Basis Set:
  Basis Set: 6-31G*
  Basis Set:
  @DF-RHF Final Energy:  -387.11680807210746
    Total Energy =                       -387.1168080721079150
  Basis Set: 6-31G*
  Basis Set:
  @DF-RHF Final Energy:  -387.11675443950139
    Total Energy =                       -387.1167544395015057
  @DF-RHF Final Energy:  -387.11683168146749
    Total Energy =                       -387.1168316814681702
  @DF-RHF Final Energy:  -387.11686730028521
    Total Energy =                       -387.1168673002852074
  Basis Set: 6-31G*
  Basis Set:
  @DF-RHF Final Energy:  -387.11686530431530
    Total Energy =                       -387.1168653043157519
  Basis Set: 6-31G*
  Basis Set:
  Basis Set: 6-31G*
  Basis Set:
  @DF-RHF Final Energy:  -387.11687668826676
    Total Energy =                       -387.1168766882666432
  Basis Set: 6-31G*
  Basis Set:
  Basis Set: 6-31G*
  Basis Set:
  @DF-RHF Final Energy:  -387.11687852372478
    Total Energy =                       -387.1168785237247221
  Basis Set: 6-31G*
  Basis Set:
  Charge       = 0
  Multiplicity = 1
  Basis Set: 6-31G*
  Basis Set:

    Orbital Energies (a.u.)
    -----------------------

    Doubly Occupied:

       1A    -20.561962     2A    -11.326145     3A    -11.235502
       4A    -11.234448     5A    -11.223702     6A    -11.219623
       7A    -11.218635     8A    -11.218055     9A    -11.211547
      10A     -1.401906    11A     -1.102854    12A     -1.069604
      13A     -1.011916    14A     -0.942323    15A     -0.876585
      16A     -0.822242    17A     -0.787904    18A     -0.782219
      19A     -0.665622    20A     -0.651277    21A     -0.635265
      22A     -0.623308    23A     -0.608203    24A     -0.598089
      25A     -0.567372    26A     -0.559813    27A     -0.525815
      28A     -0.523161    29A     -0.519962    30A     -0.500682
      31A     -0.485773    32A     -0.478726    33A     -0.460145
      34A     -0.456823    35A     -0.442810    36A     -0.409421

  @DF-RHF Final Energy:  -387.11687925059078

   => Energetics <=

    Nuclear Repulsion Energy =            440.4447445539353225
    One-Electron Energy =               -1397.2043710333919080
    Two-Electron Energy =                 569.6427472288656872
    DFT Exchange-Correlation Energy =       0.0000000000000000
    Empirical Dispersion Energy =           0.0000000000000000
    PCM Polarization Energy =               0.0000000000000000
    EFP Energy =                            0.0000000000000000
    Total Energy =                       -387.1168792505908414
    Molecular point group: c1
  Basis Set: 6-31G*
  Basis Set:

  -Total Gradient:
     Atom            X                  Y                   Z
    ------   -----------------  -----------------  -----------------
       1        0.000012793864     0.000010667685    -0.000033474944
       2       -0.000000878656     0.000010867306     0.000059107118
       3       -0.000030755119     0.000000897683     0.000000537123
       4        0.000017125837    -0.000009879568    -0.000046125935
       5        0.000019806906     0.000051648504     0.000014351615
       6       -0.000003944240    -0.000006076437    -0.000004636297
       7       -0.000013319763    -0.000006751092     0.000020843845
       8       -0.000512594919    -0.001005051341     0.002107432574
       9       -0.000000334341    -0.000003557106     0.000005992867
      10       -0.000001923420     0.000013355724    -0.000012867670
      11        0.000362233002     0.000975494865    -0.001622582453
      12        0.000431011344     0.000585520182    -0.001418544165
      13        0.000047212335     0.000014790671     0.000023142862
      14       -0.000252029827    -0.000635914919     0.000914167487
      15       -0.000048741828    -0.000005179193    -0.000035426044
      16       -0.000038324546     0.000004894197     0.000026170218
      17       -0.000004838554     0.000022789448     0.000003437642
      18        0.000007082636    -0.000014115217    -0.000007811321
      19        0.000005066682     0.000007539327     0.000000313200
      20        0.000003330663    -0.000019799131    -0.000005901422
      21        0.000011070093     0.000008013697     0.000003598771
      22       -0.000005915325     0.000005505024     0.000001802973
      23       -0.000012901161     0.000003531341     0.000003886135
      24        0.000004259116    -0.000002707297     0.000007412224
      25        0.000005509226    -0.000006484351    -0.000004826404

  **** Optimization is complete! (in 11 steps) ****
    Final optimized geometry and variables:
    Molecular point group: c1

    Geometry (in Angstrom), charge = 0, multiplicity = 1:

    H           -3.249653691715     1.708185506235     0.262095743092
    C           -3.291945398153     0.745727585719    -0.262948302809
    C           -2.227990458769     0.545123648588    -1.312012919252
    O           -4.137509126318    -0.044548955435     0.006034798348
    C           -0.813620957382     0.790938000272    -0.769250016284
    H           -2.331411849245    -0.455047620655    -1.716871328084
    H           -2.432116351008     1.253076221462    -2.114284894534
    C           -0.370747121643    -0.239674847053     0.275032645169
    H           -0.116960452198     0.780158887452    -1.602932733416
    H           -0.758755609435     1.791029276455    -0.342653951547
    C            1.077821895986    -0.019857365070     0.764243471634
    H           -0.463087262060    -1.228957725437    -0.166049577855
    H           -1.056581595134    -0.220113704933     1.117426396116
    C            2.043429287911    -1.113316291550     0.295399224940
    H            1.427738445792     0.952142960698     0.429040395069
    H            1.097800004659     0.014571688093     1.850626830303
    C            3.486429530066    -0.946373439883     0.783904545074
    H            2.036508228103    -1.160419088098    -0.793156566748
    H            1.668753526323    -2.073776275099     0.641957126203
    C            4.218020220126     0.266909436415     0.206558455020
    H            4.042708697873    -1.843655174096     0.524356227811
    H            3.493478597352    -0.889796506023     1.870587030542
    H            4.215003766371     0.243440833841    -0.879972999334
    H            3.765635468415     1.202329402828     0.518745368338
    H            5.253444432592     0.282881224670     0.532408016119

  Mulliken Charges: (a.u.)
   Center  Symbol    Alpha    Beta     Spin     Total
       1     H     0.43259  0.43259  0.00000  0.13482
       2     C     2.83088  2.83088  0.00000  0.33825
       3     C     3.20880  3.20880  0.00000 -0.41759
       4     O     4.23775  4.23775  0.00000 -0.47551
       5     C     3.16858  3.16858  0.00000 -0.33716
       6     H     0.39971  0.39971  0.00000  0.20058
       7     H     0.40670  0.40670  0.00000  0.18660
       8     C     3.15776  3.15776  0.00000 -0.31551
       9     H     0.41279  0.41279  0.00000  0.17442
      10     H     0.41922  0.41922  0.00000  0.16157
      11     C     3.15841  3.15841  0.00000 -0.31682
      12     H     0.41554  0.41554  0.00000  0.16891
      13     H     0.41546  0.41546  0.00000  0.16909
      14     C     3.15443  3.15443  0.00000 -0.30886
      15     H     0.41894  0.41894  0.00000  0.16211
      16     H     0.41900  0.41900  0.00000  0.16200
      17     C     3.15347  3.15347  0.00000 -0.30694
      18     H     0.42495  0.42495  0.00000  0.15010
      19     H     0.41972  0.41972  0.00000  0.16055
      20     C     3.24127  3.24127  0.00000 -0.48254
      21     H     0.42004  0.42004  0.00000  0.15992
      22     H     0.42261  0.42261  0.00000  0.15478
      23     H     0.42242  0.42242  0.00000  0.15516
      24     H     0.42059  0.42059  0.00000  0.15882
      25     H     0.41837  0.41837  0.00000  0.16327

   Total alpha = 36.00000, Total beta = 36.00000, Total charge = -0.00000
