                              Psi4 1.0.54 Driver

  ==> Input File <==

--------------------------------------------------------------------------
set {
	reference rhf
	basis cc-pvtz
}

set_num_threads( 4 )
memory 2 gb

molecule MOL {
0 1

H	 -3.436473	 1.252944	 -1.023892
O	 -3.458596	 0.315260	 -0.960865
C	 -3.176635	 -0.080824	 0.355601
C	 -1.763371	 0.265266	 0.799691
H	 -3.321825	 -1.153438	 0.379502
H	 -3.895468	 0.357385	 1.043382
C	 -0.673390	 -0.426948	 -0.013392
H	 -1.631049	 1.344913	 0.747560
H	 -1.664587	 -0.001624	 1.849167
C	 0.431026	 0.522912	 -0.469466
H	 -1.121369	 -0.905666	 -0.877138
H	 -0.238525	 -1.224040	 0.584975
C	 1.521290	 -0.177089	 -1.278398
H	 -0.011714	 1.321440	 -1.057023
H	 0.881115	 0.997458	 0.400064
C	 2.691982	 0.717257	 -1.690069
H	 1.079182	 -0.619360	 -2.168222
H	 1.910669	 -1.004730	 -0.691871
C	 2.333615	 1.821918	 -2.681251
H	 3.462482	 0.092116	 -2.130868
H	 3.134255	 1.160369	 -0.801550
H	 1.883339	 1.408720	 -3.578243
H	 3.218675	 2.371759	 -2.980560
H	 1.635638	 2.535029	 -2.259462

	symmetry c1
}
set optking {
	frozen_dihedral = ("
		11 7 4 3
	")
}

ee,wfn = optimize('scf', return_wfn=True)
oeprop( wfn, 'DIPOLE', 'QUADRUPOLE', 'MULLIKEN_CHARGES')
f=open( 'psi4out.xyz', 'w' )
f.write( "24  " )
f.write( str(ee) + "\n" )
f.write( MOL.save_string_xyz() )
f.close()
--------------------------------------------------------------------------

    Molecular point group: c1
  Charge       = 0
  Multiplicity = 1
  Basis Set: CC-PVTZ
  Basis Set:
  @DF-RHF Final Energy:  -349.37599778449146
    Total Energy =                       -349.3759977844914602
    Molecular point group: c1
  Basis Set: CC-PVTZ
  Basis Set:
  Basis Set: CC-PVTZ
  Basis Set:
  @DF-RHF Final Energy:  -349.37619870195152
    Total Energy =                       -349.3761987019517505
  Basis Set: CC-PVTZ
  Basis Set:
  Basis Set: CC-PVTZ
  Basis Set:
  @DF-RHF Final Energy:  -349.37625926082313
    Total Energy =                       -349.3762592608235309
  Basis Set: CC-PVTZ
  Basis Set:
  Basis Set: CC-PVTZ
  Basis Set:
  @DF-RHF Final Energy:  -349.37626245178814
    Total Energy =                       -349.3762624517886479
  Basis Set: CC-PVTZ
  Basis Set:
  Basis Set: CC-PVTZ
  Basis Set:
  @DF-RHF Final Energy:  -349.37626438298395
    Total Energy =                       -349.3762643829835497
  Basis Set: CC-PVTZ
  Basis Set:
  Charge       = 0
  Multiplicity = 1
  Basis Set: CC-PVTZ
  Basis Set:

    Orbital Energies (a.u.)
    -----------------------

    Doubly Occupied:

       1A    -20.546969     2A    -11.265730     3A    -11.214898
       4A    -11.211732     5A    -11.210047     6A    -11.208835
       7A    -11.208657     8A    -11.204747     9A     -1.364962
      10A     -1.088402    11A     -1.047641    12A     -0.986615
      13A     -0.915412    14A     -0.851253    15A     -0.802465
      16A     -0.776587    17A     -0.682280    18A     -0.651274
      19A     -0.628253    20A     -0.620182    21A     -0.599425
      22A     -0.582127    23A     -0.560609    24A     -0.534253
      25A     -0.524967    26A     -0.511818    27A     -0.495065
      28A     -0.474960    29A     -0.466598    30A     -0.457632
      31A     -0.452666    32A     -0.451014    33A     -0.422838

  @DF-RHF Final Energy:  -349.37626421574384

   => Energetics <=

    Nuclear Repulsion Energy =            388.3011799755773836
    One-Electron Energy =               -1243.3130602138562608
    Two-Electron Energy =                 505.6356160225348049
    DFT Exchange-Correlation Energy =       0.0000000000000000
    Empirical Dispersion Energy =           0.0000000000000000
    PCM Polarization Energy =               0.0000000000000000
    EFP Energy =                            0.0000000000000000
    Total Energy =                       -349.3762642157440723
    Molecular point group: c1
  Basis Set: CC-PVTZ
  Basis Set:

  -Total Gradient:
     Atom            X                  Y                   Z
    ------   -----------------  -----------------  -----------------
       1       -0.000000236861     0.000001639771    -0.000002948052
       2        0.000011221818    -0.000006483232     0.000006934121
       3        0.000003403821     0.001389790402    -0.001079297838
       4       -0.000055595745    -0.002415063842     0.001782689075
       5        0.000012926417     0.000009918913     0.000000304013
       6       -0.000017816372    -0.000003803978     0.000003953149
       7        0.000354982793     0.003072987907    -0.001951968442
       8       -0.000004981476     0.000012673490    -0.000004896803
       9        0.000005034128    -0.000017971632    -0.000002079169
      10       -0.000043115402    -0.000025754055     0.000023085924
      11       -0.000286991237    -0.002019057411     0.001232078253
      12        0.000003346061     0.000002544060     0.000016474646
      13       -0.000005288800     0.000012910183    -0.000029470896
      14       -0.000009229476    -0.000031501856     0.000023372853
      15       -0.000005255575     0.000001290789     0.000002037428
      16        0.000002635174     0.000012100904     0.000019165997
      17       -0.000006374885     0.000005863869    -0.000006102686
      18        0.000003661888    -0.000002709758    -0.000012602152
      19        0.000008743690    -0.000002580906    -0.000013685836
      20        0.000012701347    -0.000000430809     0.000005287486
      21       -0.000004545499     0.000009307170     0.000007675988
      22       -0.000008289269     0.000000901374    -0.000006452338
      23        0.000002959467    -0.000008085843    -0.000005011734
      24        0.000026103994     0.000001514490    -0.000008542986

  **** Optimization is complete! (in 6 steps) ****
    Final optimized geometry and variables:
    Molecular point group: c1

    Geometry (in Angstrom), charge = 0, multiplicity = 1:

    H           -3.117496244034     0.863124839021    -0.254025416334
    O           -3.145610599336    -0.074711767710    -0.196055239780
    C           -2.869847737196    -0.479057704259     1.118777651099
    C           -1.456746411329    -0.130720658118     1.561597648673
    H           -3.015081109841    -1.551985720774     1.134585488054
    H           -3.590859170057    -0.045665290651     1.807375915864
    C           -0.357300465900    -0.806780778377     0.722561916203
    H           -1.346725937323     0.950817642000     1.511283401437
    H           -1.350991276255    -0.390516532771     2.610157640544
    C            0.751327856582     0.142836376316     0.277087811029
    H           -0.805008963012    -1.273503247409    -0.147310308454
    H            0.082682442421    -1.616278481449     1.297923269966
    C            1.851139543909    -0.555560635512    -0.519146434114
    H            0.310086102457     0.937905259225    -0.315872638953
    H            1.189986708181     0.619993919129     1.151305146333
    C            3.020601799196     0.342608618482    -0.926576079242
    H            1.417859593400    -1.004610993461    -1.409879991383
    H            2.240332873563    -1.377961593438     0.074979620252
    C            2.665605426828     1.436934999716    -1.930409537825
    H            3.799062741827    -0.281406802530    -1.354837593966
    H            3.451739066724     0.795425062315    -0.037416431561
    H            2.223618496257     1.014037248752    -2.826907514649
    H            3.550829613706     1.987599489736    -2.227780329546
    H            1.961589940447     2.150998232938    -1.520442929818

  Mulliken Charges: (a.u.)
   Center  Symbol    Alpha    Beta     Spin     Total
       1     H     0.39548  0.39548  0.00000  0.20905
       2     O     4.20310  4.20310  0.00000 -0.40620
       3     C     2.97858  2.97858  0.00000  0.04283
       4     C     3.10541  3.10541  0.00000 -0.21082
       5     H     0.45748  0.45748  0.00000  0.08504
       6     H     0.46030  0.46030  0.00000  0.07940
       7     C     3.09223  3.09223  0.00000 -0.18446
       8     H     0.45959  0.45959  0.00000  0.08081
       9     H     0.44889  0.44889  0.00000  0.10222
      10     C     3.09025  3.09025  0.00000 -0.18050
      11     H     0.44637  0.44637  0.00000  0.10726
      12     H     0.45181  0.45181  0.00000  0.09638
      13     C     3.09593  3.09593  0.00000 -0.19186
      14     H     0.45490  0.45490  0.00000  0.09021
      15     H     0.45476  0.45476  0.00000  0.09047
      16     C     3.09018  3.09018  0.00000 -0.18036
      17     H     0.45230  0.45230  0.00000  0.09540
      18     H     0.45027  0.45027  0.00000  0.09945
      19     C     3.15198  3.15198  0.00000 -0.30395
      20     H     0.44876  0.44876  0.00000  0.10249
      21     H     0.45547  0.45547  0.00000  0.08907
      22     H     0.45426  0.45426  0.00000  0.09148
      23     H     0.44690  0.44690  0.00000  0.10620
      24     H     0.45481  0.45481  0.00000  0.09039

   Total alpha = 33.00000, Total beta = 33.00000, Total charge = -0.00000

*** Psi4 exiting successfully. Buy a developer a beer!
