  ==> Input File <==

--------------------------------------------------------------------------
set {
	reference rhf
	basis 6-31G*
}

set_num_threads( 1 )
memory 2 gb

molecule MOL {
0 1

O	 0.567091	 -0.227663	 0.003382
C	 1.705091	 0.115954	 0.001797
C	 2.191205	 1.544778	 0.006498
O	 2.721346	 -0.737485	 -0.000216
C	 1.061040	 2.569644	 0.011103
H	 2.835811	 1.665554	 0.872876
H	 2.834358	 1.671748	 -0.860077
C	 1.581623	 4.007706	 0.016734
H	 0.430079	 2.402248	 0.878315
H	 0.429276	 2.409251	 -0.856916
C	 0.461132	 5.049017	 0.022291
H	 2.217297	 4.161168	 0.887576
H	 2.215518	 4.168576	 -0.854001
C	 0.981896	 6.485692	 0.026684
H	 -0.171534	 4.891285	 0.892920
H	 -0.174222	 4.897575	 -0.847495
H	 1.593427	 6.678713	 0.903603
H	 0.164429	 7.199965	 0.030306
H	 1.591144	 6.684915	 -0.850492
C	 4.024888	 -0.184556	 -0.001949
H	 4.179030	 0.422472	 -0.882452
H	 4.701782	 -1.024608	 -0.003642
H	 4.181981	 0.421185	 0.878906

	symmetry c1
}
set optking {
	frozen_dihedral = ("
		15 11 8 12,
		9 5 8 12,
		1 2 3 6,
		9 5 3 6
	")
}

ee = energy('scf')
oeprop('DIPOLE', 'QUADRUPOLE', 'MULLIKEN_CHARGES')
f=open( 'psi4out.xyz', 'w' )
f.write( "23  " )
f.write( str(ee) + "\n" )
f.write( MOL.save_string_xyz() )
f.close()
--------------------------------------------------------------------------

    Molecular point group: c1

    Geometry (in Angstrom), charge = 0, multiplicity = 1:

       Center              X                  Y                   Z               Mass
    ------------   -----------------  -----------------  -----------------  -----------------
           O         -1.154059734866    -2.277145833030    -0.006144910697    15.994914619560
           C         -0.016059734866    -1.933528833030    -0.007729910697    12.000000000000
           C          0.470054265134    -0.504704833030    -0.003028910697    12.000000000000
           O          1.000195265134    -2.786967833030    -0.009742910697    15.994914619560
           C         -0.660110734866     0.520161166970     0.001576089303    12.000000000000
           H          1.114660265134    -0.383928833030     0.863349089303     1.007825032070
           H          1.113207265134    -0.377734833030    -0.869603910697     1.007825032070
           C         -0.139527734866     1.958223166970     0.007207089303    12.000000000000
           H         -1.291071734866     0.352765166970     0.868788089303     1.007825032070
           H         -1.291874734866     0.359768166970    -0.866442910697     1.007825032070
           C         -1.260018734866     2.999534166970     0.012764089303    12.000000000000
           H          0.496146265134     2.111685166970     0.878049089303     1.007825032070
           H          0.494367265134     2.119093166970    -0.863527910697     1.007825032070
           C         -0.739254734866     4.436209166970     0.017157089303    12.000000000000
           H         -1.892684734866     2.841802166970     0.883393089303     1.007825032070
           H         -1.895372734866     2.848092166970    -0.857021910697     1.007825032070
           H         -0.127723734866     4.629230166970     0.894076089303     1.007825032070
           H         -1.556721734866     5.150482166970     0.020779089303     1.007825032070
           H         -0.130006734866     4.635432166970    -0.860018910697     1.007825032070
           C          2.303737265134    -2.234038833030    -0.011475910697    12.000000000000
           H          2.457879265134    -1.627010833030    -0.891978910697     1.007825032070
           H          2.980631265134    -3.074090833030    -0.013168910697     1.007825032070
           H          2.460830265134    -1.628297833030     0.869379089303     1.007825032070

  Charge       = 0
  Multiplicity = 1
  Basis Set: 6-31G*
  Basis Set:

    Orbital Energies (a.u.)
    -----------------------

    Doubly Occupied:

       1A    -20.608967     2A    -20.542451     3A    -11.374708
       4A    -11.297531     5A    -11.242530     6A    -11.223194
       7A    -11.222203     8A    -11.219679     9A    -11.212599
      10A     -1.468950    11A     -1.368762    12A     -1.097552
      13A     -1.044079    14A     -0.989535    15A     -0.958608
      16A     -0.859470    17A     -0.800531    18A     -0.762068
      19A     -0.704735    20A     -0.703681    21A     -0.676269
      22A     -0.654137    23A     -0.608177    24A     -0.604740
      25A     -0.583514    26A     -0.564284    27A     -0.561865
      28A     -0.542633    29A     -0.534832    30A     -0.509301
      31A     -0.491336    32A     -0.473054    33A     -0.469447
      34A     -0.464970    35A     -0.448676    36A     -0.427301

  @DF-RHF Final Energy:  -422.94815899593158

   => Energetics <=

    Nuclear Repulsion Energy =            459.0834670058464440
    One-Electron Energy =               -1485.4304767884405010
    Two-Electron Energy =                 603.3988507866624786
    DFT Exchange-Correlation Energy =       0.0000000000000000
    Empirical Dispersion Energy =           0.0000000000000000
    PCM Polarization Energy =               0.0000000000000000
    EFP Energy =                            0.0000000000000000
    Total Energy =                       -422.9481589959316352

  Mulliken Charges: (a.u.)
   Center  Symbol    Alpha    Beta     Spin     Total
       1     O     4.27410  4.27410  0.00000 -0.54821
       2     C     2.58608  2.58608  0.00000  0.82783
       3     C     3.24867  3.24867  0.00000 -0.49735
       4     O     4.30134  4.30134  0.00000 -0.60267
       5     C     3.14606  3.14606  0.00000 -0.29212
       6     H     0.40248  0.40248  0.00000  0.19503
       7     H     0.40259  0.40259  0.00000  0.19482
       8     C     3.15320  3.15320  0.00000 -0.30640
       9     H     0.40976  0.40976  0.00000  0.18048
      10     H     0.40983  0.40983  0.00000  0.18034
      11     C     3.15190  3.15190  0.00000 -0.30381
      12     H     0.42536  0.42536  0.00000  0.14928
      13     H     0.42535  0.42535  0.00000  0.14930
      14     C     3.23967  3.23967  0.00000 -0.47935
      15     H     0.42051  0.42051  0.00000  0.15897
      16     H     0.42052  0.42052  0.00000  0.15896
      17     H     0.42200  0.42200  0.00000  0.15600
      18     H     0.41769  0.41769  0.00000  0.16462
      19     H     0.42201  0.42201  0.00000  0.15598
      20     C     3.09937  3.09937  0.00000 -0.19874
      21     H     0.41373  0.41373  0.00000  0.17254
      22     H     0.39398  0.39398  0.00000  0.21204
      23     H     0.41377  0.41377  0.00000  0.17247

   Total alpha = 36.00000, Total beta = 36.00000, Total charge = -0.00000
