                              Psi4 1.0.54 Driver

  ==> Input File <==

--------------------------------------------------------------------------
set {
	reference rhf
	basis cc-pvtz
}

set_num_threads( 4 )
memory 2 gb

molecule MOL {
0 1

H	 3.889604	 0.356866	 -0.089510
N	 3.091268	 -0.241216	 -0.065538
C	 1.860978	 0.530248	 0.016256
H	 3.192566	 -0.835836	 0.730398
C	 0.644130	 -0.381765	 -0.031064
H	 1.835721	 1.204666	 -0.833114
H	 1.808789	 1.151975	 0.911067
C	 -0.678115	 0.376691	 0.025731
H	 0.693998	 -0.977147	 -0.936845
H	 0.693309	 -1.082142	 0.800523
C	 -1.147325	 0.667713	 1.448528
H	 -1.443993	 -0.196737	 -0.491537
H	 -0.582987	 1.314445	 -0.516893
C	 -2.472620	 1.420378	 1.501100
H	 -1.242530	 -0.267871	 1.992504
H	 -0.385405	 1.243925	 1.966436
H	 -3.263828	 0.853728	 1.021375
H	 -2.776452	 1.610476	 2.524112
H	 -2.399971	 2.377258	 0.994703

	symmetry c1
}
set optking {
	frozen_dihedral = ("
		12 8 5 9
	")
}

ee,wfn = optimize('scf', return_wfn=True)
oeprop( wfn, 'DIPOLE', 'QUADRUPOLE', 'MULLIKEN_CHARGES')
f=open( 'psi4out.xyz', 'w' )
f.write( "19  " )
f.write( str(ee) + "\n" )
f.write( MOL.save_string_xyz() )
f.close()
--------------------------------------------------------------------------

    Molecular point group: c1
  Charge       = 0
  Multiplicity = 1
  Basis Set: CC-PVTZ
  Basis Set:
  @DF-RHF Final Energy:  -251.44518158049613
    Total Energy =                       -251.4451815804963530
    Molecular point group: c1
  Basis Set: CC-PVTZ
  Basis Set:
  Basis Set: CC-PVTZ
  Basis Set:
  @DF-RHF Final Energy:  -251.44539122729321
    Total Energy =                       -251.4453912272932712
  Basis Set: CC-PVTZ
  Basis Set:
  Basis Set: CC-PVTZ
  Basis Set:
  @DF-RHF Final Energy:  -251.44542982090667
    Total Energy =                       -251.4454298209064973
  Basis Set: CC-PVTZ
  Basis Set:
  Charge       = 0
  Multiplicity = 1
  Basis Set: CC-PVTZ
  Basis Set:

    Orbital Energies (a.u.)
    -----------------------

    Doubly Occupied:

       1A    -15.526430     2A    -11.237991     3A    -11.212811
       4A    -11.210706     5A    -11.207757     6A    -11.206166
       7A     -1.178193     8A     -1.073703     9A     -0.998371
      10A     -0.900627    11A     -0.824252    12A     -0.783070
      13A     -0.660196    14A     -0.637401    15A     -0.626087
      16A     -0.590789    17A     -0.568027    18A     -0.549839
      19A     -0.530637    20A     -0.501199    21A     -0.482211
      22A     -0.464214    23A     -0.458464    24A     -0.450973
      25A     -0.383306

  @DF-RHF Final Energy:  -251.44543075849356

   => Energetics <=

    Nuclear Repulsion Energy =            248.6035546252948620
    One-Electron Energy =                -831.5711308672673567
    Two-Electron Energy =                 331.5221454834788233
    DFT Exchange-Correlation Energy =       0.0000000000000000
    Empirical Dispersion Energy =           0.0000000000000000
    PCM Polarization Energy =               0.0000000000000000
    EFP Energy =                            0.0000000000000000
    Total Energy =                       -251.4454307584936146
    Molecular point group: c1
  Basis Set: CC-PVTZ
  Basis Set:

  -Total Gradient:
     Atom            X                  Y                   Z
    ------   -----------------  -----------------  -----------------
       1        0.000030469611    -0.000006382916    -0.000002883859
       2        0.000015398727    -0.000001485464    -0.000008894622
       3        0.000016671678     0.000018195879     0.000022781924
       4        0.000000835988    -0.000007340361     0.000006141831
       5        0.001113046046     0.002316645836    -0.001653514506
       6       -0.000026805066     0.000009908787    -0.000008555172
       7       -0.000013433113    -0.000005051174    -0.000005366890
       8       -0.000712957007    -0.001668584865     0.002413265906
       9       -0.000822078084    -0.001648433509     0.001018370969
      10       -0.000015498479     0.000009370595    -0.000011101362
      11       -0.000025111378    -0.000058939296     0.000038484413
      12        0.000403915601     0.001018687222    -0.001750215478
      13        0.000011257999     0.000000848212    -0.000015432702
      14        0.000045240395     0.000030086609    -0.000033404291
      15        0.000004640367    -0.000022475267    -0.000010431753
      16       -0.000009614645    -0.000006754397    -0.000011110181
      17        0.000003669028    -0.000009861102     0.000007566171
      18        0.000001574961     0.000014852658     0.000019484006
      19       -0.000021222638     0.000016712550    -0.000015184403

  **** Optimization is complete! (in 4 steps) ****
    Final optimized geometry and variables:
    Molecular point group: c1

    Geometry (in Angstrom), charge = 0, multiplicity = 1:

    H            3.637832557757     0.011651599388    -0.616280248269
    N            2.846849376235    -0.595852476025    -0.584427661853
    C            1.607038151548     0.160741675361    -0.507695301862
    H            2.957234476964    -1.181324227968     0.217062550459
    C            0.403222038755    -0.769968681948    -0.553422615255
    H            1.570921310729     0.826116853455    -1.363689515894
    H            1.550890945079     0.790483209212     0.380200489380
    C           -0.944588028111    -0.048461526488    -0.443915850970
    H            0.446698000744    -1.346464974205    -1.470056349171
    H            0.486368533819    -1.495887214276     0.253394441282
    C           -1.397238272968     0.233013638258     0.987320094989
    H           -1.706045813440    -0.633924364313    -0.950023151135
    H           -0.892373150851     0.890127392465    -0.992122090782
    C           -2.717653877198     0.992854679779     1.056381840027
    H           -1.496281709252    -0.709393501082     1.518941453269
    H           -0.632190833065     0.798440781946     1.510927909035
    H           -3.513238113303     0.438703832229     0.569303228773
    H           -3.017688767225     1.167869336613     2.083294672228
    H           -2.640709816862     1.957364925605     0.565459670127

  Mulliken Charges: (a.u.)
   Center  Symbol    Alpha    Beta     Spin     Total
       1     H     0.43017  0.43017  0.00000  0.13967
       2     N     3.68987  3.68987  0.00000 -0.37975
       3     C     3.02437  3.02437  0.00000 -0.04874
       4     H     0.43038  0.43038  0.00000  0.13924
       5     C     3.09056  3.09056  0.00000 -0.18113
       6     H     0.45675  0.45675  0.00000  0.08649
       7     H     0.46720  0.46720  0.00000  0.06560
       8     C     3.10270  3.10270  0.00000 -0.20540
       9     H     0.44287  0.44287  0.00000  0.11427
      10     H     0.46112  0.46112  0.00000  0.07775
      11     C     3.08170  3.08170  0.00000 -0.16339
      12     H     0.44693  0.44693  0.00000  0.10614
      13     H     0.45650  0.45650  0.00000  0.08701
      14     C     3.14993  3.14993  0.00000 -0.29986
      15     H     0.45475  0.45475  0.00000  0.09050
      16     H     0.45572  0.45572  0.00000  0.08856
      17     H     0.45469  0.45469  0.00000  0.09062
      18     H     0.44874  0.44874  0.00000  0.10252
      19     H     0.45505  0.45505  0.00000  0.08989

   Total alpha = 25.00000, Total beta = 25.00000, Total charge = -0.00000

*** Psi4 exiting successfully. Buy a developer a beer!
