                              Psi4 1.0.54 Driver

  ==> Input File <==

--------------------------------------------------------------------------
set {
	reference rhf
	basis cc-pvtz
}

set_num_threads( 4 )
memory 2 gb

molecule MOL {
0 1

H	 -3.034039	 -0.667848	 0.004703
O	 -2.240597	 -1.171748	 0.000934
C	 -1.159675	 -0.364500	 0.000370
C	 -1.016610	 0.680334	 -0.889725
C	 -0.174388	 -0.622342	 0.940998
H	 -1.778253	 0.880768	 -1.621015
C	 0.123446	 1.463163	 -0.829072
H	 -0.315306	 -1.443484	 1.616871
C	 0.960715	 0.160757	 1.001610
H	 0.239728	 2.275118	 -1.521878
C	 1.105664	 1.212398	 0.102149
C	 2.021294	 -0.104869	 2.040002
H	 1.984873	 1.827577	 0.133875
H	 3.012660	 -0.035733	 1.609611
H	 1.909223	 -1.088633	 2.475197
H	 1.961278	 0.622901	 2.842120

	symmetry c1
}
set optking {
	frozen_dihedral = ("
		5 3 2 1
	")
}

ee,wfn = optimize('scf', return_wfn=True)
oeprop( wfn, 'DIPOLE', 'QUADRUPOLE', 'MULLIKEN_CHARGES')
f=open( 'psi4out.xyz', 'w' )
f.write( "16  " )
f.write( str(ee) + "\n" )
f.write( MOL.save_string_xyz() )
f.close()
--------------------------------------------------------------------------

    Molecular point group: c1
  Charge       = 0
  Multiplicity = 1
  Basis Set: CC-PVTZ
  Basis Set:
  @DF-RHF Final Energy:  -344.71768664228932
    Total Energy =                       -344.7176866422894363
    Molecular point group: c1
  Basis Set: CC-PVTZ
  Basis Set:
  Basis Set: CC-PVTZ
  Basis Set:
  @DF-RHF Final Energy:  -344.71789525811528
    Total Energy =                       -344.7178952581152203
  Basis Set: CC-PVTZ
  Basis Set:
  Basis Set: CC-PVTZ
  Basis Set:
  @DF-RHF Final Energy:  -344.71792222959152
    Total Energy =                       -344.7179222295916929
  Basis Set: CC-PVTZ
  Basis Set:
  Basis Set: CC-PVTZ
  Basis Set:
  @DF-RHF Final Energy:  -344.71792512246134
    Total Energy =                       -344.7179251224612244
  Basis Set: CC-PVTZ
  Basis Set:
  Charge       = 0
  Multiplicity = 1
  Basis Set: CC-PVTZ
  Basis Set:

    Orbital Energies (a.u.)
    -----------------------

    Doubly Occupied:

       1A    -20.574240     2A    -11.289908     3A    -11.240318
       4A    -11.232025     5A    -11.219938     6A    -11.219785
       7A    -11.216536     8A    -11.216196     9A     -1.402547
      10A     -1.154633    11A     -1.046507    12A     -1.008024
      13A     -0.938760    14A     -0.827982    15A     -0.819671
      16A     -0.718361    17A     -0.681725    18A     -0.658661
      19A     -0.620916    20A     -0.593950    21A     -0.577059
      22A     -0.570724    23A     -0.554672    24A     -0.522308
      25A     -0.507035    26A     -0.485286    27A     -0.469894
      28A     -0.333319    29A     -0.317768

  @DF-RHF Final Energy:  -344.71792578848277

   => Energetics <=

    Nuclear Repulsion Energy =            346.0465930772499519
    One-Electron Energy =               -1153.4915417261001949
    Two-Electron Energy =                 462.7270228603675832
    DFT Exchange-Correlation Energy =       0.0000000000000000
    Empirical Dispersion Energy =           0.0000000000000000
    PCM Polarization Energy =               0.0000000000000000
    EFP Energy =                            0.0000000000000000
    Total Energy =                       -344.7179257884826029
    Molecular point group: c1
  Basis Set: CC-PVTZ
  Basis Set:

  -Total Gradient:
     Atom            X                  Y                   Z
    ------   -----------------  -----------------  -----------------
       1       -0.000064849374    -0.000029107232     0.002705221939
       2       -0.000434221495     0.000522501895    -0.002736712398
       3        0.001448635671    -0.001551549321    -0.001307826310
       4       -0.000088871037    -0.000129017414     0.000025939447
       5       -0.000881649126     0.001161528626     0.001300712613
       6       -0.000007952699     0.000000675785    -0.000010945440
       7        0.000118215844     0.000061530843     0.000080536989
       8        0.000001188633    -0.000002822609    -0.000008938305
       9       -0.000066954195    -0.000103174339     0.000054023842
      10       -0.000001046024    -0.000015947850     0.000002428804
      11       -0.000051358064     0.000067097791    -0.000106070242
      12        0.000003411363     0.000021797130    -0.000005547365
      13        0.000015176394    -0.000003926627     0.000013298007
      14        0.000005997365    -0.000004891828     0.000000173456
      15       -0.000004059605     0.000005471122    -0.000000862321
      16        0.000008336351    -0.000000165976    -0.000005432721

  **** Optimization is complete! (in 5 steps) ****
    Final optimized geometry and variables:
    Molecular point group: c1

    Geometry (in Angstrom), charge = 0, multiplicity = 1:

    H           -2.942842291703    -0.805223902696    -0.368658845723
    O           -2.148111053263    -1.307806617558    -0.358546233050
    C           -1.063274242524    -0.486831004823    -0.319837175400
    C           -0.917924617675     0.556238051625    -1.211243672142
    C           -0.092229265294    -0.734562441597     0.633612669279
    H           -1.669069479991     0.734525806027    -1.957327523764
    C            0.213186751472     1.348806344078    -1.137443204705
    H           -0.239413028379    -1.552300419979     1.312385651440
    C            1.045367893086     0.049241872112     0.701575835230
    H            0.334581413306     2.160885006092    -1.829107690436
    C            1.188960341315     1.099658763262    -0.195949958528
    C            2.098013138053    -0.210380268249     1.749900368411
    H            2.065336698622     1.719055328979    -0.157809343638
    H            3.092831675615    -0.140621062729     1.327554310038
    H            1.984926463620    -1.193735742468     2.185901118465
    H            2.030858639669     0.518339099207     2.550627864073

  Mulliken Charges: (a.u.)
   Center  Symbol    Alpha    Beta     Spin     Total
       1     H     0.38578  0.38578  0.00000  0.22844
       2     O     4.18676  4.18676  0.00000 -0.37352
       3     C     2.85295  2.85295  0.00000  0.29411
       4     C     3.13648  3.13648  0.00000 -0.27296
       5     C     3.13913  3.13913  0.00000 -0.27826
       6     H     0.42438  0.42438  0.00000  0.15125
       7     C     3.05952  3.05952  0.00000 -0.11903
       8     H     0.41976  0.41976  0.00000  0.16048
       9     C     2.94110  2.94110  0.00000  0.11779
      10     H     0.42270  0.42270  0.00000  0.15460
      11     C     3.11223  3.11223  0.00000 -0.22445
      12     C     3.14657  3.14657  0.00000 -0.29314
      13     H     0.42733  0.42733  0.00000  0.14534
      14     H     0.44796  0.44796  0.00000  0.10409
      15     H     0.45011  0.45011  0.00000  0.09978
      16     H     0.44726  0.44726  0.00000  0.10548

   Total alpha = 29.00000, Total beta = 29.00000, Total charge = -0.00000

*** Psi4 exiting successfully. Buy a developer a beer!
