  ==> Input File <==

--------------------------------------------------------------------------
set {
	reference rhf
	basis 6-31G*
}

set_num_threads( 4 )
memory 2 gb

molecule MOL {
0 1

O	 3.225979	 0.970355	 -0.599647
C	 2.701189	 0.057885	 -0.047330
C	 1.245376	 -0.013843	 0.345420
O	 3.347903	 -1.046386	 0.304773
C	 0.455112	 1.231400	 -0.050772
H	 0.838542	 -0.913825	 -0.103701
H	 1.208210	 -0.175333	 1.419774
C	 -0.998893	 1.219485	 0.433193
H	 0.482531	 1.345121	 -1.130325
H	 0.957290	 2.103070	 0.354729
C	 -1.883438	 0.145884	 -0.207175
H	 -1.431207	 2.195402	 0.224832
H	 -1.019646	 1.105716	 1.516076
C	 -3.347647	 0.245583	 0.225435
H	 -1.822183	 0.231698	 -1.291012
H	 -1.510341	 -0.844814	 0.042401
C	 -3.580021	 1.256685	 1.349626
H	 -3.695196	 -0.734624	 0.547367
H	 -3.959161	 0.517757	 -0.633443
C	 -5.044139	 1.347386	 1.778381
H	 -2.968934	 0.986769	 2.208323
H	 -3.237244	 2.237966	 1.028111
H	 -5.176707	 2.071802	 2.576036
H	 -5.407256	 0.388916	 2.138488
H	 -5.677615	 1.649155	 0.948973
C	 4.728119	 -1.109107	 -0.004993
H	 4.882018	 -1.033965	 -1.071845
H	 5.068212	 -2.067527	 0.355250
H	 5.265056	 -0.311663	 0.488280

	symmetry c1
}
set optking {
	frozen_dihedral = ("
		17 14 11 15
	")
}

ee = optimize('scf')
oeprop('DIPOLE', 'QUADRUPOLE', 'MULLIKEN_CHARGES')
f=open( 'psi4out.xyz', 'w' )
f.write( "29  " )
f.write( str(ee) + "\n" )
f.write( MOL.save_string_xyz() )
f.close()
--------------------------------------------------------------------------

    Molecular point group: c1
  Charge       = 0
  Multiplicity = 1
  Basis Set: 6-31G*
  Basis Set:
  @DF-RHF Final Energy:  -501.02920227696950
    Total Energy =                       -501.0292022769697269
    Molecular point group: c1
  Basis Set: 6-31G*
  Basis Set:
  Basis Set: 6-31G*
  Basis Set:
  @DF-RHF Final Energy:  -501.02884797417380
    Total Energy =                       -501.0288479741739138
  Basis Set: 6-31G*
  Basis Set:
  Basis Set: 6-31G*
  Basis Set:
  @DF-RHF Final Energy:  -501.03331974223818
    Total Energy =                       -501.0333197422380636
  Basis Set: 6-31G*
  Basis Set:
  Basis Set: 6-31G*
  Basis Set:
  @DF-RHF Final Energy:  -501.03402309889941
    Total Energy =                       -501.0340230988997519
  Basis Set: 6-31G*
  Basis Set:
  @DF-RHF Final Energy:  -501.03399430906995
    Total Energy =                       -501.0339943090705219
  @DF-RHF Final Energy:  -501.03335877138829
    Total Energy =                       -501.0333587713876113
  @DF-RHF Final Energy:  -501.03412303474556
    Total Energy =                       -501.0341230347451074
  @DF-RHF Final Energy:  -501.03398285305605
    Total Energy =                       -501.0339828530562727
  Basis Set: 6-31G*
  Basis Set:
  @DF-RHF Final Energy:  -501.03413555057921
    Total Energy =                       -501.0341355505796628
  Basis Set: 6-31G*
  Basis Set:
  Basis Set: 6-31G*
  Basis Set:
  @DF-RHF Final Energy:  -501.03413356300905
    Total Energy =                       -501.0341335630093909
  Basis Set: 6-31G*
  Basis Set:
  Basis Set: 6-31G*
  Basis Set:
  @DF-RHF Final Energy:  -501.03413712966415
    Total Energy =                       -501.0341371296644866
  Basis Set: 6-31G*
  Basis Set:
  Charge       = 0
  Multiplicity = 1
  Basis Set: 6-31G*
  Basis Set:

    Orbital Energies (a.u.)
    -----------------------

    Doubly Occupied:

       1A    -20.603309     2A    -20.545128     3A    -11.371946
       4A    -11.280618     5A    -11.234627     6A    -11.218876
       7A    -11.217163     8A    -11.216513     9A    -11.215628
      10A    -11.215013    11A    -11.208848    12A     -1.469003
      13A     -1.362442    14A     -1.096109    15A     -1.064296
      16A     -1.017255    17A     -0.975638    18A     -0.928723
      19A     -0.862897    20A     -0.820270    21A     -0.773223
      22A     -0.756629    23A     -0.700997    24A     -0.682082
      25A     -0.671989    26A     -0.648604    27A     -0.627356
      28A     -0.603828    29A     -0.595061    30A     -0.581510
      31A     -0.563903    32A     -0.552296    33A     -0.548538
      34A     -0.523854    35A     -0.518134    36A     -0.501189
      37A     -0.491166    38A     -0.484870    39A     -0.482331
      40A     -0.456695    41A     -0.449764    42A     -0.444798
      43A     -0.442119    44A     -0.437035

  @DF-RHF Final Energy:  -501.03413710908922

   => Energetics <=

    Nuclear Repulsion Energy =            614.7783766079624002
    One-Electron Energy =               -1900.7004858632099058
    Two-Electron Energy =                 784.8879721461587451
    DFT Exchange-Correlation Energy =       0.0000000000000000
    Empirical Dispersion Energy =           0.0000000000000000
    PCM Polarization Energy =               0.0000000000000000
    EFP Energy =                            0.0000000000000000
    Total Energy =                       -501.0341371090887606
    Molecular point group: c1
  Basis Set: 6-31G*
  Basis Set:

  -Total Gradient:
     Atom            X                  Y                   Z
    ------   -----------------  -----------------  -----------------
       1       -0.000006408394    -0.000010096757    -0.000015896816
       2        0.000011565718     0.000017993615     0.000040274727
       3       -0.000006584908    -0.000011417394    -0.000009891100
       4       -0.000005070078    -0.000005551083    -0.000014658765
       5       -0.000004158105     0.000009190976     0.000003439862
       6       -0.000000345637     0.000001506611     0.000001148039
       7        0.000003179318    -0.000000454053     0.000001446086
       8        0.000010173623     0.000001050414     0.000007838953
       9       -0.000001704414     0.000011661467    -0.000001266809
      10        0.000002013590    -0.000006140489     0.000006108770
      11       -0.000393568476    -0.002736939690    -0.000987126925
      12        0.000005610843    -0.000004656753    -0.000009157188
      13        0.000004465875     0.000016129037    -0.000006263624
      14        0.000558407951    -0.001640631119     0.002177165830
      15        0.000176169416     0.002826550579     0.000248233073
      16       -0.000001376339    -0.000004332861    -0.000004496319
      17       -0.000346738037     0.001511504282    -0.001422142511
      18        0.000003013587    -0.000001341894     0.000003646310
      19        0.000001383772    -0.000006240752    -0.000006851167
      20        0.000000960110     0.000018807068    -0.000005392843
      21       -0.000019032541     0.000005514915    -0.000000663251
      22        0.000005656839     0.000003992852    -0.000001678514
      23       -0.000003775912     0.000004124478    -0.000003764348
      24        0.000007538568     0.000002728521     0.000001834156
      25       -0.000002509849    -0.000002510438    -0.000002459828
      26        0.000000791395     0.000000185940     0.000001537062
      27       -0.000000281554    -0.000000016873    -0.000000175817
      28        0.000000267403    -0.000000250408    -0.000000447340
      29        0.000000356220    -0.000000360188    -0.000000339703

  **** Optimization is complete! (in 12 steps) ****
    Final optimized geometry and variables:
    Molecular point group: c1

    Geometry (in Angstrom), charge = 0, multiplicity = 1:

    O            3.144977435304     0.514588131966    -1.013661099621
    C            2.612459351392    -0.354826141173    -0.402431389351
    C            1.167796788731    -0.366121206212     0.035500100757
    O            3.239199092313    -1.459168793414    -0.015978060094
    C            0.400149664715     0.880768910604    -0.399126357263
    H            0.724901826995    -1.275913106428    -0.355514898566
    H            1.159417944182    -0.472956346628     1.117289634225
    C           -1.035643554123     0.945856184690     0.135809196709
    H            0.393216459715     0.938040601194    -1.483548666818
    H            0.943483920523     1.755073227949    -0.057350972283
    C           -1.965280010910    -0.126301570504    -0.450137225806
    H           -1.429806013670     1.930038905345    -0.099769267275
    H           -1.014716745306     0.877857206762     1.220698529595
    C           -3.459771272420    -0.066435988993    -0.025016240929
    H           -1.910417693143    -0.033815364264    -1.531748412690
    H           -1.571694696063    -1.107894858565    -0.206678045695
    C           -3.842093153195     0.905422100506     1.097530288254
    H           -3.782226055776    -1.063209719746     0.263981216507
    H           -4.058348354374     0.190489288440    -0.895588348650
    C           -5.337435651119     0.850081551586     1.411512053728
    H           -3.282518330868     0.675884278643     2.000692410990
    H           -3.576539049042     1.921015640021     0.820729838232
    H           -5.597809431807     1.544998262781     2.203968827355
    H           -5.635403622661    -0.144186082442     1.732305723797
    H           -5.931603326688     1.106226614833     0.538733741126
    C            4.607110478625    -1.576298121920    -0.362330068492
    H            4.730472363855    -1.556675071982    -1.435601067429
    H            4.931668313872    -2.525799698108     0.034039073182
    H            5.180420649052    -0.771985184136     0.075777305216

  Mulliken Charges: (a.u.)
   Center  Symbol    Alpha    Beta     Spin     Total
       1     O     4.28597  4.28597  0.00000 -0.57195
       2     C     2.60470  2.60470  0.00000  0.79061
       3     C     3.20984  3.20984  0.00000 -0.41968
       4     O     4.30751  4.30751  0.00000 -0.61503
       5     C     3.15397  3.15397  0.00000 -0.30794
       6     H     0.39890  0.39890  0.00000  0.20220
       7     H     0.40135  0.40135  0.00000  0.19731
       8     C     3.15951  3.15951  0.00000 -0.31903
       9     H     0.41343  0.41343  0.00000  0.17315
      10     H     0.40852  0.40852  0.00000  0.18297
      11     C     3.15841  3.15841  0.00000 -0.31682
      12     H     0.41737  0.41737  0.00000  0.16525
      13     H     0.42239  0.42239  0.00000  0.15522
      14     C     3.15472  3.15472  0.00000 -0.30944
      15     H     0.42022  0.42022  0.00000  0.15955
      16     H     0.42130  0.42130  0.00000  0.15739
      17     C     3.15436  3.15436  0.00000 -0.30871
      18     H     0.42122  0.42122  0.00000  0.15756
      19     H     0.42152  0.42152  0.00000  0.15695
      20     C     3.23935  3.23935  0.00000 -0.47870
      21     H     0.42265  0.42265  0.00000  0.15470
      22     H     0.42083  0.42083  0.00000  0.15833
      23     H     0.41911  0.41911  0.00000  0.16178
      24     H     0.42196  0.42196  0.00000  0.15608
      25     H     0.42174  0.42174  0.00000  0.15652
      26     C     3.09239  3.09239  0.00000 -0.18478
      27     H     0.40908  0.40908  0.00000  0.18183
      28     H     0.40853  0.40853  0.00000  0.18294
      29     H     0.40914  0.40914  0.00000  0.18171

   Total alpha = 44.00000, Total beta = 44.00000, Total charge = -0.00000
