  ==> Input File <==

--------------------------------------------------------------------------
set {
	reference rhf
	basis cc-pvtz
}

set_num_threads( 4 )
memory 2 gb

molecule MOL {
0 1

H	 -4.024089	 -0.454762	 -0.008406
C	 -2.962210	 -0.297957	 -0.008743
C	 -2.454725	 0.988892	 -0.019702
C	 -2.105838	 -1.382622	 0.001775
H	 -3.120037	 1.830316	 -0.027862
C	 -1.090095	 1.189588	 -0.020128
H	 -2.500395	 -2.380182	 0.010268
C	 -0.739175	 -1.183295	 0.001362
H	 -0.680199	 2.179018	 -0.028535
C	 -0.227336	 0.104498	 -0.009599
H	 -0.073214	 -2.021125	 0.009491
C	 1.238980	 0.374383	 -0.010544
O	 1.968286	 -0.725612	 -0.000027
O	 1.709198	 1.462495	 -0.019801
C	 3.373556	 -0.568203	 0.000011
H	 3.695416	 -0.031588	 -0.879663
H	 3.782700	 -1.565294	 -0.000152
H	 3.695405	 -0.031851	 0.879862

	symmetry c1
}
set optking {
	frozen_dihedral = ("
		12 13 15 16
	")
}

ee = optimize('scf')
oeprop('DIPOLE', 'QUADRUPOLE', 'MULLIKEN_CHARGES')
f=open( 'psi4out.xyz', 'w' )
f.write( "18  " )
f.write( str(ee) + "\n" )
f.write( MOL.save_string_xyz() )
f.close()
--------------------------------------------------------------------------

    Molecular point group: c1
  Charge       = 0
  Multiplicity = 1
  Basis Set: CC-PVTZ
  Basis Set:
  @DF-RHF Final Energy:  -457.51024259533199
    Total Energy =                       -457.5102425953321017
    Molecular point group: c1
  Basis Set: CC-PVTZ
  Basis Set:
  Charge       = 0
  Multiplicity = 1
  Basis Set: CC-PVTZ
  Basis Set:

    Orbital Energies (a.u.)
    -----------------------

    Doubly Occupied:

       1A    -20.600996     2A    -20.534490     3A    -11.371768
       4A    -11.281252     5A    -11.245050     6A    -11.243547
       7A    -11.242758     8A    -11.240112     9A    -11.236115
      10A    -11.235355    11A     -1.477070    12A     -1.368447
      13A     -1.170841    14A     -1.051883    15A     -1.029106
      16A     -0.980505    17A     -0.863266    18A     -0.838522
      19A     -0.781282    20A     -0.745073    21A     -0.687877
      22A     -0.681797    23A     -0.676428    24A     -0.634120
      25A     -0.630119    26A     -0.601343    27A     -0.587587
      28A     -0.564948    29A     -0.531968    30A     -0.520367
      31A     -0.509511    32A     -0.502294    33A     -0.464198
      34A     -0.449518    35A     -0.350259    36A     -0.346306

  @DF-RHF Final Energy:  -457.51024279607702

   => Energetics <=

    Nuclear Repulsion Energy =            494.0362902021488480
    One-Electron Energy =               -1602.5409094538729278
    Two-Electron Energy =                 650.9943764556470569
    DFT Exchange-Correlation Energy =       0.0000000000000000
    Empirical Dispersion Energy =           0.0000000000000000
    PCM Polarization Energy =               0.0000000000000000
    EFP Energy =                            0.0000000000000000
    Total Energy =                       -457.5102427960770228
    Molecular point group: c1
  Basis Set: CC-PVTZ
  Basis Set:

  -Total Gradient:
     Atom            X                  Y                   Z
    ------   -----------------  -----------------  -----------------
       1       -0.000003722071    -0.000001636486     0.000000332257
       2       -0.000006996599     0.000037499419    -0.000000499602
       3       -0.000023247734    -0.000014953338    -0.000000920371
       4        0.000039670552    -0.000020496794    -0.000002015930
       5       -0.000002278494     0.000002405252    -0.000000079575
       6        0.000005420539    -0.000015444840     0.000002023057
       7       -0.000005707133     0.000000638231    -0.000000307957
       8       -0.000051685545    -0.000042107906     0.000004186321
       9        0.000002297552     0.000002950698    -0.000000103174
      10        0.000015941127     0.000044528048     0.000033429504
      11        0.000001816801     0.000005373890     0.000000843417
      12       -0.000066202563     0.000018363584    -0.000184063721
      13       -0.000020456041     0.000025884294     0.000140280411
      14        0.000048169593    -0.000029168498     0.000059438696
      15        0.000087871351    -0.000053288131    -0.000084577779
      16       -0.000005941155     0.000042683310     0.000030360835
      17        0.000016717465    -0.000001578203     0.000002402431
      18       -0.000031667634    -0.000001652531    -0.000000728821

  **** Optimization is complete! (in 2 steps) ****
    Final optimized geometry and variables:
    Molecular point group: c1

    Geometry (in Angstrom), charge = 0, multiplicity = 1:

    H           -4.024471781322    -0.454187416638    -0.000288707651
    C           -2.962512246667    -0.297651995357    -0.000552861656
    C           -2.454713291776     0.989144108902    -0.011347706398
    C           -2.106306919509    -1.382462342746     0.009906183939
    H           -3.119851891135     1.830778221778    -0.019454675803
    C           -1.090034003651     1.189533695351    -0.011672803341
    H           -2.500957619633    -2.380019217609     0.018280855003
    C           -0.739508713616    -1.183414730575     0.009593009447
    H           -0.680020518250     2.178983147215    -0.019944242966
    C           -0.227459932230     0.104244656652    -0.001216179723
    H           -0.073800895596    -2.021518028022     0.017687831918
    C            1.239147736738     0.374182196917    -0.002039066650
    O            1.968612031890    -0.725546662794     0.008905954438
    O            1.709499378095     1.462222472189    -0.010691306275
    C            3.373670971044    -0.567844368460     0.007994580996
    H            3.695253273014    -0.031852696252    -0.872201055402
    H            3.783739367694    -1.564592615077     0.009225826765
    H            3.695560969088    -0.030085372509     0.887109091543

  Mulliken Charges: (a.u.)
   Center  Symbol    Alpha    Beta     Spin     Total
       1     H     0.42028  0.42028  0.00000  0.15944
       2     C     3.06973  3.06973  0.00000 -0.13947
       3     C     3.07551  3.07551  0.00000 -0.15102
       4     C     3.07494  3.07494  0.00000 -0.14987
       5     H     0.42037  0.42037  0.00000  0.15925
       6     C     3.07588  3.07588  0.00000 -0.15176
       7     H     0.42188  0.42188  0.00000  0.15625
       8     C     3.08211  3.08211  0.00000 -0.16422
       9     H     0.40668  0.40668  0.00000  0.18664
      10     C     3.01232  3.01232  0.00000 -0.02464
      11     H     0.41103  0.41103  0.00000  0.17795
      12     C     2.78240  2.78240  0.00000  0.43520
      13     O     4.14840  4.14840  0.00000 -0.29680
      14     O     4.21126  4.21126  0.00000 -0.42253
      15     C     3.03658  3.03658  0.00000 -0.07317
      16     H     0.45258  0.45258  0.00000  0.09485
      17     H     0.44530  0.44530  0.00000  0.10941
      18     H     0.45276  0.45276  0.00000  0.09448

   Total alpha = 36.00000, Total beta = 36.00000, Total charge = -0.00000
