                              Psi4 1.0.54 Driver

  ==> Input File <==

--------------------------------------------------------------------------
set {
	reference rhf
	basis cc-pvtz
}

set_num_threads( 4 )
memory 2 gb

molecule MOL {
0 1

H	 -3.091860	 0.355875	 -1.572812
C	 -2.084821	 0.173411	 -1.252353
C	 -1.706687	 -1.081940	 -0.797445
C	 -1.146930	 1.178971	 -1.285279
H	 -2.424996	 -1.879114	 -0.764605
C	 -0.417520	 -1.320093	 -0.385919
H	 -1.420688	 2.156773	 -1.634060
C	 0.159519	 0.955622	 -0.873310
H	 -0.115149	 -2.286284	 -0.032767
C	 0.526124	 -0.298870	 -0.421724
H	 0.865595	 1.759041	 -0.911178
O	 1.760432	 -0.625184	 0.000000
C	 2.773565	 0.334879	 0.000000
H	 2.728295	 0.960928	 -0.884150
H	 3.706387	 -0.206610	 0.000000
H	 2.728295	 0.960928	 0.884150

	symmetry c1
}
set optking {
	frozen_dihedral = ("
		10 12 13 14
	")
}

ee,wfn = optimize('scf', return_wfn=True)
oeprop( wfn, 'DIPOLE', 'QUADRUPOLE', 'MULLIKEN_CHARGES')
f=open( 'psi4out.xyz', 'w' )
f.write( "16  " )
f.write( str(ee) + "\n" )
f.write( MOL.save_string_xyz() )
f.close()
--------------------------------------------------------------------------

    Molecular point group: c1
  Charge       = 0
  Multiplicity = 1
  Basis Set: CC-PVTZ
  Basis Set:
  @DF-RHF Final Energy:  -344.70182447078730
    Total Energy =                       -344.7018244707873009
    Molecular point group: c1
  Basis Set: CC-PVTZ
  Basis Set:
  Basis Set: CC-PVTZ
  Basis Set:
  @DF-RHF Final Energy:  -344.40766839324493
    Total Energy =                       -344.4076683932449896
  Basis Set: CC-PVTZ
  Basis Set:
  Basis Set: CC-PVTZ
  Basis Set:
  @DF-RHF Final Energy:  -344.57053902939543
    Total Energy =                       -344.5705390293951496
  Basis Set: CC-PVTZ
  Basis Set:
  Basis Set: CC-PVTZ
  Basis Set:
  @DF-RHF Final Energy:  -344.66584427753969
    Total Energy =                       -344.6658442775398612
  Basis Set: CC-PVTZ
  Basis Set:
  @DF-RHF Final Energy:  -344.69857875344508
    Total Energy =                       -344.6985787534450765
  @DF-RHF Final Energy:  -344.70218184348067
    Total Energy =                       -344.7021818434810712
  Basis Set: CC-PVTZ
  Basis Set:
  @DF-RHF Final Energy:  -344.70273073662321
    Total Energy =                       -344.7027307366232662
  Basis Set: CC-PVTZ
  Basis Set:
  Basis Set: CC-PVTZ
  Basis Set:
  @DF-RHF Final Energy:  -344.70276485737105
    Total Energy =                       -344.7027648573710508
  Basis Set: CC-PVTZ
  Basis Set:
  Basis Set: CC-PVTZ
  Basis Set:
  @DF-RHF Final Energy:  -344.70276762052441
    Total Energy =                       -344.7027676205245825
  Basis Set: CC-PVTZ
  Basis Set:
  Charge       = 0
  Multiplicity = 1
  Basis Set: CC-PVTZ
  Basis Set:

    Orbital Energies (a.u.)
    -----------------------

    Doubly Occupied:

       1A    -20.579031     2A    -11.293462     3A    -11.278292
       4A    -11.231338     5A    -11.230039     6A    -11.222034
       7A    -11.218098     8A    -11.217208     9A     -1.418397
      10A     -1.150995    11A     -1.025415    12A     -1.016744
      13A     -0.943867    14A     -0.834831    15A     -0.808456
      16A     -0.725780    17A     -0.667829    18A     -0.666512
      19A     -0.658830    20A     -0.619207    21A     -0.590775
      22A     -0.580904    23A     -0.527781    24A     -0.522709
      25A     -0.512436    26A     -0.480837    27A     -0.464258
      28A     -0.339733    29A     -0.310517

  @DF-RHF Final Energy:  -344.70276794038654

   => Energetics <=

    Nuclear Repulsion Energy =            348.7984134296299885
    One-Electron Energy =               -1158.7297284998956002
    Two-Electron Energy =                 465.2285471298786774
    DFT Exchange-Correlation Energy =       0.0000000000000000
    Empirical Dispersion Energy =           0.0000000000000000
    PCM Polarization Energy =               0.0000000000000000
    EFP Energy =                            0.0000000000000000
    Total Energy =                       -344.7027679403868774
    Molecular point group: c1
  Basis Set: CC-PVTZ
  Basis Set:

  -Total Gradient:
     Atom            X                  Y                   Z
    ------   -----------------  -----------------  -----------------
       1       -0.000003482609     0.000000970503     0.000002231922
       2        0.000030582512     0.000054584667    -0.000081301917
       3        0.000050917858    -0.000051539150     0.000105645950
       4       -0.000054160155     0.000012926348    -0.000026051398
       5       -0.000003102897    -0.000002546944    -0.000001386943
       6       -0.000109884362    -0.000015259220     0.000019006680
       7        0.000002657899     0.000008840290    -0.000009938522
       8        0.000005491356     0.000012641121     0.000010789981
       9        0.000008708681    -0.000007787392     0.000011546430
      10        0.000413338980    -0.002070406864    -0.000917962692
      11       -0.000015634672     0.000008744675    -0.000004211284
      12       -0.000709193997     0.003734811148     0.001128133042
      13        0.001285429260    -0.004030270085     0.000445113577
      14       -0.000865892498     0.002336350707    -0.000698472204
      15       -0.000026207509     0.000005043367     0.000005674434
      16       -0.000009567848     0.000002896831     0.000011182946

  **** Optimization is complete! (in 10 steps) ****
    Final optimized geometry and variables:
    Molecular point group: c1

    Geometry (in Angstrom), charge = 0, multiplicity = 1:

    H           -2.846324347485     0.290593315935    -1.730099680584
    C           -1.956912806547     0.181241968185    -1.140880705305
    C           -1.950268227995    -0.638434312220    -0.021773918528
    C           -0.805299968406     0.853503474435    -1.480800691287
    H           -2.840021556437    -1.169523717300     0.258997136494
    C           -0.811783075920    -0.783911242910     0.735040649979
    H           -0.793305539505     1.497054703480    -2.340106218795
    C            0.350715053886     0.720479584145    -0.725615901762
    H           -0.795412425380    -1.416281898605     1.600789887235
    C            0.349511095300    -0.105489888427     0.383707850691
    H            1.227881733154     1.266846404271    -1.005843207981
    O            1.409672540541    -0.290073470261     1.190861120862
    C            2.689191518363     0.077268993218     0.765182876242
    H            2.849189383499    -0.168295558392    -0.277318068674
    H            3.390620127011    -0.465737362703     1.378942260567
    H            2.854096918190     1.141503110966     0.898113362898

  Mulliken Charges: (a.u.)
   Center  Symbol    Alpha    Beta     Spin     Total
       1     H     0.42439  0.42439  0.00000  0.15123
       2     C     3.10027  3.10027  0.00000 -0.20054
       3     C     3.05849  3.05849  0.00000 -0.11697
       4     C     3.06219  3.06219  0.00000 -0.12439
       5     H     0.42296  0.42296  0.00000  0.15409
       6     C     3.11060  3.11060  0.00000 -0.22119
       7     H     0.42337  0.42337  0.00000  0.15326
       8     C     3.14048  3.14048  0.00000 -0.28096
       9     H     0.42053  0.42053  0.00000  0.15894
      10     C     2.85273  2.85273  0.00000  0.29454
      11     H     0.42291  0.42291  0.00000  0.15418
      12     O     4.15354  4.15354  0.00000 -0.30708
      13     C     3.04364  3.04364  0.00000 -0.08727
      14     H     0.46360  0.46360  0.00000  0.07279
      15     H     0.44017  0.44017  0.00000  0.11967
      16     H     0.46015  0.46015  0.00000  0.07971

   Total alpha = 29.00000, Total beta = 29.00000, Total charge =  0.00000

*** Psi4 exiting successfully. Buy a developer a beer!
