  ==> Input File <==

--------------------------------------------------------------------------
set {
	reference rhf
	basis 6-31G*
}

set_num_threads( 4 )
memory 2 gb

molecule MOL {
0 1

H	 2.216058	 0.500746	 -5.019670
C	 2.585205	 0.870715	 -4.068158
C	 1.441886	 1.081772	 -3.076466
H	 3.301880	 0.148711	 -3.688121
H	 3.118330	 1.798328	 -4.258187
C	 1.927477	 1.610234	 -1.724896
H	 0.916439	 0.143590	 -2.930445
H	 0.723701	 1.782369	 -3.499628
C	 0.802903	 1.848588	 -0.717033
H	 2.641684	 0.915086	 -1.297904
H	 2.453180	 2.549887	 -1.878940
C	 0.169600	 0.576866	 -0.172154
H	 1.189127	 2.395046	 0.142027
H	 0.026965	 2.480896	 -1.142808
C	 -1.181045	 0.701995	 0.511084
O	 0.716776	 -0.481227	 -0.258424
C	 -2.285934	 -0.139295	 -0.145128
H	 -1.449051	 1.751551	 0.493206
H	 -1.071135	 0.403303	 1.551943
C	 -3.651768	 0.085446	 0.506485
H	 -2.346596	 0.110469	 -1.202272
H	 -2.034737	 -1.195320	 -0.088721
C	 -4.759797	 -0.746382	 -0.137905
H	 -3.908762	 1.140117	 0.445781
H	 -3.588286	 -0.154158	 1.565709
H	 -4.868882	 -0.505166	 -1.191300
H	 -4.548009	 -1.809175	 -0.062213
H	 -5.715422	 -0.564821	 0.343442

	symmetry c1
}
set optking {
	frozen_dihedral = ("
		16 12 15 17
	")
}

ee = optimize('scf')
oeprop('DIPOLE', 'QUADRUPOLE', 'MULLIKEN_CHARGES')
f=open( 'psi4out.xyz', 'w' )
f.write( "28  " )
f.write( str(ee) + "\n" )
f.write( MOL.save_string_xyz() )
f.close()
--------------------------------------------------------------------------

    Molecular point group: c1
  Charge       = 0
  Multiplicity = 1
  Basis Set: 6-31G*
  Basis Set:
  @DF-RHF Final Energy:  -426.16864862318300
    Total Energy =                       -426.1686486231828894
    Molecular point group: c1
  Basis Set: 6-31G*
  Basis Set:
  Basis Set: 6-31G*
  Basis Set:
  @DF-RHF Final Energy:  -426.16965976552228
    Total Energy =                       -426.1696597655223968
  Basis Set: 6-31G*
  Basis Set:
  Basis Set: 6-31G*
  Basis Set:
  @DF-RHF Final Energy:  -426.16986516948270
    Total Energy =                       -426.1698651694823639
  Basis Set: 6-31G*
  Basis Set:
  Basis Set: 6-31G*
  Basis Set:
  @DF-RHF Final Energy:  -426.16992940082650
    Total Energy =                       -426.1699294008258221
  Basis Set: 6-31G*
  Basis Set:
  @DF-RHF Final Energy:  -426.16990630132943
    Total Energy =                       -426.1699063013293198
  Basis Set: 6-31G*
  Basis Set:
  @DF-RHF Final Energy:  -426.16982847923236
    Total Energy =                       -426.1698284792316826
  Basis Set: 6-31G*
  Basis Set:
  Basis Set: 6-31G*
  Basis Set:
  @DF-RHF Final Energy:  -426.16996322404896
    Total Energy =                       -426.1699632240490700
  Basis Set: 6-31G*
  Basis Set:
  Basis Set: 6-31G*
  Basis Set:
  @DF-RHF Final Energy:  -426.16996425271793
    Total Energy =                       -426.1699642527174774
  Basis Set: 6-31G*
  Basis Set:
  Charge       = 0
  Multiplicity = 1
  Basis Set: 6-31G*
  Basis Set:

    Orbital Energies (a.u.)
    -----------------------

    Doubly Occupied:

       1A    -20.548007     2A    -11.323347     3A    -11.231429
       4A    -11.229078     5A    -11.225097     6A    -11.222067
       7A    -11.216421     8A    -11.212609     9A    -11.211090
      10A    -11.205071    11A     -1.393988    12A     -1.090218
      13A     -1.077598    14A     -1.021831    15A     -0.991011
      16A     -0.909375    17A     -0.867464    18A     -0.805628
      19A     -0.796166    20A     -0.724342    21A     -0.669995
      22A     -0.651059    23A     -0.625008    24A     -0.619244
      25A     -0.608164    26A     -0.587443    27A     -0.575240
      28A     -0.573218    29A     -0.540892    30A     -0.530337
      31A     -0.517852    32A     -0.510078    33A     -0.498177
      34A     -0.478712    35A     -0.478130    36A     -0.472086
      37A     -0.467270    38A     -0.464265    39A     -0.455913
      40A     -0.392204

  @DF-RHF Final Energy:  -426.16996478550686

   => Energetics <=

    Nuclear Repulsion Energy =            532.2244141594612756
    One-Electron Energy =               -1632.7545067850849136
    Two-Electron Energy =                 674.3601278401173431
    DFT Exchange-Correlation Energy =       0.0000000000000000
    Empirical Dispersion Energy =           0.0000000000000000
    PCM Polarization Energy =               0.0000000000000000
    EFP Energy =                            0.0000000000000000
    Total Energy =                       -426.1699647855062949
    Molecular point group: c1
  Basis Set: 6-31G*
  Basis Set:

  -Total Gradient:
     Atom            X                  Y                   Z
    ------   -----------------  -----------------  -----------------
       1       -0.000000969131    -0.000005775009     0.000004160849
       2       -0.000001629726    -0.000012943497     0.000008327689
       3        0.000019779306     0.000012401611    -0.000040395247
       4        0.000008190858     0.000003349912     0.000000579815
       5       -0.000002599616     0.000001039592    -0.000004563012
       6        0.000011852277     0.000016768749    -0.000021017920
       7       -0.000017000523     0.000001233913     0.000010108310
       8        0.000005043807     0.000003507984    -0.000002204053
       9        0.000047908829     0.000034603360     0.000129632173
      10        0.000007928793     0.000005536641     0.000000256308
      11       -0.000015070435     0.000000872661    -0.000012443401
      12       -0.000139373577    -0.000028482065    -0.000179643646
      13       -0.000002159742    -0.000008415647    -0.000039318565
      14       -0.000029955327     0.000009735309    -0.000010195477
      15        0.000060386809    -0.000084285260     0.000091414745
      16        0.000055010363    -0.000018198667     0.000127195333
      17       -0.000008935470     0.000115928127    -0.000058818115
      18        0.000005437332     0.000004645612    -0.000009867637
      19       -0.000004650392     0.000001984491    -0.000008688380
      20        0.000011199767    -0.000017619157     0.000025807367
      21       -0.000004621429    -0.000029956971    -0.000002551303
      22        0.000000329091    -0.000005932570    -0.000007082383
      23       -0.000008725911     0.000017683629    -0.000015346907
      24        0.000010562507    -0.000009357165     0.000007009835
      25       -0.000005445766    -0.000010857338     0.000008924158
      26        0.000001708872    -0.000006853545    -0.000004966958
      27       -0.000000684405     0.000003589366     0.000007837710
      28       -0.000003517167     0.000005795935    -0.000004151290

  **** Optimization is complete! (in 9 steps) ****
    Final optimized geometry and variables:
    Molecular point group: c1

    Geometry (in Angstrom), charge = 0, multiplicity = 1:

    H            2.999571615611    -0.029153543140    -4.021281971463
    C            3.268174644364     0.348602849818    -3.039606668147
    C            2.029537251816     0.549461487846    -2.167590507614
    H            3.951696978663    -0.363768165605    -2.587094163232
    H            3.807251680150     1.281645162673    -3.180356112111
    C            2.372537457332     1.090745808127    -0.777654457234
    H            1.502553505311    -0.393090017084    -2.067857783995
    H            1.349602112838     1.240651473339    -2.663325602382
    C            1.153329591409     1.309190392527     0.116429472951
    H            3.057382850306     0.410838935654    -0.281985716296
    H            2.892888446327     2.039796870509    -0.885372874277
    C            0.516539926631     0.041188117608     0.653503281151
    H            1.419407862478     1.910755470304     0.985516117514
    H            0.385587321932     1.881024742416    -0.402958877960
    C           -0.770770409068     0.194842764933     1.449761203465
    O            0.997599086796    -1.038889032229     0.484787044141
    C           -1.928330689995    -0.583565829661     0.811661467194
    H           -1.033222144876     1.243301243142     1.554784837393
    H           -0.578844714455    -0.193524916067     2.446395392163
    C           -3.217883938738    -0.500069955640     1.629275860950
    H           -2.112549946271    -0.201393314865    -0.190942558319
    H           -1.627226856350    -1.619431214470     0.698259443543
    C           -4.372498805234    -1.271785496953     0.991529549532
    H           -3.504139782397     0.542453330060     1.751478849369
    H           -3.034013138624    -0.886177732493     2.629470751824
    H           -4.602706873654    -0.886779488661     0.002179923570
    H           -4.128877468982    -2.325005914685     0.887496061498
    H           -5.273056821542    -1.197729081603     1.592964424819

  Mulliken Charges: (a.u.)
   Center  Symbol    Alpha    Beta     Spin     Total
       1     H     0.41942  0.41942  0.00000  0.16117
       2     C     3.24024  3.24024  0.00000 -0.48049
       3     C     3.15623  3.15623  0.00000 -0.31246
       4     H     0.41857  0.41857  0.00000  0.16286
       5     H     0.42395  0.42395  0.00000  0.15209
       6     C     3.14944  3.14944  0.00000 -0.29889
       7     H     0.40766  0.40766  0.00000  0.18467
       8     H     0.42811  0.42811  0.00000  0.14379
       9     C     3.21333  3.21333  0.00000 -0.42666
      10     H     0.40855  0.40855  0.00000  0.18291
      11     H     0.42179  0.42179  0.00000  0.15641
      12     C     2.73125  2.73125  0.00000  0.53749
      13     H     0.40544  0.40544  0.00000  0.18912
      14     H     0.41005  0.41005  0.00000  0.17990
      15     C     3.20036  3.20036  0.00000 -0.40072
      16     O     4.26998  4.26998  0.00000 -0.53997
      17     C     3.15778  3.15778  0.00000 -0.31555
      18     H     0.41543  0.41543  0.00000  0.16915
      19     H     0.40281  0.40281  0.00000  0.19437
      20     C     3.15247  3.15247  0.00000 -0.30494
      21     H     0.42117  0.42117  0.00000  0.15766
      22     H     0.40376  0.40376  0.00000  0.19249
      23     C     3.24001  3.24001  0.00000 -0.48002
      24     H     0.42323  0.42323  0.00000  0.15355
      25     H     0.42067  0.42067  0.00000  0.15866
      26     H     0.42115  0.42115  0.00000  0.15771
      27     H     0.41895  0.41895  0.00000  0.16210
      28     H     0.41820  0.41820  0.00000  0.16360

   Total alpha = 40.00000, Total beta = 40.00000, Total charge = -0.00000
