  ==> Input File <==

--------------------------------------------------------------------------
set {
	reference rhf
	basis 6-31G*
}

set_num_threads( 4 )
memory 2 gb

molecule MOL {
0 1

O	 0.749854	 1.307668	 -0.000040
C	 0.576249	 0.131685	 -0.000108
C	 -0.766779	 -0.556801	 -0.000461
O	 1.568443	 -0.749345	 -0.000005
C	 -1.945214	 0.412366	 0.000161
H	 -0.796911	 -1.211249	 -0.867467
H	 -0.796854	 -1.212390	 0.865687
C	 -3.287791	 -0.317055	 0.000105
H	 -1.876087	 1.060580	 -0.866812
H	 -1.875822	 1.059691	 0.867761
H	 -3.394745	 -0.949193	 -0.877058
H	 -4.111778	 0.388953	 0.000015
H	 -3.394954	 -0.949187	 0.877259
C	 2.836234	 -0.289456	 0.431752
H	 3.185811	 0.512343	 -0.202643
H	 3.498014	 -1.138464	 0.360345
H	 2.785844	 0.061380	 1.452480

	symmetry c1
}
set optking {
	frozen_dihedral = ("
		14 4 2 1
	")
}

ee = optimize('scf')
oeprop('DIPOLE', 'QUADRUPOLE', 'MULLIKEN_CHARGES')
f=open( 'psi4out.xyz', 'w' )
f.write( "17  " )
f.write( str(ee) + "\n" )
f.write( MOL.save_string_xyz() )
f.close()
--------------------------------------------------------------------------

    Molecular point group: c1
  Charge       = 0
  Multiplicity = 1
  Basis Set: 6-31G*
  Basis Set:
  @DF-RHF Final Energy:  -344.90435363350343
    Total Energy =                       -344.9043536335033764
    Molecular point group: c1
  Basis Set: 6-31G*
  Basis Set:
  Basis Set: 6-31G*
  Basis Set:
  @DF-RHF Final Energy:  -344.90100800772325
    Total Energy =                       -344.9010080077230214
  Basis Set: 6-31G*
  Basis Set:
  Basis Set: 6-31G*
  Basis Set:
  @DF-RHF Final Energy:  -344.90458580819308
    Total Energy =                       -344.9045858081934739
  Basis Set: 6-31G*
  Basis Set:
  Basis Set: 6-31G*
  Basis Set:
  @DF-RHF Final Energy:  -344.90463625194002
    Total Energy =                       -344.9046362519401328
  Basis Set: 6-31G*
  Basis Set:
  Basis Set: 6-31G*
  Basis Set:
  @DF-RHF Final Energy:  -344.90464309876933
    Total Energy =                       -344.9046430987693270
  Basis Set: 6-31G*
  Basis Set:
  Basis Set: 6-31G*
  Basis Set:
  @DF-RHF Final Energy:  -344.90464598530457
    Total Energy =                       -344.9046459853045121
  Basis Set: 6-31G*
  Basis Set:
  Basis Set: 6-31G*
  Basis Set:
  @DF-RHF Final Energy:  -344.90464832891723
    Total Energy =                       -344.9046483289173466
  Basis Set: 6-31G*
  Basis Set:
  Charge       = 0
  Multiplicity = 1
  Basis Set: 6-31G*
  Basis Set:

    Orbital Energies (a.u.)
    -----------------------

    Doubly Occupied:

       1A    -20.602097     2A    -20.546922     3A    -11.373017
       4A    -11.282198     5A    -11.236188     6A    -11.222049
       7A    -11.214666     8A     -1.468350     9A     -1.363607
      10A     -1.080547    11A     -1.000818    12A     -0.940524
      13A     -0.827812    14A     -0.767151    15A     -0.700064
      16A     -0.682472    17A     -0.672405    18A     -0.636751
      19A     -0.597280    20A     -0.575470    21A     -0.567956
      22A     -0.528216    23A     -0.522753    24A     -0.498373
      25A     -0.487143    26A     -0.478807    27A     -0.455784
      28A     -0.437650

  @DF-RHF Final Energy:  -344.90464839766634

   => Energetics <=

    Nuclear Repulsion Energy =            312.3286777238213858
    One-Electron Energy =               -1088.9325111508792361
    Two-Electron Energy =                 431.6991850293911739
    DFT Exchange-Correlation Energy =       0.0000000000000000
    Empirical Dispersion Energy =           0.0000000000000000
    PCM Polarization Energy =               0.0000000000000000
    EFP Energy =                            0.0000000000000000
    Total Energy =                       -344.9046483976667332
    Molecular point group: c1
  Basis Set: 6-31G*
  Basis Set:

  -Total Gradient:
     Atom            X                  Y                   Z
    ------   -----------------  -----------------  -----------------
       1       -0.000394493850     0.000390745788    -0.006584337764
       2        0.000090473569    -0.001355373511     0.012208385874
       3        0.000005120273     0.000034554141    -0.000046286322
       4        0.001215999597     0.002557425213    -0.010369450349
       5       -0.000002202447    -0.000011298531    -0.000007574004
       6        0.000007408998     0.000002617886    -0.000005790930
       7        0.000004496091     0.000001887365    -0.000011545258
       8       -0.000007675691     0.000006429015     0.000001713861
       9        0.000001702437    -0.000003670183     0.000001939453
      10       -0.000002725017     0.000005713103     0.000003579824
      11       -0.000000090106     0.000001510912    -0.000000701662
      12       -0.000003835622    -0.000001786043     0.000001103451
      13        0.000002443804    -0.000000058348    -0.000002146262
      14       -0.000950032950    -0.001651956179     0.004854746431
      15       -0.000008744767     0.000005597668    -0.000013757428
      16        0.000008333284     0.000002308125    -0.000014065656
      17        0.000033822392     0.000015353580    -0.000015813260

  **** Optimization is complete! (in 8 steps) ****
    Final optimized geometry and variables:
    Molecular point group: c1

    Geometry (in Angstrom), charge = 0, multiplicity = 1:

    O            0.747995730239     1.318456345037     0.064131490128
    C            0.579698378130     0.144252300471    -0.002579326220
    C           -0.760837225522    -0.547057100573    -0.043869507496
    O            1.576879243441    -0.728602534300    -0.109290012223
    C           -1.941610768562     0.417830205937    -0.094553655409
    H           -0.758490140371    -1.214862060851    -0.900583376485
    H           -0.818711690128    -1.190083882178     0.831101225538
    C           -3.281552629726    -0.315738121145    -0.125583040204
    H           -1.847495002502     1.052541156553    -0.969450661273
    H           -1.900773736287     1.078907752558     0.764197792597
    H           -3.359425243870    -0.961453485342    -0.995849402798
    H           -4.107080768382     0.387497159780    -0.161948209160
    H           -3.414175514327    -0.934835665532     0.757391332718
    C            2.863233796542    -0.287509997133     0.286485198857
    H            3.220289894976     0.493410039098    -0.368796912093
    H            3.505762377685    -1.151746686281     0.221706883590
    H            2.838713568142     0.083084714356     1.301987887820

  Mulliken Charges: (a.u.)
   Center  Symbol    Alpha    Beta     Spin     Total
       1     O     4.28287  4.28287  0.00000 -0.56574
       2     C     2.60592  2.60592  0.00000  0.78815
       3     C     3.20698  3.20698  0.00000 -0.41396
       4     O     4.30801  4.30801  0.00000 -0.61602
       5     C     3.15210  3.15210  0.00000 -0.30421
       6     H     0.39981  0.39981  0.00000  0.20039
       7     H     0.40239  0.40239  0.00000  0.19521
       8     C     3.24274  3.24274  0.00000 -0.48547
       9     H     0.41153  0.41153  0.00000  0.17693
      10     H     0.41016  0.41016  0.00000  0.17968
      11     H     0.42117  0.42117  0.00000  0.15765
      12     H     0.41510  0.41510  0.00000  0.16980
      13     H     0.42153  0.42153  0.00000  0.15695
      14     C     3.09278  3.09278  0.00000 -0.18557
      15     H     0.40626  0.40626  0.00000  0.18748
      16     H     0.40792  0.40792  0.00000  0.18415
      17     H     0.41272  0.41272  0.00000  0.17456

   Total alpha = 28.00000, Total beta = 28.00000, Total charge = -0.00000
