  ==> Input File <==

--------------------------------------------------------------------------
set {
	reference rhf
	basis 6-31G*
}

set_num_threads( 1 )
memory 2 gb

molecule MOL {
0 1

H	 2.812501	 0.366391	 1.557598
O	 2.111108	 0.914974	 1.236983
C	 1.135793	 0.118896	 0.612333
C	 0.031547	 1.023609	 0.088541
H	 0.712054	 -0.590270	 1.321147
H	 1.575817	 -0.457932	 -0.198069
C	 -1.134819	 0.293262	 -0.585751
H	 0.474374	 1.714721	 -0.623187
H	 -0.338529	 1.620940	 0.920081
C	 -1.917817	 -0.639439	 0.339494
H	 -0.758119	 -0.268455	 -1.433105
H	 -1.813832	 1.041889	 -0.986690
H	 -2.777680	 -1.057197	 -0.174994
H	 -1.310268	 -1.471279	 0.680599
H	 -2.283753	 -0.111424	 1.216626

	symmetry c1
}
set optking {
	frozen_dihedral = ("
		8 4 7 11,
		1 2 3 4
	")
}

ee = energy('scf')
oeprop('DIPOLE', 'QUADRUPOLE', 'MULLIKEN_CHARGES')
f=open( 'psi4out.xyz', 'w' )
f.write( "15  " )
f.write( str(ee) + "\n" )
f.write( MOL.save_string_xyz() )
f.close()
--------------------------------------------------------------------------

    Molecular point group: c1

    Geometry (in Angstrom), charge = 0, multiplicity = 1:

       Center              X                  Y                   Z               Mass
    ------------   -----------------  -----------------  -----------------  -----------------
           H          2.712505348122     0.029097294050     1.185821141091     1.007825032070
           O          2.011112348122     0.577680294050     0.865206141091    15.994914619560
           C          1.035797348122    -0.218397705950     0.240556141091    12.000000000000
           C         -0.068448651878     0.686315294050    -0.283235858909    12.000000000000
           H          0.612058348122    -0.927563705950     0.949370141091     1.007825032070
           H          1.475821348122    -0.795225705950    -0.569845858909     1.007825032070
           C         -1.234814651878    -0.044031705950    -0.957527858909    12.000000000000
           H          0.374378348122     1.377427294050    -0.994963858909     1.007825032070
           H         -0.438524651878     1.283646294050     0.548304141091     1.007825032070
           C         -2.017812651878    -0.976732705950    -0.032282858909    12.000000000000
           H         -0.858114651878    -0.605748705950    -1.804881858909     1.007825032070
           H         -1.913827651878     0.704595294050    -1.358466858909     1.007825032070
           H         -2.877675651878    -1.394490705950    -0.546770858909     1.007825032070
           H         -1.410263651878    -1.808572705950     0.308822141091     1.007825032070
           H         -2.383748651878    -0.448717705950     0.844849141091     1.007825032070

  Charge       = 0
  Multiplicity = 1
  Basis Set: 6-31G*
  Basis Set:

    Orbital Energies (a.u.)
    -----------------------

    Doubly Occupied:

       1A    -20.552149     2A    -11.266899     3A    -11.218809
       4A    -11.211610     5A    -11.211256     6A     -1.358410
       7A     -1.070315     8A     -0.970806     9A     -0.870557
      10A     -0.783504    11A     -0.694520    12A     -0.652020
      13A     -0.619372    14A     -0.581809    15A     -0.556995
      16A     -0.538442    17A     -0.507521    18A     -0.474337
      19A     -0.472652    20A     -0.456818    21A     -0.432107

  @DF-RHF Final Energy:  -232.14294116595886

   => Energetics <=

    Nuclear Repulsion Energy =            188.1552245811507760
    One-Electron Energy =                -687.5945124620399156
    Two-Electron Energy =                 267.2963467149301664
    DFT Exchange-Correlation Energy =       0.0000000000000000
    Empirical Dispersion Energy =           0.0000000000000000
    PCM Polarization Energy =               0.0000000000000000
    EFP Energy =                            0.0000000000000000
    Total Energy =                       -232.1429411659589732

  Mulliken Charges: (a.u.)
   Center  Symbol    Alpha    Beta     Spin     Total
       1     H     0.28093  0.28093  0.00000  0.43815
       2     O     4.37163  4.37163  0.00000 -0.74325
       3     C     2.99184  2.99184  0.00000  0.01632
       4     C     3.15997  3.15997  0.00000 -0.31994
       5     H     0.43134  0.43134  0.00000  0.13731
       6     H     0.43304  0.43304  0.00000  0.13392
       7     C     3.15960  3.15960  0.00000 -0.31919
       8     H     0.41420  0.41420  0.00000  0.17160
       9     H     0.41540  0.41540  0.00000  0.16921
      10     C     3.24237  3.24237  0.00000 -0.48475
      11     H     0.42237  0.42237  0.00000  0.15526
      12     H     0.41745  0.41745  0.00000  0.16510
      13     H     0.41815  0.41815  0.00000  0.16371
      14     H     0.42194  0.42194  0.00000  0.15612
      15     H     0.41979  0.41979  0.00000  0.16043

   Total alpha = 21.00000, Total beta = 21.00000, Total charge =  0.00000
