  ==> Input File <==

--------------------------------------------------------------------------
set {
	reference rhf
	basis 6-31G*
}

set_num_threads( 1 )
memory 2 gb

molecule MOL {
0 1

H	 -1.338678	 -0.491342	 -0.670974
N	 -0.626943	 -0.667432	 -0.000092
C	 -0.814774	 -1.762323	 0.924380
C	 0.469286	 0.129090	 0.000148
H	 -1.705521	 -1.614430	 1.525798
H	 0.043574	 -1.805059	 1.574872
H	 -0.903939	 -2.706002	 0.396600
C	 1.788933	 -0.616240	 -0.000037
O	 0.411098	 1.327768	 -0.000049
H	 1.872803	 -1.245775	 -0.880381
H	 2.595421	 0.101576	 0.003713
H	 1.870096	 -1.252171	 0.875943

	symmetry c1
}
set optking {
	frozen_dihedral = ("
		4 2 3 5
	")
}

ee = energy('scf')
oeprop('DIPOLE', 'QUADRUPOLE', 'MULLIKEN_CHARGES')
f=open( 'psi4out.xyz', 'w' )
f.write( "12  " )
f.write( str(ee) + "\n" )
f.write( MOL.save_string_xyz() )
f.close()
--------------------------------------------------------------------------

    Molecular point group: c1

    Geometry (in Angstrom), charge = 0, multiplicity = 1:

       Center              X                  Y                   Z               Mass
    ------------   -----------------  -----------------  -----------------  -----------------
           H         -1.579195777529    -0.160266620742    -0.861788151521     1.007825032070
           N         -0.867460777529    -0.336356620742    -0.190906151521    14.003074004780
           C         -1.055291777529    -1.431247620742     0.733565848479    12.000000000000
           C          0.228768222471     0.460165379258    -0.190666151521    12.000000000000
           H         -1.946038777529    -1.283354620742     1.334983848479     1.007825032070
           H         -0.196943777529    -1.473983620742     1.384057848479     1.007825032070
           H         -1.144456777529    -2.374926620742     0.205785848479     1.007825032070
           C          1.548415222471    -0.285164620742    -0.190851151521    12.000000000000
           O          0.170580222471     1.658843379258    -0.190863151521    15.994914619560
           H          1.632285222471    -0.914699620742    -1.071195151521     1.007825032070
           H          2.354903222471     0.432651379258    -0.187101151521     1.007825032070
           H          1.629578222471    -0.921095620742     0.685128848479     1.007825032070

  Charge       = 0
  Multiplicity = 1
  Basis Set: 6-31G*
  Basis Set:

    Orbital Energies (a.u.)
    -----------------------

    Doubly Occupied:

       1A    -20.531205     2A    -15.562440     3A    -11.345307
       4A    -11.267011     5A    -11.225688     6A     -1.389608
       7A     -1.226940     8A     -1.002671     9A     -0.949730
      10A     -0.785960    11A     -0.677950    12A     -0.657478
      13A     -0.638330    14A     -0.594193    15A     -0.581010
      16A     -0.564284    17A     -0.556466    18A     -0.491988
      19A     -0.418258    20A     -0.376771

  @DF-RHF Final Energy:  -246.97810341948048

   => Energetics <=

    Nuclear Repulsion Energy =            181.6958595659110642
    One-Electron Energy =                -695.6612842034489859
    Two-Electron Energy =                 266.9873212180568771
    DFT Exchange-Correlation Energy =       0.0000000000000000
    Empirical Dispersion Energy =           0.0000000000000000
    PCM Polarization Energy =               0.0000000000000000
    EFP Energy =                            0.0000000000000000
    Total Energy =                       -246.9781034194810445

  Mulliken Charges: (a.u.)
   Center  Symbol    Alpha    Beta     Spin     Total
       1     H     0.30623  0.30623  0.00000  0.38753
       2     N     3.89308  3.89308  0.00000 -0.78616
       3     C     3.13720  3.13720  0.00000 -0.27439
       4     C     2.65187  2.65187  0.00000  0.69626
       5     H     0.40866  0.40866  0.00000  0.18268
       6     H     0.41265  0.41265  0.00000  0.17471
       7     H     0.41729  0.41729  0.00000  0.16541
       8     C     3.28655  3.28655  0.00000 -0.57311
       9     O     4.27286  4.27286  0.00000 -0.54572
      10     H     0.40554  0.40554  0.00000  0.18891
      11     H     0.39715  0.39715  0.00000  0.20571
      12     H     0.41092  0.41092  0.00000  0.17816

   Total alpha = 20.00000, Total beta = 20.00000, Total charge = -0.00000
