  ==> Input File <==

--------------------------------------------------------------------------
set {
	reference rhf
	basis cc-pvtz
}

set_num_threads( 4 )
memory 2 gb

molecule MOL {
0 1

H	 2.342730	 0.877684	 -1.045694
C	 2.360424	 0.000000	 -0.411793
C	 1.173749	 0.000000	 0.526870
H	 3.286567	 0.000000	 0.151574
H	 2.342730	 -0.877684	 -1.045694
O	 -0.000000	 0.000000	 -0.223739
H	 1.203779	 0.876757	 1.172538
H	 1.203779	 -0.876757	 1.172538
C	 -1.173749	 0.000000	 0.526870
C	 -1.442320	 -1.403618	 1.023872
H	 -2.006202	 0.350007	 -0.082235
H	 -1.078994	 0.685983	 1.367667
H	 -1.551999	 -2.086572	 0.190795
H	 -2.352834	 -1.427513	 1.611679
H	 -0.623810	 -1.750241	 1.642230

	symmetry c1
}
set optking {
	frozen_dihedral = ("
		11 9 6 3
	")
}

ee = optimize('scf')
oeprop('DIPOLE', 'QUADRUPOLE', 'MULLIKEN_CHARGES')
f=open( 'psi4out.xyz', 'w' )
f.write( "15  " )
f.write( str(ee) + "\n" )
f.write( MOL.save_string_xyz() )
f.close()
--------------------------------------------------------------------------

    Molecular point group: c1
  Charge       = 0
  Multiplicity = 1
  Basis Set: CC-PVTZ
  Basis Set:
  @DF-RHF Final Energy:  -232.22853056390656
    Total Energy =                       -232.2285305639067019
    Molecular point group: c1
  Basis Set: CC-PVTZ
  Basis Set:
  Basis Set: CC-PVTZ
  Basis Set:
  @DF-RHF Final Energy:  -232.23007297347763
    Total Energy =                       -232.2300729734775473
  Basis Set: CC-PVTZ
  Basis Set:
  Basis Set: CC-PVTZ
  Basis Set:
  @DF-RHF Final Energy:  -232.23073391260127
    Total Energy =                       -232.2307339126011811
  Basis Set: CC-PVTZ
  Basis Set:
  Basis Set: CC-PVTZ
  Basis Set:
  @DF-RHF Final Energy:  -232.23075238671356
    Total Energy =                       -232.2307523867135615
  Basis Set: CC-PVTZ
  Basis Set:
  Basis Set: CC-PVTZ
  Basis Set:
  @DF-RHF Final Energy:  -232.23075344924359
    Total Energy =                       -232.2307534492433660
  Basis Set: CC-PVTZ
  Basis Set:
  Charge       = 0
  Multiplicity = 1
  Basis Set: CC-PVTZ
  Basis Set:

    Orbital Energies (a.u.)
    -----------------------

    Doubly Occupied:

       1A    -20.543861     2A    -11.266224     3A    -11.265700
       4A    -11.209187     5A    -11.206680     6A     -1.378137
       7A     -1.041637     8A     -0.987003     9A     -0.863125
      10A     -0.812741    11A     -0.674490    12A     -0.648511
      13A     -0.645561    14A     -0.576451    15A     -0.550048
      16A     -0.544864    17A     -0.524122    18A     -0.502677
      19A     -0.487604    20A     -0.458168    21A     -0.410665

  @DF-RHF Final Energy:  -232.23075352310627

   => Energetics <=

    Nuclear Repulsion Energy =            192.7570405735145869
    One-Electron Energy =                -696.7806744196460613
    Two-Electron Energy =                 271.7928803230249741
    DFT Exchange-Correlation Energy =       0.0000000000000000
    Empirical Dispersion Energy =           0.0000000000000000
    PCM Polarization Energy =               0.0000000000000000
    EFP Energy =                            0.0000000000000000
    Total Energy =                       -232.2307535231065003
    Molecular point group: c1
  Basis Set: CC-PVTZ
  Basis Set:

  -Total Gradient:
     Atom            X                  Y                   Z
    ------   -----------------  -----------------  -----------------
       1        0.000000700785     0.000001377447    -0.000002294100
       2        0.000006369005    -0.000002581371     0.000001469804
       3        0.000010284643    -0.000040299131    -0.000002222793
       4       -0.000000729846     0.000001623652    -0.000001655177
       5        0.000001474873     0.000000992502    -0.000000047825
       6        0.000005097594     0.000038460323     0.000003062386
       7       -0.000002465872     0.000001547904    -0.000002100688
       8       -0.000004677278     0.000001737617     0.000002291323
       9       -0.000017254398     0.000034144369     0.000004087894
      10        0.000011528536    -0.000003535475     0.000002437011
      11       -0.000012289488    -0.000028686470    -0.000008586714
      12       -0.000000311631    -0.000003457866     0.000000778886
      13       -0.000001168606     0.000001666853     0.000000872313
      14        0.000004134982     0.000003449290    -0.000003312140
      15       -0.000000693301    -0.000006439644     0.000005219820

  **** Optimization is complete! (in 6 steps) ****
    Final optimized geometry and variables:
    Molecular point group: c1

    Geometry (in Angstrom), charge = 0, multiplicity = 1:

    H            2.121808518756     1.257865433484    -1.332180825507
    C            2.191150170331     0.354621397996    -0.739020852208
    C            1.028155047452     0.262753165438     0.225060005924
    H            3.130000857547     0.367874178947    -0.196870307095
    H            2.194110155900    -0.494119825035    -1.411546678988
    O           -0.159762389732     0.254065365890    -0.505995196770
    H            1.036662011532     1.112290363692     0.906605255153
    H            1.118830311009    -0.637024003839     0.828531874876
    C           -1.343657509490     0.256474960969     0.234122747827
    C           -1.723762396779    -1.113110340031     0.774970513422
    H           -2.116230067629     0.605078979144    -0.438771633813
    H           -1.273999905801     0.975888683168     1.048194818288
    H           -1.792257978282    -1.830918787585    -0.033503458599
    H           -2.688163235591    -1.060194873301     1.268564834765
    H           -1.003687989458    -1.480104333647     1.496030244594

  Mulliken Charges: (a.u.)
   Center  Symbol    Alpha    Beta     Spin     Total
       1     H     0.45132  0.45132  0.00000  0.09737
       2     C     3.13516  3.13516  0.00000 -0.27031
       3     C     2.96666  2.96666  0.00000  0.06668
       4     H     0.45943  0.45943  0.00000  0.08113
       5     H     0.45134  0.45134  0.00000  0.09732
       6     O     4.18272  4.18272  0.00000 -0.36544
       7     H     0.47275  0.47275  0.00000  0.05450
       8     H     0.47285  0.47285  0.00000  0.05431
       9     C     2.98200  2.98200  0.00000  0.03599
      10     C     3.14506  3.14506  0.00000 -0.29012
      11     H     0.44964  0.44964  0.00000  0.10072
      12     H     0.47160  0.47160  0.00000  0.05681
      13     H     0.45033  0.45033  0.00000  0.09934
      14     H     0.45276  0.45276  0.00000  0.09447
      15     H     0.45639  0.45639  0.00000  0.08723

   Total alpha = 21.00000, Total beta = 21.00000, Total charge = -0.00000
