  ==> Input File <==

--------------------------------------------------------------------------
set {
	reference rhf
	basis 6-31G*
}

set_num_threads( 1 )
memory 2 gb

molecule MOL {
0 1

O	 1.214711	 1.306902	 -0.000018
C	 1.122059	 0.121804	 -0.000188
C	 -0.170150	 -0.657997	 -0.000612
O	 2.172624	 -0.688929	 0.000216
C	 -1.412532	 0.227344	 -0.000452
H	 -0.153702	 -1.313099	 -0.867402
H	 -0.153924	 -1.313811	 0.865644
C	 -1.838648	 0.630937	 1.411958
H	 -2.225326	 -0.295605	 -0.494815
H	 -1.219892	 1.115266	 -0.594580
C	 -3.081992	 1.519202	 1.421294
H	 -2.029636	 -0.262395	 2.003192
H	 -1.019754	 1.152212	 1.903646
H	 -3.928444	 1.012584	 0.966859
H	 -3.362882	 1.790630	 2.434064
H	 -2.911146	 2.437551	 0.867140
C	 3.452279	 -0.082609	 0.000533
H	 3.583069	 0.529321	 -0.880332
H	 4.163299	 -0.894027	 0.001117
H	 3.582335	 0.529955	 0.881077

	symmetry c1
}
set optking {
	frozen_dihedral = ("
		9 5 8 12,
		1 2 3 6,
		1 2 4 17
	")
}

ee = energy('scf')
oeprop('DIPOLE', 'QUADRUPOLE', 'MULLIKEN_CHARGES')
f=open( 'psi4out.xyz', 'w' )
f.write( "20  " )
f.write( str(ee) + "\n" )
f.write( MOL.save_string_xyz() )
f.close()
--------------------------------------------------------------------------

    Molecular point group: c1

    Geometry (in Angstrom), charge = 0, multiplicity = 1:

       Center              X                  Y                   Z               Mass
    ------------   -----------------  -----------------  -----------------  -----------------
           O          0.996662283876     1.000982274770    -0.354371002370    15.994914619560
           C          0.904010283876    -0.184115725230    -0.354541002370    12.000000000000
           C         -0.388198716124    -0.963916725230    -0.354965002370    12.000000000000
           O          1.954575283876    -0.994848725230    -0.354137002370    15.994914619560
           C         -1.630580716124    -0.078575725230    -0.354805002370    12.000000000000
           H         -0.371750716124    -1.619018725230    -1.221755002370     1.007825032070
           H         -0.371972716124    -1.619730725230     0.511290997630     1.007825032070
           C         -2.056696716124     0.325017274770     1.057604997630    12.000000000000
           H         -2.443374716124    -0.601524725230    -0.849168002370     1.007825032070
           H         -1.437940716124     0.809346274770    -0.948933002370     1.007825032070
           C         -3.300040716124     1.213282274770     1.066940997630    12.000000000000
           H         -2.247684716124    -0.568314725230     1.648838997630     1.007825032070
           H         -1.237802716124     0.846292274770     1.549292997630     1.007825032070
           H         -4.146492716124     0.706664274770     0.612505997630     1.007825032070
           H         -3.580930716124     1.484710274770     2.079710997630     1.007825032070
           H         -3.129194716124     2.131631274770     0.512786997630     1.007825032070
           C          3.234230283876    -0.388528725230    -0.353820002370    12.000000000000
           H          3.365020283876     0.223401274770    -1.234685002370     1.007825032070
           H          3.945250283876    -1.199946725230    -0.353236002370     1.007825032070
           H          3.364286283876     0.224035274770     0.526723997630     1.007825032070

  Charge       = 0
  Multiplicity = 1
  Basis Set: 6-31G*
  Basis Set:

    Orbital Energies (a.u.)
    -----------------------

    Doubly Occupied:

       1A    -20.604598     2A    -20.546678     3A    -11.373188
       4A    -11.281464     5A    -11.235065     6A    -11.217996
       7A    -11.215031     8A    -11.206778     9A     -1.470352
      10A     -1.364059    11A     -1.087265    12A     -1.021852
      13A     -0.968716    14A     -0.883651    15A     -0.805028
      16A     -0.766652    17A     -0.703669    18A     -0.680850
      19A     -0.672765    20A     -0.628758    21A     -0.608045
      22A     -0.587605    23A     -0.578378    24A     -0.545351
      25A     -0.530133    26A     -0.515209    27A     -0.512271
      28A     -0.476983    29A     -0.470095    30A     -0.460816
      31A     -0.455992    32A     -0.438750

  @DF-RHF Final Energy:  -383.94001648982533

   => Energetics <=

    Nuclear Repulsion Energy =            387.5971520007801701
    One-Electron Energy =               -1291.2462926401967707
    Two-Electron Energy =                 519.7091241495905933
    DFT Exchange-Correlation Energy =       0.0000000000000000
    Empirical Dispersion Energy =           0.0000000000000000
    PCM Polarization Energy =               0.0000000000000000
    EFP Energy =                            0.0000000000000000
    Total Energy =                       -383.9400164898260073

  Mulliken Charges: (a.u.)
   Center  Symbol    Alpha    Beta     Spin     Total
       1     O     4.28608  4.28608  0.00000 -0.57216
       2     C     2.60716  2.60716  0.00000  0.78569
       3     C     3.21008  3.21008  0.00000 -0.42016
       4     O     4.30650  4.30650  0.00000 -0.61299
       5     C     3.15661  3.15661  0.00000 -0.31322
       6     H     0.39769  0.39769  0.00000  0.20461
       7     H     0.39960  0.39960  0.00000  0.20080
       8     C     3.15565  3.15565  0.00000 -0.31131
       9     H     0.41941  0.41941  0.00000  0.16118
      10     H     0.40332  0.40332  0.00000  0.19337
      11     C     3.24040  3.24040  0.00000 -0.48080
      12     H     0.42531  0.42531  0.00000  0.14938
      13     H     0.41316  0.41316  0.00000  0.17369
      14     H     0.42304  0.42304  0.00000  0.15391
      15     H     0.41914  0.41914  0.00000  0.16172
      16     H     0.41811  0.41811  0.00000  0.16378
      17     C     3.09240  3.09240  0.00000 -0.18481
      18     H     0.40898  0.40898  0.00000  0.18205
      19     H     0.40832  0.40832  0.00000  0.18337
      20     H     0.40904  0.40904  0.00000  0.18192

   Total alpha = 32.00000, Total beta = 32.00000, Total charge =  0.00000
