  ==> Input File <==

--------------------------------------------------------------------------
set {
	reference rhf
	basis 6-31G*
}

set_num_threads( 4 )
memory 2 gb

molecule MOL {
0 1

O	 3.225979	 0.970355	 -0.599647
C	 2.701189	 0.057885	 -0.047330
C	 1.245376	 -0.013843	 0.345420
O	 3.347903	 -1.046386	 0.304773
C	 0.455112	 1.231400	 -0.050772
H	 0.838542	 -0.913825	 -0.103701
H	 1.208210	 -0.175333	 1.419774
C	 -0.998893	 1.219485	 0.433193
H	 0.482531	 1.345121	 -1.130325
H	 0.957290	 2.103070	 0.354729
C	 -1.883438	 0.145884	 -0.207175
H	 -1.431207	 2.195402	 0.224832
H	 -1.019646	 1.105716	 1.516076
C	 -3.347647	 0.245583	 0.225435
H	 -1.822183	 0.231698	 -1.291012
H	 -1.510341	 -0.844814	 0.042401
C	 -3.520285	 0.621451	 1.698204
H	 -3.843821	 -0.705067	 0.037522
H	 -3.856941	 0.981852	 -0.394425
C	 -4.985336	 0.715175	 2.123107
H	 -3.011100	 -0.112710	 2.318994
H	 -3.028716	 1.573549	 1.887017
H	 -5.074951	 0.983098	 3.171340
H	 -5.496637	 -0.232480	 1.979174
H	 -5.514436	 1.466351	 1.543398
C	 4.728119	 -1.109107	 -0.004993
H	 4.882018	 -1.033965	 -1.071845
H	 5.068212	 -2.067527	 0.355250
H	 5.265056	 -0.311663	 0.488280

	symmetry c1
}
set optking {
	frozen_dihedral = ("
		17 14 11 15
	")
}

ee = optimize('scf')
oeprop('DIPOLE', 'QUADRUPOLE', 'MULLIKEN_CHARGES')
f=open( 'psi4out.xyz', 'w' )
f.write( "29  " )
f.write( str(ee) + "\n" )
f.write( MOL.save_string_xyz() )
f.close()
--------------------------------------------------------------------------

    Molecular point group: c1
  Charge       = 0
  Multiplicity = 1
  Basis Set: 6-31G*
  Basis Set:
  @DF-RHF Final Energy:  -501.03769069961515
    Total Energy =                       -501.0376906996162916
    Molecular point group: c1
  Basis Set: 6-31G*
  Basis Set:
  Basis Set: 6-31G*
  Basis Set:
  @DF-RHF Final Energy:  -501.03834222733633
    Total Energy =                       -501.0383422273359884
  Basis Set: 6-31G*
  Basis Set:
  Basis Set: 6-31G*
  Basis Set:
  @DF-RHF Final Energy:  -501.03963815084740
    Total Energy =                       -501.0396381508473951
  Basis Set: 6-31G*
  Basis Set:
  Basis Set: 6-31G*
  Basis Set:
  @DF-RHF Final Energy:  -501.03968182772405
    Total Energy =                       -501.0396818277238253
  Basis Set: 6-31G*
  Basis Set:
  @DF-RHF Final Energy:  -501.03977160422471
    Total Energy =                       -501.0397716042252796
  Basis Set: 6-31G*
  Basis Set:
  @DF-RHF Final Energy:  -501.03978489017948
    Total Energy =                       -501.0397848901790212
  Basis Set: 6-31G*
  Basis Set:
  Basis Set: 6-31G*
  Basis Set:
  @DF-RHF Final Energy:  -501.03978180459558
    Total Energy =                       -501.0397818045953500
  Basis Set: 6-31G*
  Basis Set:
  Basis Set: 6-31G*
  Basis Set:
  @DF-RHF Final Energy:  -501.03979249338170
    Total Energy =                       -501.0397924933813556
  Basis Set: 6-31G*
  Basis Set:
  Charge       = 0
  Multiplicity = 1
  Basis Set: 6-31G*
  Basis Set:

    Orbital Energies (a.u.)
    -----------------------

    Doubly Occupied:

       1A    -20.603335     2A    -20.545155     3A    -11.371960
       4A    -11.280635     5A    -11.234679     6A    -11.218927
       7A    -11.217200     8A    -11.216530     9A    -11.215629
      10A    -11.214934    11A    -11.209018    12A     -1.469027
      13A     -1.362471    14A     -1.097855    15A     -1.065424
      16A     -1.017449    17A     -0.976652    18A     -0.928778
      19A     -0.862234    20A     -0.818637    21A     -0.774856
      22A     -0.758107    23A     -0.700874    24A     -0.682269
      25A     -0.671791    26A     -0.647950    27A     -0.626684
      28A     -0.604234    29A     -0.598787    30A     -0.581196
      31A     -0.564765    32A     -0.554730    33A     -0.545281
      34A     -0.524169    35A     -0.514760    36A     -0.507080
      37A     -0.493045    38A     -0.484169    39A     -0.476796
      40A     -0.456796    41A     -0.451377    42A     -0.448918
      43A     -0.443724    44A     -0.436915

  @DF-RHF Final Energy:  -501.03979259886933

   => Energetics <=

    Nuclear Repulsion Energy =            615.6940758130660925
    One-Electron Energy =               -1902.5161330826890662
    Two-Electron Energy =                 785.7822646707538752
    DFT Exchange-Correlation Energy =       0.0000000000000000
    Empirical Dispersion Energy =           0.0000000000000000
    PCM Polarization Energy =               0.0000000000000000
    EFP Energy =                            0.0000000000000000
    Total Energy =                       -501.0397925988690986
    Molecular point group: c1
  Basis Set: 6-31G*
  Basis Set:

  -Total Gradient:
     Atom            X                  Y                   Z
    ------   -----------------  -----------------  -----------------
       1       -0.000002991860     0.000013915544     0.000029963073
       2       -0.000021712370    -0.000036635446    -0.000064026232
       3        0.000021120206     0.000012722656     0.000019829867
       4        0.000008989671     0.000004480572     0.000021213536
       5       -0.000003909810    -0.000015722894    -0.000079895284
       6        0.000022740702     0.000018817927    -0.000002312517
       7       -0.000002848684    -0.000003194992     0.000002258403
       8        0.000014058774    -0.000003714024     0.000051317234
       9        0.000019763772     0.000009740582     0.000001410681
      10        0.000013378332    -0.000006621824     0.000000123075
      11       -0.000660040295    -0.004997071939    -0.000962785885
      12       -0.000005881603    -0.000020321771     0.000000128176
      13       -0.000017737004     0.000018537482     0.000007219111
      14       -0.000024373086    -0.004662759278     0.001704280316
      15        0.000578242427     0.005596317943     0.000381230926
      16       -0.000023288668     0.000014106659     0.000007999221
      17        0.000086785369     0.004040587134    -0.001118925702
      18        0.000005955296     0.000002198330    -0.000008445773
      19       -0.000002552333    -0.000007973175     0.000006884270
      20       -0.000001658582     0.000032852760    -0.000016214574
      21       -0.000010776160    -0.000014458411    -0.000007432110
      22        0.000005014465    -0.000001295914     0.000020560367
      23        0.000001996405     0.000019089053    -0.000004957789
      24        0.000006617869    -0.000002879166     0.000017006223
      25       -0.000007146489    -0.000012502743    -0.000010370566
      26        0.000000439782     0.000002488900     0.000005553462
      27       -0.000002142600     0.000000183094    -0.000000225741
      28       -0.000000055551    -0.000000282042    -0.000000378620
      29        0.000002012036    -0.000000605013    -0.000001007144

  **** Optimization is complete! (in 9 steps) ****
    Final optimized geometry and variables:
    Molecular point group: c1

    Geometry (in Angstrom), charge = 0, multiplicity = 1:

    O            3.104914602188     0.686131115440    -1.060968961596
    C            2.600118008788    -0.216172464327    -0.474370998169
    C            1.160876920201    -0.277287862303    -0.023159864691
    O            3.257620066561    -1.316768618090    -0.130808602116
    C            0.358559390131     0.964150025824    -0.407307675752
    H            0.734368074525    -1.182892176337    -0.441611450309
    H            1.166045733479    -0.421871232813     1.054253582356
    C           -1.072333293100     0.968412894912     0.142795574161
    H            0.338837244302     1.057522429627    -1.489007967820
    H            0.881953724876     1.840622345884    -0.040790616250
    C           -1.974170708886    -0.127538760144    -0.441668268923
    H           -1.512336470419     1.938627269171    -0.077749868181
    H           -1.037187657175     0.890436584458     1.226531412340
    C           -3.466428076712     0.004333785723    -0.086630320742
    H           -1.880092790229    -0.063924470636    -1.523604689999
    H           -1.612733628340    -1.106022952021    -0.138077876500
    C           -3.782226470932     0.413577454424     1.355165729562
    H           -3.963117718842    -0.936650137954    -0.311061206129
    H           -3.915818095706     0.743876881810    -0.747621575482
    C           -5.284486906881     0.422880988570     1.638441302220
    H           -3.291314911478    -0.266844729363     2.049071049857
    H           -3.377807296218     1.400469362802     1.556052628752
    H           -5.490498454766     0.733856112283     2.658011887681
    H           -5.717092114526    -0.563803209648     1.499391653630
    H           -5.804019876041     1.106923542768     0.973067911160
    C            4.624366262586    -1.388433397416    -0.493766133617
    H            4.736185573392    -1.330298375289    -1.566907688916
    H            4.976104530881    -2.342178794246    -0.132315509824
    H            5.182286774750    -0.585069943959    -0.034558371204

  Mulliken Charges: (a.u.)
   Center  Symbol    Alpha    Beta     Spin     Total
       1     O     4.28598  4.28598  0.00000 -0.57196
       2     C     2.60481  2.60481  0.00000  0.79039
       3     C     3.20978  3.20978  0.00000 -0.41955
       4     O     4.30748  4.30748  0.00000 -0.61496
       5     C     3.15366  3.15366  0.00000 -0.30731
       6     H     0.39867  0.39867  0.00000  0.20266
       7     H     0.40133  0.40133  0.00000  0.19735
       8     C     3.16061  3.16061  0.00000 -0.32122
       9     H     0.41348  0.41348  0.00000  0.17304
      10     H     0.40872  0.40872  0.00000  0.18257
      11     C     3.15539  3.15539  0.00000 -0.31079
      12     H     0.41871  0.41871  0.00000  0.16258
      13     H     0.42117  0.42117  0.00000  0.15766
      14     C     3.15170  3.15170  0.00000 -0.30340
      15     H     0.42114  0.42114  0.00000  0.15773
      16     H     0.42264  0.42264  0.00000  0.15472
      17     C     3.15494  3.15494  0.00000 -0.30987
      18     H     0.42139  0.42139  0.00000  0.15723
      19     H     0.42362  0.42362  0.00000  0.15275
      20     C     3.23922  3.23922  0.00000 -0.47845
      21     H     0.42425  0.42425  0.00000  0.15149
      22     H     0.41943  0.41943  0.00000  0.16114
      23     H     0.41927  0.41927  0.00000  0.16146
      24     H     0.42180  0.42180  0.00000  0.15641
      25     H     0.42168  0.42168  0.00000  0.15663
      26     C     3.09240  3.09240  0.00000 -0.18480
      27     H     0.40909  0.40909  0.00000  0.18183
      28     H     0.40852  0.40852  0.00000  0.18295
      29     H     0.40914  0.40914  0.00000  0.18173

   Total alpha = 44.00000, Total beta = 44.00000, Total charge =  0.00000
