  ==> Input File <==

--------------------------------------------------------------------------
set {
	reference rhf
	basis cc-pvtz
}

set_num_threads( 4 )
memory 2 gb

molecule MOL {
0 1

H	 -0.238917	 3.337200	 -2.310266
O	 -0.725258	 2.533277	 -2.301285
C	 -0.427838	 1.800476	 -1.145999
C	 0.950913	 1.175373	 -1.223986
H	 -0.498553	 2.415240	 -0.254263
H	 -1.172162	 1.021161	 -1.066416
O	 1.172093	 0.457955	 -0.054438
H	 1.706241	 1.953834	 -1.343884
H	 1.007835	 0.528378	 -2.096759
C	 2.395478	 -0.199028	 -0.000366
H	 2.505946	 -0.901710	 -0.823354
H	 3.174616	 0.545641	 -0.071768
H	 2.513730	 -0.742241	 0.934223

	symmetry c1
}
set optking {
	frozen_dihedral = ("
		4 7 10 13
	")
}

ee = optimize('scf')
oeprop('DIPOLE', 'QUADRUPOLE', 'MULLIKEN_CHARGES')
f=open( 'psi4out.xyz', 'w' )
f.write( "13  " )
f.write( str(ee) + "\n" )
f.write( MOL.save_string_xyz() )
f.close()
--------------------------------------------------------------------------

    Molecular point group: c1
  Charge       = 0
  Multiplicity = 1
  Basis Set: CC-PVTZ
  Basis Set:
  @DF-RHF Final Energy:  -268.06131089629611
    Total Energy =                       -268.0613108962962201
    Molecular point group: c1
  Basis Set: CC-PVTZ
  Basis Set:
  Basis Set: CC-PVTZ
  Basis Set:
  @DF-RHF Final Energy:  -268.06209856891235
    Total Energy =                       -268.0620985689123472
  Basis Set: CC-PVTZ
  Basis Set:
  Basis Set: CC-PVTZ
  Basis Set:
  @DF-RHF Final Energy:  -268.06231072906712
    Total Energy =                       -268.0623107290671214
  Basis Set: CC-PVTZ
  Basis Set:
  Charge       = 0
  Multiplicity = 1
  Basis Set: CC-PVTZ
  Basis Set:

    Orbital Energies (a.u.)
    -----------------------

    Doubly Occupied:

       1A    -20.556092     2A    -20.552895     3A    -11.269310
       4A    -11.267819     5A    -11.267517     6A     -1.392170
       7A     -1.369310     8A     -1.019782     9A     -0.914018
      10A     -0.842893    11A     -0.712098    12A     -0.676610
      13A     -0.663216    14A     -0.639393    15A     -0.597867
      16A     -0.571124    17A     -0.546974    18A     -0.491405
      19A     -0.483504    20A     -0.441747    21A     -0.424842

  @DF-RHF Final Energy:  -268.06231157922917

   => Energetics <=

    Nuclear Repulsion Energy =            190.5170748637157772
    One-Electron Energy =                -743.7576012215399714
    Two-Electron Energy =                 285.1782147785950770
    DFT Exchange-Correlation Energy =       0.0000000000000000
    Empirical Dispersion Energy =           0.0000000000000000
    PCM Polarization Energy =               0.0000000000000000
    EFP Energy =                            0.0000000000000000
    Total Energy =                       -268.0623115792290605
    Molecular point group: c1
  Basis Set: CC-PVTZ
  Basis Set:

  -Total Gradient:
     Atom            X                  Y                   Z
    ------   -----------------  -----------------  -----------------
       1        0.000005799691     0.000009233450    -0.000004367232
       2        0.000092820078    -0.000053073350     0.000063156706
       3       -0.000057850483    -0.000056413955     0.000086104933
       4        0.000103097964    -0.000025092904    -0.000121060751
       5       -0.000013329628     0.000026894782    -0.000003474330
       6       -0.000007742116    -0.000006730189     0.000007766998
       7       -0.000042555679     0.000032653757     0.000027735791
       8        0.000009583762    -0.000009413142     0.000029452060
       9        0.000002925103    -0.000005836445    -0.000014275149
      10        0.000039491808     0.000012818830    -0.000071249347
      11       -0.000040481210     0.000017321707    -0.000009298200
      12       -0.000036153329     0.000025312810    -0.000001201860
      13       -0.000055605962     0.000032324647     0.000010710382

  **** Optimization is complete! (in 4 steps) ****
    Final optimized geometry and variables:
    Molecular point group: c1

    Geometry (in Angstrom), charge = 0, multiplicity = 1:

    H           -0.923171878224     2.161737547892    -1.339813594668
    O           -1.406204258980     1.355776548572    -1.333158322766
    C           -1.104555538912     0.620317600071    -0.180756517412
    C            0.277335388241     0.002747996669    -0.262217287219
    H           -1.177733326292     1.231562609225     0.713219274559
    H           -1.844794363913    -0.163124135208    -0.103499880537
    O            0.502718324087    -0.717242253143     0.904795777728
    H            1.028558668821     0.785528496497    -0.379651986968
    H            0.337141191500    -0.641001210654    -1.137222882567
    C            1.729610092128    -1.367749415816     0.955679561591
    H            1.829429829970    -2.090695416900     0.149542043673
    H            2.555788636955    -0.663151135930     0.890808962883
    H            1.789156232689    -1.888036739031     1.900342895154

  Mulliken Charges: (a.u.)
   Center  Symbol    Alpha    Beta     Spin     Total
       1     H     0.39407  0.39407  0.00000  0.21186
       2     O     4.20213  4.20213  0.00000 -0.40425
       3     C     2.97334  2.97334  0.00000  0.05331
       4     C     2.96511  2.96511  0.00000  0.06978
       5     H     0.46684  0.46684  0.00000  0.06633
       6     H     0.45268  0.45268  0.00000  0.09465
       7     O     4.17537  4.17537  0.00000 -0.35073
       8     H     0.48211  0.48211  0.00000  0.03579
       9     H     0.46957  0.46957  0.00000  0.06086
      10     C     3.03182  3.03182  0.00000 -0.06363
      11     H     0.46981  0.46981  0.00000  0.06037
      12     H     0.47125  0.47125  0.00000  0.05749
      13     H     0.44591  0.44591  0.00000  0.10818

   Total alpha = 21.00000, Total beta = 21.00000, Total charge = -0.00000
