  ==> Input File <==

--------------------------------------------------------------------------
set {
	reference rhf
	basis 6-31G*
}

set_num_threads( 1 )
memory 2 gb

molecule MOL {
0 1

H	 -2.835882	 -0.083948	 0.046364
N	 -1.877375	 0.059520	 0.298667
C	 -1.189835	 0.840777	 -0.714265
H	 -1.449546	 -0.843084	 0.372000
C	 0.265612	 1.014223	 -0.333837
H	 -1.234478	 0.402261	 -1.712119
H	 -1.651877	 1.821764	 -0.768691
O	 0.874168	 -0.245412	 -0.342030
H	 0.763910	 1.675321	 -1.042560
H	 0.334251	 1.459970	 0.656028
C	 2.202317	 -0.244239	 0.074611
H	 2.711377	 -1.041390	 -0.449894
H	 2.692099	 0.699270	 -0.159667
H	 2.283185	 -0.418429	 1.145558

	symmetry c1
}
set optking {
	frozen_dihedral = ("
		8 5 3 6,
		6 3 2 4,
		11 8 5 3
	")
}

ee = energy('scf')
oeprop('DIPOLE', 'QUADRUPOLE', 'MULLIKEN_CHARGES')
f=open( 'psi4out.xyz', 'w' )
f.write( "14  " )
f.write( str(ee) + "\n" )
f.write( MOL.save_string_xyz() )
f.close()
--------------------------------------------------------------------------

    Molecular point group: c1

    Geometry (in Angstrom), charge = 0, multiplicity = 1:

       Center              X                  Y                   Z               Mass
    ------------   -----------------  -----------------  -----------------  -----------------
           H         -2.897905563609    -0.349541961335     0.244827320385     1.007825032070
           N         -1.939398563609    -0.206073961335     0.497130320385    14.003074004780
           C         -1.251858563609     0.575183038665    -0.515801679615    12.000000000000
           H         -1.511569563609    -1.108677961335     0.570463320385     1.007825032070
           C          0.203588436391     0.748629038665    -0.135373679615    12.000000000000
           H         -1.296501563609     0.136667038665    -1.513655679615     1.007825032070
           H         -1.713900563609     1.556170038665    -0.570227679615     1.007825032070
           O          0.812144436391    -0.511005961335    -0.143566679615    15.994914619560
           H          0.701886436391     1.409727038665    -0.844096679615     1.007825032070
           H          0.272227436391     1.194376038665     0.854491320385     1.007825032070
           C          2.140293436391    -0.509832961335     0.273074320385    12.000000000000
           H          2.649353436391    -1.306983961335    -0.251430679615     1.007825032070
           H          2.630075436391     0.433676038665     0.038796320385     1.007825032070
           H          2.221161436391    -0.684022961335     1.344021320385     1.007825032070

  Charge       = 0
  Multiplicity = 1
  Basis Set: 6-31G*
  Basis Set:

    Orbital Energies (a.u.)
    -----------------------

    Doubly Occupied:

       1A    -20.555882     2A    -15.528331     3A    -11.265912
       4A    -11.265681     5A    -11.240607     6A     -1.380834
       7A     -1.173502     8A     -0.998708     9A     -0.907124
      10A     -0.815709    11A     -0.683802    12A     -0.672627
      13A     -0.644482    14A     -0.610126    15A     -0.605122
      16A     -0.540354    17A     -0.532651    18A     -0.495486
      19A     -0.473930    20A     -0.414654    21A     -0.380029

  @DF-RHF Final Energy:  -248.12315568469242

   => Energetics <=

    Nuclear Repulsion Energy =            194.6874218548153692
    One-Electron Energy =                -723.2500142440810578
    Two-Electron Energy =                 280.4394367045733816
    DFT Exchange-Correlation Energy =       0.0000000000000000
    Empirical Dispersion Energy =           0.0000000000000000
    PCM Polarization Energy =               0.0000000000000000
    EFP Energy =                            0.0000000000000000
    Total Energy =                       -248.1231556846922786

  Mulliken Charges: (a.u.)
   Center  Symbol    Alpha    Beta     Spin     Total
       1     H     0.33287  0.33287  0.00000  0.33426
       2     N     3.92526  3.92526  0.00000 -0.85052
       3     C     3.06896  3.06896  0.00000 -0.13792
       4     H     0.32368  0.32368  0.00000  0.35263
       5     C     2.99117  2.99117  0.00000  0.01765
       6     H     0.42668  0.42668  0.00000  0.14664
       7     H     0.42054  0.42054  0.00000  0.15893
       8     O     4.31061  4.31061  0.00000 -0.62123
       9     H     0.43037  0.43037  0.00000  0.13925
      10     H     0.42258  0.42258  0.00000  0.15484
      11     C     3.07747  3.07747  0.00000 -0.15493
      12     H     0.41522  0.41522  0.00000  0.16956
      13     H     0.43023  0.43023  0.00000  0.13955
      14     H     0.42436  0.42436  0.00000  0.15128

   Total alpha = 21.00000, Total beta = 21.00000, Total charge =  0.00000
