  ==> Input File <==

--------------------------------------------------------------------------
set {
	reference rhf
	basis 6-31G*
}

set_num_threads( 4 )
memory 2 gb

molecule MOL {
0 1

H	 -1.748926	 -0.856500	 0.529521
O	 -2.035884	 -0.060112	 0.102722
C	 -0.955155	 0.788182	 -0.092531
C	 0.353668	 0.040312	 -0.004810
H	 -0.985057	 1.290372	 -1.054184
H	 -0.974469	 1.533190	 0.688632
F	 0.394464	 -0.937475	 -0.903053
F	 1.368604	 0.853376	 -0.249821
F	 0.546173	 -0.502608	 1.179981

	symmetry c1
}
set optking {
	frozen_dihedral = ("
		1 2 3 5
	")
}

ee = optimize('scf')
oeprop('DIPOLE', 'QUADRUPOLE', 'MULLIKEN_CHARGES')
f=open( 'psi4out.xyz', 'w' )
f.write( "9  " )
f.write( str(ee) + "\n" )
f.write( MOL.save_string_xyz() )
f.close()
--------------------------------------------------------------------------

    Molecular point group: c1
  Charge       = 0
  Multiplicity = 1
  Basis Set: 6-31G*
  Basis Set:
  @DF-RHF Final Energy:  -450.65761497089090
    Total Energy =                       -450.6576149708910179
    Molecular point group: c1
  Basis Set: 6-31G*
  Basis Set:
  Basis Set: 6-31G*
  Basis Set:
  @DF-RHF Final Energy:  -450.65905569956305
    Total Energy =                       -450.6590556995631118
  Basis Set: 6-31G*
  Basis Set:
  Basis Set: 6-31G*
  Basis Set:
  @DF-RHF Final Energy:  -450.65940946396813
    Total Energy =                       -450.6594094639681316
  Basis Set: 6-31G*
  Basis Set:
  Basis Set: 6-31G*
  Basis Set:
  @DF-RHF Final Energy:  -450.65944241057559
    Total Energy =                       -450.6594424105754797
  Basis Set: 6-31G*
  Basis Set:
  Charge       = 0
  Multiplicity = 1
  Basis Set: 6-31G*
  Basis Set:

    Orbital Energies (a.u.)
    -----------------------

    Doubly Occupied:

       1A    -26.350990     2A    -26.350419     3A    -26.346528
       4A    -20.586911     5A    -11.507964     6A    -11.309726
       7A     -1.747689     8A     -1.646983     9A     -1.643321
      10A     -1.398979    11A     -1.051572    12A     -0.929017
      13A     -0.837180    14A     -0.836025    15A     -0.815372
      16A     -0.722038    17A     -0.719055    18A     -0.684771
      19A     -0.671076    20A     -0.669594    21A     -0.649756
      22A     -0.641563    23A     -0.620910    24A     -0.525115
      25A     -0.477711

  @DF-RHF Final Energy:  -450.65944667290756

   => Energetics <=

    Nuclear Repulsion Energy =            277.4119631246053927
    One-Electron Energy =               -1176.6622884956825601
    Two-Electron Energy =                 448.5908786981695471
    DFT Exchange-Correlation Energy =       0.0000000000000000
    Empirical Dispersion Energy =           0.0000000000000000
    PCM Polarization Energy =               0.0000000000000000
    EFP Energy =                            0.0000000000000000
    Total Energy =                       -450.6594466729076771
    Molecular point group: c1
  Basis Set: 6-31G*
  Basis Set:

  -Total Gradient:
     Atom            X                  Y                   Z
    ------   -----------------  -----------------  -----------------
       1        0.000658768980    -0.001588458321    -0.003020335427
       2       -0.000424850142     0.001425259751     0.003435472293
       3       -0.001844668286     0.002562596854     0.000738439896
       4       -0.000138423759    -0.000089477804     0.000171348225
       5        0.001576064998    -0.002355708243    -0.001050812132
       6       -0.000006441754     0.000047951085    -0.000014900952
       7        0.000143670364    -0.000055128327    -0.000151750448
       8        0.000009209033    -0.000078730788    -0.000018041437
       9        0.000026670568     0.000131695787    -0.000089420015

  **** Optimization is complete! (in 5 steps) ****
    Final optimized geometry and variables:
    Molecular point group: c1

    Geometry (in Angstrom), charge = 0, multiplicity = 1:

    H           -1.787545986562    -0.836654313160     0.595820967271
    O           -2.047612484889    -0.057697792909     0.123298675176
    C           -0.961925409767     0.782683669388    -0.101476920544
    C            0.352772619536     0.043865092814    -0.036410974938
    H           -1.040663248154     1.194156688948    -1.098103810302
    H           -0.924547001903     1.588845595637     0.621943936660
    F            0.456958623812    -0.869394165478    -0.985469370249
    F            1.365463585003     0.880491526511    -0.162308804743
    F            0.485316052664    -0.587845414680     1.124718632739

  Mulliken Charges: (a.u.)
   Center  Symbol    Alpha    Beta     Spin     Total
       1     H     0.27050  0.27050  0.00000  0.45900
       2     O     4.37055  4.37055  0.00000 -0.74110
       3     C     3.02672  3.02672  0.00000 -0.05344
       4     C     2.48475  2.48475  0.00000  1.03050
       5     H     0.40075  0.40075  0.00000  0.19850
       6     H     0.40768  0.40768  0.00000  0.18464
       7     F     4.67669  4.67669  0.00000 -0.35339
       8     F     4.67814  4.67814  0.00000 -0.35629
       9     F     4.68421  4.68421  0.00000 -0.36842

   Total alpha = 25.00000, Total beta = 25.00000, Total charge =  0.00000
