  ==> Input File <==

--------------------------------------------------------------------------
set {
	reference rhf
	basis 6-31G*
}

set_num_threads( 4 )
memory 2 gb

molecule MOL {
0 1

H	 -3.420663	 1.227371	 -1.044276
O	 -3.452007	 0.283848	 -0.965577
C	 -3.181085	 -0.079926	 0.364119
C	 -1.765924	 0.277073	 0.805136
H	 -3.327791	 -1.152017	 0.410903
H	 -3.905698	 0.375695	 1.036898
C	 -0.677594	 -0.417312	 -0.014550
H	 -1.637766	 1.358238	 0.744969
H	 -1.659588	 0.017670	 1.857098
C	 0.738335	 -0.034840	 0.421385
H	 -0.814977	 -0.178223	 -1.064632
H	 -0.802730	 -1.495410	 0.071702
C	 1.794349	 -0.364580	 -0.637005
H	 0.762501	 1.027553	 0.651942
H	 0.984919	 -0.553761	 1.346869
C	 3.239598	 -0.081342	 -0.211345
H	 1.574429	 0.188417	 -1.548885
H	 1.711095	 -1.418322	 -0.894908
C	 3.559371	 1.398466	 0.008469
H	 3.906478	 -0.471562	 -0.976387
H	 3.462582	 -0.637750	 0.696891
H	 3.334137	 1.982282	 -0.880107
H	 4.612371	 1.535846	 0.234644
H	 2.992832	 1.818708	 0.832844

	symmetry c1
}
set optking {
	frozen_dihedral = ("
		13 10 7 11
	")
}

ee = optimize('scf')
oeprop('DIPOLE', 'QUADRUPOLE', 'MULLIKEN_CHARGES')
f=open( 'psi4out.xyz', 'w' )
f.write( "24  " )
f.write( str(ee) + "\n" )
f.write( MOL.save_string_xyz() )
f.close()
--------------------------------------------------------------------------

    Molecular point group: c1
  Charge       = 0
  Multiplicity = 1
  Basis Set: 6-31G*
  Basis Set:
  @DF-RHF Final Energy:  -349.24646874599136
    Total Energy =                       -349.2464687459914785
    Molecular point group: c1
  Basis Set: 6-31G*
  Basis Set:
  Basis Set: 6-31G*
  Basis Set:
  @DF-RHF Final Energy:  -349.24656243187087
    Total Energy =                       -349.2465624318705295
  Basis Set: 6-31G*
  Basis Set:
  Basis Set: 6-31G*
  Basis Set:
  @DF-RHF Final Energy:  -349.24656977120929
    Total Energy =                       -349.2465697712092378
  Basis Set: 6-31G*
  Basis Set:
  Basis Set: 6-31G*
  Basis Set:
  @DF-RHF Final Energy:  -349.24661396101709
    Total Energy =                       -349.2466139610174309
  Basis Set: 6-31G*
  Basis Set:
  Basis Set: 6-31G*
  Basis Set:
  @DF-RHF Final Energy:  -349.24661607380909
    Total Energy =                       -349.2466160738088092
  Basis Set: 6-31G*
  Basis Set:
  Basis Set: 6-31G*
  Basis Set:
  @DF-RHF Final Energy:  -349.24662085294284
    Total Energy =                       -349.2466208529429537
  Basis Set: 6-31G*
  Basis Set:
  Charge       = 0
  Multiplicity = 1
  Basis Set: 6-31G*
  Basis Set:

    Orbital Energies (a.u.)
    -----------------------

    Doubly Occupied:

       1A    -20.553525     2A    -11.267711     3A    -11.217772
       4A    -11.214029     5A    -11.212420     6A    -11.211699
       7A    -11.211134     8A    -11.207484     9A     -1.360134
      10A     -1.088307    11A     -1.048312    12A     -0.985582
      13A     -0.914904    14A     -0.850873    15A     -0.801450
      16A     -0.776256    17A     -0.679358    18A     -0.650204
      19A     -0.627444    20A     -0.618316    21A     -0.598124
      22A     -0.586744    23A     -0.552313    24A     -0.545722
      25A     -0.514092    26A     -0.505785    27A     -0.503030
      28A     -0.470571    29A     -0.468030    30A     -0.458670
      31A     -0.456986    32A     -0.450507    33A     -0.418817

  @DF-RHF Final Energy:  -349.24662093340669

   => Energetics <=

    Nuclear Repulsion Energy =            384.7218066521459150
    One-Electron Energy =               -1235.8842423808937383
    Two-Electron Energy =                 501.9158147953411344
    DFT Exchange-Correlation Energy =       0.0000000000000000
    Empirical Dispersion Energy =           0.0000000000000000
    PCM Polarization Energy =               0.0000000000000000
    EFP Energy =                            0.0000000000000000
    Total Energy =                       -349.2466209334066889
    Molecular point group: c1
  Basis Set: 6-31G*
  Basis Set:

  -Total Gradient:
     Atom            X                  Y                   Z
    ------   -----------------  -----------------  -----------------
       1       -0.000002202560     0.000005109686    -0.000007013335
       2       -0.000007793080     0.000019466851     0.000009054922
       3        0.000007250291    -0.000038358426    -0.000000007691
       4       -0.000013091421     0.000015925165     0.000006151590
       5       -0.000001428367    -0.000004020954     0.000005508717
       6        0.000003011382     0.000001801730    -0.000003931021
       7       -0.001386088144     0.004420710900     0.000540988053
       8        0.000012360368     0.000003816448     0.000001533708
       9       -0.000010906594     0.000002515016     0.000002843876
      10        0.000634439763    -0.003583160713     0.001160937814
      11        0.001022511850    -0.002937371477    -0.000741408743
      12        0.000001786961     0.000009986934    -0.000015436669
      13       -0.000264632862     0.002075619371    -0.000956881013
      14        0.000009390079    -0.000000074908    -0.000005967304
      15        0.000002090769     0.000010145170     0.000003742197
      16        0.000000479232     0.000001543520    -0.000001967022
      17        0.000004042052    -0.000000733370    -0.000001827240
      18       -0.000006293416    -0.000000357177     0.000002587020
      19       -0.000002988070    -0.000002042395    -0.000000565633
      20        0.000001134408     0.000002743541     0.000000207399
      21       -0.000001473802    -0.000001745669    -0.000000588300
      22       -0.000001576097    -0.000001487453     0.000001248646
      23        0.000001086875    -0.000000548838    -0.000000915860
      24       -0.000001109607     0.000000517050     0.000001705891

  **** Optimization is complete! (in 7 steps) ****
    Final optimized geometry and variables:
    Molecular point group: c1

    Geometry (in Angstrom), charge = 0, multiplicity = 1:

    H           -3.459231648070     1.002340189010    -1.013175140222
    O           -3.464423774853     0.061628060578    -0.901824857866
    C           -3.157935406945    -0.249204064380     0.433522797349
    C           -1.746729204963     0.165213248548     0.834563695073
    H           -3.270263893308    -1.323003762571     0.518066663505
    H           -3.883639774410     0.206246158685     1.105209145595
    C           -0.653234815304    -0.510616763970     0.008314123180
    H           -1.655450495796     1.248126977881     0.747042406341
    H           -1.608913885530    -0.065697033946     1.889723342857
    C            0.765708737883    -0.124991447350     0.441220262340
    H           -0.792772166859    -0.289342968882    -1.045266686558
    H           -0.765643715779    -1.590827247196     0.090927326508
    C            1.821318921758    -0.475193618730    -0.611165846531
    H            0.798262970626     0.944043193417     0.639224821486
    H            1.005767560868    -0.614936568460     1.383239864095
    C            3.270414408599    -0.237783961772    -0.171650393889
    H            1.622166673811     0.095479828905    -1.516548386515
    H            1.711222485804    -1.523080772418    -0.884197611529
    C            3.623920735752     1.228043271406     0.086856354739
    H            3.932032287057    -0.625164433899    -0.942636587915
    H            3.474563741161    -0.821486368116     0.723743833757
    H            3.415607333545     1.839636007968    -0.787091409986
    H            4.679018738197     1.334920803177     0.319587702228
    H            3.064186891915     1.640007347495     0.920023241202

  Mulliken Charges: (a.u.)
   Center  Symbol    Alpha    Beta     Spin     Total
       1     H     0.28338  0.28338  0.00000  0.43324
       2     O     4.36828  4.36828  0.00000 -0.73656
       3     C     2.99626  2.99626  0.00000  0.00748
       4     C     3.16954  3.16954  0.00000 -0.33908
       5     H     0.41625  0.41625  0.00000  0.16750
       6     H     0.42815  0.42815  0.00000  0.14370
       7     C     3.15236  3.15236  0.00000 -0.30473
       8     H     0.42800  0.42800  0.00000  0.14400
       9     H     0.42216  0.42216  0.00000  0.15567
      10     C     3.15386  3.15386  0.00000 -0.30772
      11     H     0.41216  0.41216  0.00000  0.17568
      12     H     0.42308  0.42308  0.00000  0.15384
      13     C     3.15302  3.15302  0.00000 -0.30603
      14     H     0.42344  0.42344  0.00000  0.15313
      15     H     0.42389  0.42389  0.00000  0.15223
      16     C     3.15237  3.15237  0.00000 -0.30474
      17     H     0.42374  0.42374  0.00000  0.15252
      18     H     0.42175  0.42175  0.00000  0.15650
      19     C     3.24120  3.24120  0.00000 -0.48241
      20     H     0.42108  0.42108  0.00000  0.15784
      21     H     0.42362  0.42362  0.00000  0.15276
      22     H     0.42258  0.42258  0.00000  0.15484
      23     H     0.41948  0.41948  0.00000  0.16104
      24     H     0.42035  0.42035  0.00000  0.15930

   Total alpha = 33.00000, Total beta = 33.00000, Total charge =  0.00000
