  ==> Input File <==

--------------------------------------------------------------------------
set {
	reference rhf
	basis cc-pvtz
}

set_num_threads( 4 )
memory 2 gb

molecule MOL {
0 1

H	 2.342730	 0.877684	 -1.045694
C	 2.360424	 0.000000	 -0.411793
C	 1.173749	 0.000000	 0.526870
H	 3.286567	 0.000000	 0.151574
H	 2.342730	 -0.877684	 -1.045694
O	 -0.000000	 0.000000	 -0.223739
H	 1.203779	 0.876757	 1.172538
H	 1.203779	 -0.876757	 1.172538
C	 -1.173749	 0.000000	 0.526870
C	 -1.604015	 1.429876	 0.771026
H	 -1.010650	 -0.511676	 1.474540
H	 -1.955203	 -0.543695	 -0.002486
H	 -0.836125	 1.970321	 1.310227
H	 -2.517280	 1.454218	 1.354529
H	 -1.781677	 1.938268	 -0.168360

	symmetry c1
}
set optking {
	frozen_dihedral = ("
		11 9 6 3
	")
}

ee = optimize('scf')
oeprop('DIPOLE', 'QUADRUPOLE', 'MULLIKEN_CHARGES')
f=open( 'psi4out.xyz', 'w' )
f.write( "15  " )
f.write( str(ee) + "\n" )
f.write( MOL.save_string_xyz() )
f.close()
--------------------------------------------------------------------------

    Molecular point group: c1
  Charge       = 0
  Multiplicity = 1
  Basis Set: CC-PVTZ
  Basis Set:
  @DF-RHF Final Energy:  -232.22932837452325
    Total Energy =                       -232.2293283745234476
    Molecular point group: c1
  Basis Set: CC-PVTZ
  Basis Set:
  Basis Set: CC-PVTZ
  Basis Set:
  @DF-RHF Final Energy:  -232.23021294892095
    Total Energy =                       -232.2302129489210643
  Basis Set: CC-PVTZ
  Basis Set:
  Basis Set: CC-PVTZ
  Basis Set:
  @DF-RHF Final Energy:  -232.23051935523947
    Total Energy =                       -232.2305193552394940
  Basis Set: CC-PVTZ
  Basis Set:
  Charge       = 0
  Multiplicity = 1
  Basis Set: CC-PVTZ
  Basis Set:

    Orbital Energies (a.u.)
    -----------------------

    Doubly Occupied:

       1A    -20.543129     2A    -11.266389     3A    -11.266037
       4A    -11.208308     5A    -11.206846     6A     -1.377612
       7A     -1.042048     8A     -0.985966     9A     -0.859308
      10A     -0.816928    11A     -0.673233    12A     -0.652717
      13A     -0.641939    14A     -0.572541    15A     -0.553918
      16A     -0.543053    17A     -0.523549    18A     -0.501414
      19A     -0.488080    20A     -0.460650    21A     -0.408936

  @DF-RHF Final Energy:  -232.23052284692784

   => Energetics <=

    Nuclear Repulsion Energy =            192.4712616170883166
    One-Electron Energy =                -696.2183729805315124
    Two-Electron Energy =                 271.5165885165153554
    DFT Exchange-Correlation Energy =       0.0000000000000000
    Empirical Dispersion Energy =           0.0000000000000000
    PCM Polarization Energy =               0.0000000000000000
    EFP Energy =                            0.0000000000000000
    Total Energy =                       -232.2305228469278404
    Molecular point group: c1
  Basis Set: CC-PVTZ
  Basis Set:

  -Total Gradient:
     Atom            X                  Y                   Z
    ------   -----------------  -----------------  -----------------
       1       -0.000008435713    -0.000001315858     0.000005744561
       2       -0.000017025640    -0.000005494026     0.000001467240
       3       -0.000032672652    -0.000805599685     0.000021866662
       4        0.000015498626     0.000001313183     0.000006003309
       5       -0.000001731011     0.000005715087     0.000006321907
       6        0.000010417619     0.001319309878     0.000074898017
       7        0.000006234994    -0.000003689644    -0.000008236729
       8        0.000013151014     0.000006739698    -0.000001282686
       9       -0.000270143811    -0.001254347746    -0.000439329339
      10       -0.000052842545    -0.000020624075     0.000009466369
      11        0.000297491453     0.000762710392     0.000384044019
      12        0.000037774223    -0.000005884575    -0.000020790496
      13       -0.000004270500    -0.000022949715    -0.000017495121
      14       -0.000002548510     0.000018621246    -0.000002118345
      15        0.000009102455     0.000005495840    -0.000020559367

  **** Optimization is complete! (in 4 steps) ****
    Final optimized geometry and variables:
    Molecular point group: c1

    Geometry (in Angstrom), charge = 0, multiplicity = 1:

    H            2.201420534539     0.581267487829    -1.289840906270
    C            2.217418572490    -0.309455129169    -0.674247857124
    C            1.048961058678    -0.311575001301     0.287031811732
    H            3.154152788371    -0.335363307529    -0.128883307924
    H            2.173192668620    -1.173401576058    -1.325553164042
    O           -0.137475200014    -0.293528283357    -0.446459788279
    H            1.107645305288     0.553168633596     0.945189237470
    H            1.081588532273    -1.199531815314     0.916185266614
    C           -1.319728191563    -0.260584275551     0.298420501955
    C           -1.817353993388     1.157053889437     0.527481886823
    H           -1.178379645119    -0.764217495193     1.251927220564
    H           -2.058244606865    -0.822451600566    -0.259581103568
    H           -1.104514027471     1.740231964587     1.098553339305
    H           -2.754162111843     1.143667059663     1.074397734192
    H           -1.980390791634     1.655526772338    -0.420116625049

  Mulliken Charges: (a.u.)
   Center  Symbol    Alpha    Beta     Spin     Total
       1     H     0.45163  0.45163  0.00000  0.09674
       2     C     3.13628  3.13628  0.00000 -0.27257
       3     C     2.96710  2.96710  0.00000  0.06579
       4     H     0.45927  0.45927  0.00000  0.08145
       5     H     0.45123  0.45123  0.00000  0.09754
       6     O     4.18477  4.18477  0.00000 -0.36953
       7     H     0.47370  0.47370  0.00000  0.05260
       8     H     0.47051  0.47051  0.00000  0.05899
       9     C     2.98063  2.98063  0.00000  0.03874
      10     C     3.13973  3.13973  0.00000 -0.27946
      11     H     0.47179  0.47179  0.00000  0.05642
      12     H     0.45085  0.45085  0.00000  0.09831
      13     H     0.45670  0.45670  0.00000  0.08660
      14     H     0.45493  0.45493  0.00000  0.09015
      15     H     0.45088  0.45088  0.00000  0.09824

   Total alpha = 21.00000, Total beta = 21.00000, Total charge = -0.00000
