                              Psi4 1.0.54 Driver

  ==> Input File <==

--------------------------------------------------------------------------
set {
	reference rhf
	basis cc-pvtz
}

set_num_threads( 4 )
memory 2 gb

molecule MOL {
0 1

H	 2.736284	 0.017052	 -0.438380
N	 1.761824	 0.225111	 -0.445411
C	 1.228435	 0.224756	 0.901934
C	 1.046903	 -0.699922	 -1.301592
H	 1.772109	 0.947341	 1.498291
H	 1.324292	 -0.749373	 1.385157
C	 -0.240822	 0.603931	 0.862152
H	 1.459035	 -0.647379	 -2.301961
H	 1.131291	 -1.732472	 -0.957589
C	 -0.422117	 -0.319535	 -1.338487
H	 -0.331442	 1.640399	 0.524345
H	 -0.656073	 0.546952	 1.861372
N	 -0.976577	 -0.298712	 -0.000000
H	 -0.968454	 -1.044237	 -1.930467
H	 -0.525226	 0.653314	 -1.827899
C	 -2.391156	 -0.021003	 -0.000000
H	 -2.853954	 -0.458728	 -0.875714
H	 -2.853954	 -0.458728	 0.875714
H	 -2.614037	 1.049773	 -0.000000

	symmetry c1
}
set optking {
	frozen_dihedral = ("
		7 13 16 19
	")
}

ee,wfn = optimize('scf', return_wfn=True)
oeprop( wfn, 'DIPOLE', 'QUADRUPOLE', 'MULLIKEN_CHARGES')
f=open( 'psi4out.xyz', 'w' )
f.write( "19  " )
f.write( str(ee) + "\n" )
f.write( MOL.save_string_xyz() )
f.close()
--------------------------------------------------------------------------

    Molecular point group: c1
  Charge       = 0
  Multiplicity = 1
  Basis Set: CC-PVTZ
  Basis Set:
  @DF-RHF Final Energy:  -305.30697102844681
    Total Energy =                       -305.3069710284471512
    Molecular point group: c1
  Basis Set: CC-PVTZ
  Basis Set:
  Basis Set: CC-PVTZ
  Basis Set:
  @DF-RHF Final Energy:  -305.30713867744890
    Total Energy =                       -305.3071386774485063
  Basis Set: CC-PVTZ
  Basis Set:
  Basis Set: CC-PVTZ
  Basis Set:
  @DF-RHF Final Energy:  -305.30715648835235
    Total Energy =                       -305.3071564883525753
  Basis Set: CC-PVTZ
  Basis Set:
  Charge       = 0
  Multiplicity = 1
  Basis Set: CC-PVTZ
  Basis Set:

    Orbital Energies (a.u.)
    -----------------------

    Doubly Occupied:

       1A    -15.536770     2A    -15.531039     3A    -11.237150
       4A    -11.237045     5A    -11.235836     6A    -11.235775
       7A    -11.233102     8A     -1.248730     9A     -1.187309
      10A     -1.023579    11A     -0.965487    12A     -0.861230
      13A     -0.858642    14A     -0.758172    15A     -0.692616
      16A     -0.633838    17A     -0.626688    18A     -0.609439
      19A     -0.604977    20A     -0.581065    21A     -0.543788
      22A     -0.530169    23A     -0.513306    24A     -0.490006
      25A     -0.466920    26A     -0.457576    27A     -0.365774
      28A     -0.348753

  @DF-RHF Final Energy:  -305.30715746286864

   => Energetics <=

    Nuclear Repulsion Energy =            340.2317329355857964
    One-Electron Energy =               -1087.8482167253000625
    Two-Electron Energy =                 442.3093263268456212
    DFT Exchange-Correlation Energy =       0.0000000000000000
    Empirical Dispersion Energy =           0.0000000000000000
    PCM Polarization Energy =               0.0000000000000000
    EFP Energy =                            0.0000000000000000
    Total Energy =                       -305.3071574628686449
    Molecular point group: c1
  Basis Set: CC-PVTZ
  Basis Set:

  -Total Gradient:
     Atom            X                  Y                   Z
    ------   -----------------  -----------------  -----------------
       1       -0.000020552850    -0.000003313400    -0.000002351516
       2       -0.000016392680    -0.000000586373     0.000006183121
       3        0.000023932817    -0.000019722286     0.000019768792
       4        0.000056285071     0.000015062265    -0.000025021646
       5       -0.000003622554    -0.000002091996    -0.000004354111
       6        0.000015077126    -0.000008547613     0.000006544943
       7        0.000404960680     0.002120942293    -0.002700873807
       8        0.000025532155    -0.000002707563    -0.000008012420
       9       -0.000011388068     0.000015307057     0.000000521263
      10       -0.000041529995    -0.000037059454     0.000111264795
      11       -0.000011024004     0.000026321643     0.000006687004
      12        0.000007198341     0.000004877371     0.000000039046
      13       -0.000613150067    -0.002902409541     0.004877753728
      14       -0.000008244519     0.000006121599    -0.000002436959
      15        0.000007668577    -0.000002635530     0.000004461549
      16        0.000161951181     0.000770883812    -0.006930489656
      17        0.000019830748    -0.000015085499     0.000001891988
      18       -0.000010167109    -0.000000932284     0.000029765646
      19        0.000013635151     0.000035575498     0.004608658241

  **** Optimization is complete! (in 4 steps) ****
    Final optimized geometry and variables:
    Molecular point group: c1

    Geometry (in Angstrom), charge = 0, multiplicity = 1:

    H            2.747082978298     0.057601534518    -0.239617432203
    N            1.772993793655     0.267518239631    -0.250431859233
    C            1.232524727755     0.264837446919     1.093789469701
    C            1.060078315447    -0.652596093691    -1.113189997033
    H            1.768738077995     0.990830008462     1.692989977857
    H            1.330127545847    -0.708234240847     1.578817868367
    C           -0.237880610031     0.637410552655     1.043442151474
    H            1.474607733570    -0.594887548726    -2.112441559119
    H            1.143458347524    -1.687106348715    -0.774566129074
    C           -0.410012056714    -0.275062300202    -1.152512220796
    H           -0.332657587283     1.668962629794     0.693537260133
    H           -0.657189650362     0.590635767976     2.042273311741
    N           -0.970208851066    -0.274219832814     0.186473053205
    H           -0.948469441612    -0.996191585759    -1.755243268987
    H           -0.512474106598     0.702451307485    -1.632508818385
    C           -2.388094099454     0.011121353956     0.193320845308
    H           -2.871868758500    -0.448673649789    -0.657365691083
    H           -2.841472836434    -0.393800108061     1.091975994125
    H           -2.602714848950     1.081663672346     0.188653739498

  Mulliken Charges: (a.u.)
   Center  Symbol    Alpha    Beta     Spin     Total
       1     H     0.44000  0.44000  0.00000  0.11999
       2     N     3.64290  3.64290  0.00000 -0.28579
       3     C     3.04080  3.04080  0.00000 -0.08161
       4     C     3.04162  3.04162  0.00000 -0.08324
       5     H     0.45251  0.45251  0.00000  0.09499
       6     H     0.46527  0.46527  0.00000  0.06945
       7     C     3.03604  3.03604  0.00000 -0.07207
       8     H     0.45252  0.45252  0.00000  0.09497
       9     H     0.46547  0.46547  0.00000  0.06906
      10     C     3.03310  3.03310  0.00000 -0.06620
      11     H     0.46723  0.46723  0.00000  0.06553
      12     H     0.45401  0.45401  0.00000  0.09199
      13     N     3.61592  3.61592  0.00000 -0.23185
      14     H     0.45403  0.45403  0.00000  0.09194
      15     H     0.46925  0.46925  0.00000  0.06151
      16     C     3.09646  3.09646  0.00000 -0.19293
      17     H     0.45365  0.45365  0.00000  0.09269
      18     H     0.45078  0.45078  0.00000  0.09843
      19     H     0.46843  0.46843  0.00000  0.06314

   Total alpha = 28.00000, Total beta = 28.00000, Total charge = -0.00000

*** Psi4 exiting successfully. Buy a developer a beer!
