  ==> Input File <==

--------------------------------------------------------------------------
set {
	reference rhf
	basis 6-31G*
}

set_num_threads( 4 )
memory 2 gb

molecule MOL {
0 1

H	 -1.900197	 -0.878748	 -1.162818
O	 -2.310168	 -0.871793	 -0.309793
C	 -2.026376	 0.340750	 0.341611
C	 -0.673256	 0.843270	 -0.132153
H	 -2.792215	 1.080697	 0.115987
H	 -2.013526	 0.200402	 1.421792
C	 0.486613	 -0.083066	 0.235839
H	 -0.715586	 0.970948	 -1.210718
H	 -0.508072	 1.829858	 0.297090
C	 1.840406	 0.433480	 -0.254303
H	 0.300215	 -1.068318	 -0.178947
H	 0.519509	 -0.203625	 1.318070
C	 3.000220	 -0.489290	 0.118523
H	 1.809207	 0.553576	 -1.335192
H	 2.021860	 1.424500	 0.157276
H	 2.864959	 -1.479103	 -0.307933
H	 3.946603	 -0.099227	 -0.243630
H	 3.080049	 -0.602997	 1.196117

	symmetry c1
}
set optking {
	frozen_dihedral = ("
		1 2 3 4
	")
}

ee = optimize('scf')
oeprop('DIPOLE', 'QUADRUPOLE', 'MULLIKEN_CHARGES')
f=open( 'psi4out.xyz', 'w' )
f.write( "18  " )
f.write( str(ee) + "\n" )
f.write( MOL.save_string_xyz() )
f.close()
--------------------------------------------------------------------------

    Molecular point group: c1
  Charge       = 0
  Multiplicity = 1
  Basis Set: 6-31G*
  Basis Set:
  @DF-RHF Final Energy:  -271.17623096110458
    Total Energy =                       -271.1762309611048067
    Molecular point group: c1
  Basis Set: 6-31G*
  Basis Set:
  Basis Set: 6-31G*
  Basis Set:
  @DF-RHF Final Energy:  -271.17771420979841
    Total Energy =                       -271.1777142097984097
  Basis Set: 6-31G*
  Basis Set:
  Basis Set: 6-31G*
  Basis Set:
  @DF-RHF Final Energy:  -271.17815208068481
    Total Energy =                       -271.1781520806850949
  Basis Set: 6-31G*
  Basis Set:
  Basis Set: 6-31G*
  Basis Set:
  @DF-RHF Final Energy:  -271.17815647735699
    Total Energy =                       -271.1781564773567652
  Basis Set: 6-31G*
  Basis Set:
  Charge       = 0
  Multiplicity = 1
  Basis Set: 6-31G*
  Basis Set:

    Orbital Energies (a.u.)
    -----------------------

    Doubly Occupied:

       1A    -20.551238     2A    -11.267203     3A    -11.223489
       4A    -11.219653     5A    -11.218338     6A    -11.211302
       7A     -1.358443     8A     -1.083385     9A     -1.013627
      10A     -0.920107    11A     -0.833987    12A     -0.797012
      13A     -0.665505    14A     -0.655435    15A     -0.631235
      16A     -0.611261    17A     -0.575973    18A     -0.556203
      19A     -0.542108    20A     -0.497935    21A     -0.489618
      22A     -0.479148    23A     -0.468591    24A     -0.458571
      25A     -0.424913

  @DF-RHF Final Energy:  -271.17815724276420

   => Energetics <=

    Nuclear Repulsion Energy =            248.9289711527152065
    One-Electron Energy =                -860.7056972754810431
    Two-Electron Energy =                 340.5985688800012667
    DFT Exchange-Correlation Energy =       0.0000000000000000
    Empirical Dispersion Energy =           0.0000000000000000
    PCM Polarization Energy =               0.0000000000000000
    EFP Energy =                            0.0000000000000000
    Total Energy =                       -271.1781572427645415
    Molecular point group: c1
  Basis Set: 6-31G*
  Basis Set:

  -Total Gradient:
     Atom            X                  Y                   Z
    ------   -----------------  -----------------  -----------------
       1        0.002166379018    -0.001081510701     0.001096013276
       2       -0.002965851125     0.001853166727    -0.001793294470
       3        0.001567956625    -0.001512073110     0.001995100387
       4       -0.000764196406     0.000734022632    -0.001348099547
       5       -0.000035637153    -0.000046033703    -0.000043166399
       6        0.000012267320    -0.000015867038    -0.000001572832
       7        0.000012719423     0.000052936579     0.000011145522
       8        0.000000013065    -0.000012502181     0.000030476811
       9        0.000022070234     0.000009384095     0.000031789954
      10        0.000007206373     0.000005535856     0.000020008049
      11       -0.000008215871     0.000014479365     0.000008043609
      12       -0.000000740727     0.000016128054     0.000011711588
      13       -0.000007819722    -0.000019807053    -0.000034787924
      14       -0.000010864680     0.000013212812     0.000008729644
      15        0.000005864975    -0.000006251102     0.000018711601
      16        0.000003317364    -0.000011580672     0.000005214220
      17       -0.000000342365    -0.000004880728    -0.000011354205
      18       -0.000004126344     0.000011640170    -0.000004669285

  **** Optimization is complete! (in 5 steps) ****
    Final optimized geometry and variables:
    Molecular point group: c1

    Geometry (in Angstrom), charge = 0, multiplicity = 1:

    H           -2.010249770028    -0.953691151919    -1.123342715883
    O           -2.397953999693    -0.885897738075    -0.262587051838
    C           -2.032116637440     0.335988955801     0.328665428877
    C           -0.668972834768     0.844961171378    -0.125483700958
    H           -2.787926528279     1.087616896118     0.110115269278
    H           -2.036363025707     0.173491837171     1.400065433717
    C            0.492260423630    -0.081992840724     0.240855133330
    H           -0.692302095764     1.000580789935    -1.204725198882
    H           -0.507284449960     1.826106443431     0.315783620999
    C            1.849146182573     0.436175863596    -0.238824763212
    H            0.316116133814    -1.070995845601    -0.174181321160
    H            0.516025647476    -0.209482279362     1.321511960363
    C            3.005367990870    -0.492810086487     0.129304514105
    H            1.823604613920     0.569264699809    -1.318558644086
    H            2.029399083144     1.422029563109     0.184692744057
    H            2.870603156913    -1.478379829767    -0.307200159025
    H            3.953335593808    -0.100540552589    -0.225548023226
    H            3.080592235375    -0.616922737853     1.205802108608

  Mulliken Charges: (a.u.)
   Center  Symbol    Alpha    Beta     Spin     Total
       1     H     0.28185  0.28185  0.00000  0.43631
       2     O     4.37332  4.37332  0.00000 -0.74665
       3     C     2.98154  2.98154  0.00000  0.03691
       4     C     3.18435  3.18435  0.00000 -0.36869
       5     H     0.42709  0.42709  0.00000  0.14582
       6     H     0.41961  0.41961  0.00000  0.16079
       7     C     3.15047  3.15047  0.00000 -0.30095
       8     H     0.42558  0.42558  0.00000  0.14884
       9     H     0.41797  0.41797  0.00000  0.16406
      10     C     3.15154  3.15154  0.00000 -0.30307
      11     H     0.41936  0.41936  0.00000  0.16127
      12     H     0.42075  0.42075  0.00000  0.15849
      13     C     3.23927  3.23927  0.00000 -0.47854
      14     H     0.42390  0.42390  0.00000  0.15220
      15     H     0.42276  0.42276  0.00000  0.15448
      16     H     0.42107  0.42107  0.00000  0.15786
      17     H     0.41885  0.41885  0.00000  0.16229
      18     H     0.42071  0.42071  0.00000  0.15858

   Total alpha = 25.00000, Total beta = 25.00000, Total charge = -0.00000
