  ==> Input File <==

--------------------------------------------------------------------------
set {
	reference rhf
	basis 6-31G*
}

set_num_threads( 1 )
memory 2 gb

molecule MOL {
0 1

H	 2.122016	 -1.182255	 -0.891170
O	 2.016064	 -0.864478	 0.000222
C	 1.050492	 0.053836	 0.000068
C	 -0.318135	 -0.576402	 0.000164
O	 1.285279	 1.218255	 -0.000078
C	 -1.454360	 0.441875	 -0.000474
H	 -0.374042	 -1.230163	 -0.866135
H	 -0.374274	 -1.229227	 0.867154
C	 -2.826123	 -0.230780	 0.000056
H	 -1.357605	 1.085198	 -0.868380
H	 -1.357504	 1.086451	 0.866496
H	 -2.959731	 -0.858053	 -0.876869
H	 -3.619374	 0.509403	 -0.000080
H	 -2.959371	 -0.857318	 0.877556

	symmetry c1
}
set optking {
	frozen_dihedral = ("
		7 4 6 10,
		2 3 4 7
	")
}

ee = energy('scf')
oeprop('DIPOLE', 'QUADRUPOLE', 'MULLIKEN_CHARGES')
f=open( 'psi4out.xyz', 'w' )
f.write( "14  " )
f.write( str(ee) + "\n" )
f.write( MOL.save_string_xyz() )
f.close()
--------------------------------------------------------------------------

    Molecular point group: c1

    Geometry (in Angstrom), charge = 0, multiplicity = 1:

       Center              X                  Y                   Z               Mass
    ------------   -----------------  -----------------  -----------------  -----------------
           H          2.130395473893    -1.173442947917    -0.880967758107     1.007825032070
           O          2.024443473893    -0.855665947917     0.010424241893    15.994914619560
           C          1.058871473893     0.062648052083     0.010270241893    12.000000000000
           C         -0.309755526107    -0.567589947917     0.010366241893    12.000000000000
           O          1.293658473893     1.227067052083     0.010124241893    15.994914619560
           C         -1.445980526107     0.450687052083     0.009728241893    12.000000000000
           H         -0.365662526107    -1.221350947917    -0.855932758107     1.007825032070
           H         -0.365894526107    -1.220414947917     0.877356241893     1.007825032070
           C         -2.817743526107    -0.221967947917     0.010258241893    12.000000000000
           H         -1.349225526107     1.094010052083    -0.858177758107     1.007825032070
           H         -1.349124526107     1.095263052083     0.876698241893     1.007825032070
           H         -2.951351526107    -0.849240947917    -0.866666758107     1.007825032070
           H         -3.610994526107     0.518215052083     0.010122241893     1.007825032070
           H         -2.950991526107    -0.848505947917     0.887758241893     1.007825032070

  Charge       = 0
  Multiplicity = 1
  Basis Set: 6-31G*
  Basis Set:

    Orbital Energies (a.u.)
    -----------------------

    Doubly Occupied:

       1A    -20.599281     2A    -20.560618     3A    -11.380466
       4A    -11.243903     5A    -11.226987     6A    -11.218874
       7A     -1.469150     8A     -1.370121     9A     -1.084231
      10A     -0.977112    11A     -0.852005    12A     -0.803926
      13A     -0.715066    14A     -0.678081    15A     -0.664326
      16A     -0.634581    17A     -0.579745    18A     -0.561387
      19A     -0.544987    20A     -0.502613    21A     -0.497420
      22A     -0.484969    23A     -0.480270    24A     -0.444348

  @DF-RHF Final Energy:  -305.85741645515930

   => Energetics <=

    Nuclear Repulsion Energy =            240.1037779601325326
    One-Electron Energy =                -892.7735120660130406
    Two-Electron Energy =                 346.8123176507207290
    DFT Exchange-Correlation Energy =       0.0000000000000000
    Empirical Dispersion Energy =           0.0000000000000000
    PCM Polarization Energy =               0.0000000000000000
    EFP Energy =                            0.0000000000000000
    Total Energy =                       -305.8574164551597505

  Mulliken Charges: (a.u.)
   Center  Symbol    Alpha    Beta     Spin     Total
       1     H     0.26610  0.26610  0.00000  0.46781
       2     O     4.35624  4.35624  0.00000 -0.71249
       3     C     2.63419  2.63419  0.00000  0.73161
       4     C     3.21033  3.21033  0.00000 -0.42066
       5     O     4.25143  4.25143  0.00000 -0.50285
       6     C     3.15295  3.15295  0.00000 -0.30591
       7     H     0.41231  0.41231  0.00000  0.17538
       8     H     0.39676  0.39676  0.00000  0.20647
       9     C     3.24279  3.24279  0.00000 -0.48558
      10     H     0.41156  0.41156  0.00000  0.17687
      11     H     0.40843  0.40843  0.00000  0.18314
      12     H     0.42223  0.42223  0.00000  0.15555
      13     H     0.41415  0.41415  0.00000  0.17169
      14     H     0.42052  0.42052  0.00000  0.15896

   Total alpha = 24.00000, Total beta = 24.00000, Total charge =  0.00000
