                              Psi4 1.0.54 Driver

  ==> Input File <==

--------------------------------------------------------------------------
set {
	reference rhf
	basis cc-pvtz
}

set_num_threads( 4 )
memory 2 gb

molecule MOL {
0 1

H	 -2.198009	 0.555177	 2.460379
C	 -1.695336	 -0.170279	 3.095923
O	 -0.480993	 -0.567124	 2.552392
H	 -1.495208	 0.286704	 4.054048
H	 -2.362622	 -1.017214	 3.245304
C	 -0.582541	 -1.186108	 1.312156
C	 0.795339	 -1.477920	 0.773048
H	 -1.132108	 -2.123066	 1.401921
H	 -1.115113	 -0.551112	 0.607474
O	 1.401606	 -0.295166	 0.366636
H	 1.385128	 -1.967273	 1.545132
H	 0.706864	 -2.165091	 -0.068344
C	 2.714315	 -0.441627	 -0.061017
H	 2.765292	 -0.641548	 -1.128869
H	 3.305661	 0.447341	 0.150952
H	 3.143725	 -1.278506	 0.470147

	symmetry c1
}
set optking {
	frozen_dihedral = ("
		7 10 13 14
	")
}

ee,wfn = optimize('scf', return_wfn=True)
oeprop( wfn, 'DIPOLE', 'QUADRUPOLE', 'MULLIKEN_CHARGES')
f=open( 'psi4out.xyz', 'w' )
f.write( "16  " )
f.write( str(ee) + "\n" )
f.write( MOL.save_string_xyz() )
f.close()
--------------------------------------------------------------------------

    Molecular point group: c1
  Charge       = 0
  Multiplicity = 1
  Basis Set: CC-PVTZ
  Basis Set:
  @DF-RHF Final Energy:  -307.09492690429039
    Total Energy =                       -307.0949269042905598
    Molecular point group: c1
  Basis Set: CC-PVTZ
  Basis Set:
  Basis Set: CC-PVTZ
  Basis Set:
  @DF-RHF Final Energy:  -307.09590539683848
    Total Energy =                       -307.0959053968385888
  Basis Set: CC-PVTZ
  Basis Set:
  Basis Set: CC-PVTZ
  Basis Set:
  @DF-RHF Final Energy:  -307.09617704342605
    Total Energy =                       -307.0961770434262235
  Basis Set: CC-PVTZ
  Basis Set:
  Charge       = 0
  Multiplicity = 1
  Basis Set: CC-PVTZ
  Basis Set:

    Orbital Energies (a.u.)
    -----------------------

    Doubly Occupied:

       1A    -20.547624     2A    -20.546166     3A    -11.267660
       4A    -11.266795     5A    -11.261487     6A    -11.261219
       7A     -1.390664     8A     -1.373167     9A     -1.032020
      10A     -0.937352    11A     -0.892098    12A     -0.824136
      13A     -0.685514    14A     -0.682036    15A     -0.659118
      16A     -0.637818    17A     -0.631128    18A     -0.597918
      19A     -0.553025    20A     -0.536583    21A     -0.509339
      22A     -0.479366    23A     -0.464307    24A     -0.422246
      25A     -0.411979

  @DF-RHF Final Energy:  -307.09617879450639

   => Energetics <=

    Nuclear Repulsion Energy =            258.7735419523232849
    One-Electron Energy =                -931.9979157542537678
    Two-Electron Energy =                 366.1281950074242104
    DFT Exchange-Correlation Energy =       0.0000000000000000
    Empirical Dispersion Energy =           0.0000000000000000
    PCM Polarization Energy =               0.0000000000000000
    EFP Energy =                            0.0000000000000000
    Total Energy =                       -307.0961787945062724
    Molecular point group: c1
  Basis Set: CC-PVTZ
  Basis Set:

  -Total Gradient:
     Atom            X                  Y                   Z
    ------   -----------------  -----------------  -----------------
       1        0.000001281857     0.000000195226    -0.000000060664
       2       -0.000007661071    -0.000004368564    -0.000007395407
       3        0.000016685057    -0.000000915451     0.000014504714
       4        0.000005543735    -0.000002080114    -0.000003116795
       5       -0.000000139305     0.000000345445     0.000000955066
       6       -0.000018710198     0.000023895775    -0.000016934472
       7        0.000719242430     0.000264946631     0.002129129138
       8        0.000006821120    -0.000001642773     0.000004135458
       9        0.000000282334    -0.000004382468    -0.000003281682
      10       -0.000938984880     0.000346358823    -0.003325420335
      11        0.000027467136     0.000032612426     0.000001398891
      12        0.000009583011     0.000015628145     0.000013533647
      13        0.000074454006    -0.003512335136     0.001722583865
      14        0.000032217799     0.002848493385    -0.000494480475
      15        0.000021403240     0.000015765639    -0.000028447038
      16        0.000050513730    -0.000022516990    -0.000007103908

  **** Optimization is complete! (in 4 steps) ****
    Final optimized geometry and variables:
    Molecular point group: c1

    Geometry (in Angstrom), charge = 0, multiplicity = 1:

    H           -2.549731796734     1.235813078290     1.136283218711
    C           -2.042140730379     0.510509920505     1.768072016707
    O           -0.832921070526     0.112211324763     1.214364620315
    H           -1.833318148279     0.968152436827     2.724025481239
    H           -2.708826868048    -0.335740587751     1.924017053292
    C           -0.945753861956    -0.507414055550    -0.024561520311
    C            0.427319301687    -0.801103604250    -0.575086054142
    H           -1.494924742186    -1.444123014937     0.070703403594
    H           -1.484237798881     0.127308522311    -0.724871184568
    O            1.032671462069     0.383568587901    -0.978724686814
    H            1.021543121399    -1.293013760642     0.190929137052
    H            0.327569040653    -1.486890490964    -1.416592015781
    C            2.345432303493     0.261836914569    -1.421982959857
    H            2.383505853417     0.075625433574    -2.492600602361
    H            2.851752946307     1.198087253688    -1.229258939954
    H            2.878155413836    -0.529511707803    -0.903334465200

  Mulliken Charges: (a.u.)
   Center  Symbol    Alpha    Beta     Spin     Total
       1     H     0.47020  0.47020  0.00000  0.05961
       2     C     3.03203  3.03203  0.00000 -0.06407
       3     O     4.17030  4.17030  0.00000 -0.34060
       4     H     0.44641  0.44641  0.00000  0.10718
       5     H     0.47372  0.47372  0.00000  0.05255
       6     C     2.96200  2.96200  0.00000  0.07599
       7     C     2.95991  2.95991  0.00000  0.08017
       8     H     0.47621  0.47621  0.00000  0.04759
       9     H     0.47079  0.47079  0.00000  0.05842
      10     O     4.17252  4.17252  0.00000 -0.34503
      11     H     0.46904  0.46904  0.00000  0.06191
      12     H     0.47735  0.47735  0.00000  0.04530
      13     C     3.02979  3.02979  0.00000 -0.05958
      14     H     0.46682  0.46682  0.00000  0.06636
      15     H     0.44931  0.44931  0.00000  0.10138
      16     H     0.47360  0.47360  0.00000  0.05280

   Total alpha = 25.00000, Total beta = 25.00000, Total charge =  0.00000

*** Psi4 exiting successfully. Buy a developer a beer!
