                              Psi4 1.0.54 Driver

  ==> Input File <==

--------------------------------------------------------------------------
set {
	reference rhf
	basis cc-pvtz
}

set_num_threads( 4 )
memory 2 gb

molecule MOL {
0 1

O	 -0.280889	 1.284371	 -0.402574
C	 -0.441389	 0.127393	 -0.214106
C	 -1.774355	 -0.564059	 -0.186670
O	 0.550743	 -0.719877	 0.000412
H	 -1.797388	 -1.338011	 -0.942894
H	 -2.557683	 0.154213	 -0.365599
H	 -1.916532	 -1.039821	 0.775033
C	 1.863204	 -0.194033	 0.000410
H	 2.031502	 0.409177	 -0.879273
H	 2.524488	 -1.045142	 0.000793
H	 2.031291	 0.409823	 0.879686

	symmetry c1
}
set optking {
	frozen_dihedral = ("
		2 4 8 9
	")
}

ee,wfn = optimize('scf', return_wfn=True)
oeprop( wfn, 'DIPOLE', 'QUADRUPOLE', 'MULLIKEN_CHARGES')
f=open( 'psi4out.xyz', 'w' )
f.write( "11  " )
f.write( str(ee) + "\n" )
f.write( MOL.save_string_xyz() )
f.close()
--------------------------------------------------------------------------

    Molecular point group: c1
  Charge       = 0
  Multiplicity = 1
  Basis Set: CC-PVTZ
  Basis Set:
  @DF-RHF Final Energy:  -266.93905187595192
    Total Energy =                       -266.9390518759519182
    Molecular point group: c1
  Basis Set: CC-PVTZ
  Basis Set:
  Basis Set: CC-PVTZ
  Basis Set:
  @DF-RHF Final Energy:  -266.93906327268257
    Total Energy =                       -266.9390632726824606
  Basis Set: CC-PVTZ
  Basis Set:
  Basis Set: CC-PVTZ
  Basis Set:
  @DF-RHF Final Energy:  -266.93901058287378
    Total Energy =                       -266.9390105828738911
  Basis Set: CC-PVTZ
  Basis Set:
  Basis Set: CC-PVTZ
  Basis Set:
  @DF-RHF Final Energy:  -266.93907198001307
    Total Energy =                       -266.9390719800129546
  Basis Set: CC-PVTZ
  Basis Set:
  Charge       = 0
  Multiplicity = 1
  Basis Set: CC-PVTZ
  Basis Set:

    Orbital Energies (a.u.)
    -----------------------

    Doubly Occupied:

       1A    -20.598733     2A    -20.535262     3A    -11.368942
       4A    -11.279876     5A    -11.233207     6A     -1.474167
       7A     -1.367726     8A     -1.037032     9A     -0.953739
      10A     -0.780228    11A     -0.698362    12A     -0.684322
      13A     -0.681197    14A     -0.595835    15A     -0.593617
      16A     -0.561958    17A     -0.527168    18A     -0.525150
      19A     -0.462084    20A     -0.445960

  @DF-RHF Final Energy:  -266.93907311327013

   => Energetics <=

    Nuclear Repulsion Energy =            183.6834674727761580
    One-Electron Energy =                -728.4359576459576147
    Two-Electron Energy =                 277.8134170599112167
    DFT Exchange-Correlation Energy =       0.0000000000000000
    Empirical Dispersion Energy =           0.0000000000000000
    PCM Polarization Energy =               0.0000000000000000
    EFP Energy =                            0.0000000000000000
    Total Energy =                       -266.9390731132702967
    Molecular point group: c1
  Basis Set: CC-PVTZ
  Basis Set:

  -Total Gradient:
     Atom            X                  Y                   Z
    ------   -----------------  -----------------  -----------------
       1        0.000003439806    -0.000010122109     0.000008460457
       2        0.000053981625    -0.000125520504    -0.000788487250
       3        0.000004140298    -0.000009134908    -0.000007061694
       4       -0.000165443656     0.000395261498     0.001236037422
       5        0.000000868281    -0.000000925242     0.000004734599
       6        0.000003879954     0.000002303173     0.000001328427
       7       -0.000000597032     0.000003374308     0.000003006910
       8        0.000413955359    -0.000990285693    -0.000905429704
       9       -0.000302027441     0.000744808376     0.000452196754
      10       -0.000004644933    -0.000004777976    -0.000001160976
      11       -0.000007552264    -0.000004980924    -0.000003624947

  **** Optimization is complete! (in 5 steps) ****
    Final optimized geometry and variables:
    Molecular point group: c1

    Geometry (in Angstrom), charge = 0, multiplicity = 1:

    O           -0.289643187280     1.300174830191    -0.236875958002
    C           -0.447265337196     0.141981145565    -0.053562954834
    C           -1.778486249951    -0.553050525186    -0.033967720063
    O            0.545506838918    -0.704080225497     0.163132534692
    H           -1.796705579149    -1.324176734371    -0.793172883978
    H           -2.562990387397     0.163962264358    -0.212829249028
    H           -1.922808271785    -1.032740850688     0.925466797793
    C            1.860020204392    -0.183244558926     0.153457319040
    H            2.029317724642     0.412299534445    -0.730076453518
    H            2.519941777232    -1.035164721452     0.169682942571
    H            2.027203827996     0.431760806630     1.026313230861

  Mulliken Charges: (a.u.)
   Center  Symbol    Alpha    Beta     Spin     Total
       1     O     4.19680  4.19680  0.00000 -0.39361
       2     C     2.80149  2.80149  0.00000  0.39701
       3     C     3.13810  3.13810  0.00000 -0.27620
       4     O     4.14787  4.14787  0.00000 -0.29574
       5     H     0.44560  0.44560  0.00000  0.10881
       6     H     0.43787  0.43787  0.00000  0.12425
       7     H     0.44527  0.44527  0.00000  0.10945
       8     C     3.03359  3.03359  0.00000 -0.06718
       9     H     0.45200  0.45200  0.00000  0.09600
      10     H     0.44570  0.44570  0.00000  0.10861
      11     H     0.45570  0.45570  0.00000  0.08860

   Total alpha = 20.00000, Total beta = 20.00000, Total charge =  0.00000

*** Psi4 exiting successfully. Buy a developer a beer!
