  ==> Input File <==

--------------------------------------------------------------------------
set {
	reference rhf
	basis 6-31G*
}

set_num_threads( 1 )
memory 2 gb

molecule MOL {
0 1

H	 2.984882	 -0.240636	 0.145708
O	 2.291208	 0.325646	 -0.160608
C	 1.135793	 0.118896	 0.612333
C	 0.031547	 1.023609	 0.088541
H	 1.328847	 0.356902	 1.656829
H	 0.829772	 -0.924002	 0.569710
C	 -1.134819	 0.293262	 -0.585751
H	 0.474374	 1.714721	 -0.623187
H	 -0.338529	 1.620940	 0.920081
C	 -1.917817	 -0.639439	 0.339494
H	 -0.758119	 -0.268455	 -1.433105
H	 -1.813832	 1.041889	 -0.986690
H	 -2.777680	 -1.057197	 -0.174994
H	 -1.310268	 -1.471279	 0.680599
H	 -2.283753	 -0.111424	 1.216626

	symmetry c1
}
set optking {
	frozen_dihedral = ("
		8 4 7 11,
		1 2 3 4
	")
}

ee = energy('scf')
oeprop('DIPOLE', 'QUADRUPOLE', 'MULLIKEN_CHARGES')
f=open( 'psi4out.xyz', 'w' )
f.write( "15  " )
f.write( str(ee) + "\n" )
f.write( MOL.save_string_xyz() )
f.close()
--------------------------------------------------------------------------

    Molecular point group: c1

    Geometry (in Angstrom), charge = 0, multiplicity = 1:

       Center              X                  Y                   Z               Mass
    ------------   -----------------  -----------------  -----------------  -----------------
           H          2.845409830396    -0.448960444035     0.079914977521     1.007825032070
           O          2.151735830396     0.117321555965    -0.226401022479    15.994914619560
           C          0.996320830396    -0.089428444035     0.546539977521    12.000000000000
           C         -0.107925169604     0.815284555965     0.022747977521    12.000000000000
           H          1.189374830396     0.148577555965     1.591035977521     1.007825032070
           H          0.690299830396    -1.132326444035     0.503916977521     1.007825032070
           C         -1.274291169604     0.084937555965    -0.651544022479    12.000000000000
           H          0.334901830396     1.506396555965    -0.688980022479     1.007825032070
           H         -0.478001169604     1.412615555965     0.854287977521     1.007825032070
           C         -2.057289169604    -0.847763444035     0.273700977521    12.000000000000
           H         -0.897591169604    -0.476779444035    -1.498898022479     1.007825032070
           H         -1.953304169604     0.833564555965    -1.052483022479     1.007825032070
           H         -2.917152169604    -1.265521444035    -0.240787022479     1.007825032070
           H         -1.449740169604    -1.679603444035     0.614805977521     1.007825032070
           H         -2.423225169604    -0.319748444035     1.150832977521     1.007825032070

  Charge       = 0
  Multiplicity = 1
  Basis Set: 6-31G*
  Basis Set:

    Orbital Energies (a.u.)
    -----------------------

    Doubly Occupied:

       1A    -20.551372     2A    -11.265708     3A    -11.215202
       4A    -11.210178     5A    -11.209968     6A     -1.358088
       7A     -1.068371     8A     -0.970618     9A     -0.870357
      10A     -0.780191    11A     -0.702981    12A     -0.647980
      13A     -0.604959    14A     -0.586718    15A     -0.558397
      16A     -0.534169    17A     -0.511490    18A     -0.476117
      19A     -0.470864    20A     -0.454509    21A     -0.427400

  @DF-RHF Final Energy:  -232.13736589393363

   => Energetics <=

    Nuclear Repulsion Energy =            189.0185724895412704
    One-Electron Energy =                -689.3606187375993386
    Two-Electron Energy =                 268.2046803541239797
    DFT Exchange-Correlation Energy =       0.0000000000000000
    Empirical Dispersion Energy =           0.0000000000000000
    PCM Polarization Energy =               0.0000000000000000
    EFP Energy =                            0.0000000000000000
    Total Energy =                       -232.1373658939340885

  Mulliken Charges: (a.u.)
   Center  Symbol    Alpha    Beta     Spin     Total
       1     H     0.28212  0.28212  0.00000  0.43576
       2     O     4.37157  4.37157  0.00000 -0.74314
       3     C     2.99435  2.99435  0.00000  0.01130
       4     C     3.16632  3.16632  0.00000 -0.33265
       5     H     0.43051  0.43051  0.00000  0.13898
       6     H     0.42986  0.42986  0.00000  0.14029
       7     C     3.15766  3.15766  0.00000 -0.31532
       8     H     0.40220  0.40220  0.00000  0.19561
       9     H     0.42259  0.42259  0.00000  0.15483
      10     C     3.24271  3.24271  0.00000 -0.48542
      11     H     0.41776  0.41776  0.00000  0.16447
      12     H     0.42034  0.42034  0.00000  0.15932
      13     H     0.41785  0.41785  0.00000  0.16430
      14     H     0.42211  0.42211  0.00000  0.15578
      15     H     0.42206  0.42206  0.00000  0.15588

   Total alpha = 21.00000, Total beta = 21.00000, Total charge = -0.00000
