                              Psi4 1.0.54 Driver

  ==> Input File <==

--------------------------------------------------------------------------
set {
	reference rhf
	basis cc-pvtz
}

set_num_threads( 4 )
memory 2 gb

molecule MOL {
0 1

O	 2.355774	 2.146072	 -0.028878
C	 1.263187	 2.606261	 -0.096624
C	 0.018345	 1.742437	 -0.093756
C	 1.041375	 4.098951	 -0.190956
C	 0.288398	 0.247429	 0.000314
H	 -0.608017	 2.073658	 0.731491
H	 -0.544632	 1.976490	 -0.994468
C	 -0.993089	 -0.581367	 -0.000217
H	 0.857763	 0.044983	 0.900288
H	 0.921340	 -0.052220	 -0.827170
C	 -2.258482	 0.271340	 0.000669
H	 -1.002280	 -1.233920	 -0.870484
H	 -1.002061	 -1.235367	 0.868958
C	 -3.544441	 -0.550271	 -0.000253
H	 -2.250545	 0.925250	 -0.867923
H	 -2.250598	 0.923423	 0.870642
C	 -4.804551	 0.308747	 0.000556
H	 -3.553737	 -1.201524	 -0.870151
H	 -3.553831	 -1.203282	 0.868313
H	 -4.842050	 0.949078	 -0.874436
H	 -5.698404	 -0.304480	 -0.000254
H	 -4.842277	 0.947103	 0.876982
H	 0.435576	 4.440451	 0.641169
H	 1.990961	 4.611418	 -0.183547
H	 0.503489	 4.340146	 -1.101202

	symmetry c1
}
set optking {
	frozen_dihedral = ("
		9 5 8 12
	")
}

ee,wfn = optimize('scf', return_wfn=True)
oeprop( wfn, 'DIPOLE', 'QUADRUPOLE', 'MULLIKEN_CHARGES')
f=open( 'psi4out.xyz', 'w' )
f.write( "25  " )
f.write( str(ee) + "\n" )
f.write( MOL.save_string_xyz() )
f.close()
--------------------------------------------------------------------------

    Molecular point group: c1
  Charge       = 0
  Multiplicity = 1
  Basis Set: CC-PVTZ
  Basis Set:
  @DF-RHF Final Energy:  -387.25887301204341
    Total Energy =                       -387.2588730120434093
    Molecular point group: c1
  Basis Set: CC-PVTZ
  Basis Set:
  Basis Set: CC-PVTZ
  Basis Set:
  @DF-RHF Final Energy:  -387.25362825100530
    Total Energy =                       -387.2536282510054662
  Basis Set: CC-PVTZ
  Basis Set:
  Basis Set: CC-PVTZ
  Basis Set:
  @DF-RHF Final Energy:  -387.26345680234078
    Total Energy =                       -387.2634568023407837
  Basis Set: CC-PVTZ
  Basis Set:
  Basis Set: CC-PVTZ
  Basis Set:
  @DF-RHF Final Energy:  -387.26432042792487
    Total Energy =                       -387.2643204279246447
  Basis Set: CC-PVTZ
  Basis Set:
  @DF-RHF Final Energy:  -387.26440809273072
    Total Energy =                       -387.2644080927310597
  Basis Set: CC-PVTZ
  Basis Set:
  @DF-RHF Final Energy:  -387.26281614222256
    Total Energy =                       -387.2628161422225048
  Basis Set: CC-PVTZ
  Basis Set:
  Basis Set: CC-PVTZ
  Basis Set:
  @DF-RHF Final Energy:  -387.26446095133747
    Total Energy =                       -387.2644609513372416
  Basis Set: CC-PVTZ
  Basis Set:
  Basis Set: CC-PVTZ
  Basis Set:
  @DF-RHF Final Energy:  -387.26446998015308
    Total Energy =                       -387.2644699801533079
  Basis Set: CC-PVTZ
  Basis Set:
  Charge       = 0
  Multiplicity = 1
  Basis Set: CC-PVTZ
  Basis Set:

    Orbital Energies (a.u.)
    -----------------------

    Doubly Occupied:

       1A    -20.538537     2A    -11.320138     3A    -11.229665
       4A    -11.226253     5A    -11.216094     6A    -11.215536
       7A    -11.215162     8A    -11.214667     9A    -11.209363
      10A     -1.398655    11A     -1.093494    12A     -1.056799
      13A     -1.014003    14A     -0.968878    15A     -0.900960
      16A     -0.818360    17A     -0.786962    18A     -0.727893
      19A     -0.661482    20A     -0.656747    21A     -0.633516
      22A     -0.624310    23A     -0.595822    24A     -0.585467
      25A     -0.569456    26A     -0.560127    27A     -0.544434
      28A     -0.527364    29A     -0.523444    30A     -0.495042
      31A     -0.494258    32A     -0.477117    33A     -0.461643
      34A     -0.449630    35A     -0.448711    36A     -0.402722

  @DF-RHF Final Energy:  -387.26447020201249

   => Energetics <=

    Nuclear Repulsion Energy =            446.3023215178484406
    One-Electron Energy =               -1409.4081552532493333
    Two-Electron Energy =                 575.8413635333885168
    DFT Exchange-Correlation Energy =       0.0000000000000000
    Empirical Dispersion Energy =           0.0000000000000000
    PCM Polarization Energy =               0.0000000000000000
    EFP Energy =                            0.0000000000000000
    Total Energy =                       -387.2644702020123759
    Molecular point group: c1
  Basis Set: CC-PVTZ
  Basis Set:

  -Total Gradient:
     Atom            X                  Y                   Z
    ------   -----------------  -----------------  -----------------
       1        0.000030759847    -0.000003055947     0.000002607797
       2       -0.000037966476     0.000012948675     0.000002396696
       3        0.000017035255    -0.000002339104    -0.000012883895
       4        0.000005814962     0.000004942141    -0.000003332337
       5       -0.001284716745     0.001918119977     0.001781898679
       6        0.000012885374     0.000004937356     0.000000708923
       7       -0.000019230192    -0.000003714261     0.000004888292
       8       -0.001103120229     0.001781494176    -0.001939562321
       9        0.001234868758    -0.001886739212    -0.001200310387
      10        0.000001827748    -0.000002305349    -0.000002388330
      11       -0.000002938916    -0.000001561042     0.000038718719
      12        0.001130483137    -0.001826564884     0.001356246106
      13        0.000002469491     0.000003460766     0.000000366199
      14       -0.000001835391    -0.000002468733    -0.000015681062
      15        0.000010554300     0.000016030322    -0.000009003527
      16       -0.000013577790    -0.000014016488     0.000000304902
      17        0.000006667527     0.000003628523    -0.000004207187
      18       -0.000000016374    -0.000007867503    -0.000004802736
      19        0.000004528738     0.000004475312     0.000001678936
      20       -0.000002994132     0.000001464276    -0.000002522824
      21        0.000004289511    -0.000001442199     0.000000349021
      22       -0.000000067966     0.000002447232     0.000002483365
      23       -0.000002584578     0.000001409408    -0.000002992246
      24        0.000005727083    -0.000000905130     0.000001889695
      25        0.000001137054    -0.000002378309     0.000003149521

  **** Optimization is complete! (in 9 steps) ****
    Final optimized geometry and variables:
    Molecular point group: c1

    Geometry (in Angstrom), charge = 0, multiplicity = 1:

    O            3.184574850024     0.919638570457     0.060899956589
    C            2.140906641651     1.473132306164    -0.058475942922
    C            0.819962436333     0.729227058284    -0.085220719904
    C            2.059428143768     2.977423898355    -0.193411075749
    C            0.967698767746    -0.781418698536     0.053436524926
    H            0.202448515052     1.147008993040     0.704034697393
    H            0.322794388778     0.995570975612    -1.013674292356
    C           -0.338025600995    -1.619092468768     0.024837532675
    H            1.515303759738    -0.994533364978     0.962030443765
    H            1.618878141488    -1.121953086754    -0.741470531651
    C           -1.671300686710    -0.872706680576     0.064420908604
    H           -0.323424089339    -2.260494635282    -0.850367190645
    H           -0.317291584237    -2.301204341290     0.868891686348
    C           -2.868339192108    -1.820110423082     0.046579811815
    H           -1.750257205018    -0.194866086877    -0.780508715988
    H           -1.726552070608    -0.256776137007     0.958019596415
    C           -4.208561496385    -1.093476857639     0.086504752254
    H           -2.821387786531    -2.440027909891    -0.844459694430
    H           -2.801447075270    -2.498586352277     0.892445038554
    H           -4.321784924585    -0.432619216925    -0.766604764268
    H           -5.035510877538    -1.794062210118     0.072831829159
    H           -4.301180578632    -0.491066142343     0.984192814044
    H            1.458851302145     3.393067257183     0.608158580136
    H            3.051028438428     3.401965756159    -0.161834058873
    H            1.578123368358     3.243681860114    -1.127987472962

  Mulliken Charges: (a.u.)
   Center  Symbol    Alpha    Beta     Spin     Total
       1     O     4.17054  4.17054  0.00000 -0.34108
       2     C     2.86314  2.86314  0.00000  0.27371
       3     C     3.11644  3.11644  0.00000 -0.23288
       4     C     3.15110  3.15110  0.00000 -0.30221
       5     C     3.09067  3.09067  0.00000 -0.18134
       6     H     0.44327  0.44327  0.00000  0.11346
       7     H     0.44414  0.44414  0.00000  0.11172
       8     C     3.09948  3.09948  0.00000 -0.19896
       9     H     0.44269  0.44269  0.00000  0.11463
      10     H     0.44300  0.44300  0.00000  0.11400
      11     C     3.09049  3.09049  0.00000 -0.18097
      12     H     0.44985  0.44985  0.00000  0.10031
      13     H     0.44966  0.44966  0.00000  0.10068
      14     C     3.08411  3.08411  0.00000 -0.16821
      15     H     0.45424  0.45424  0.00000  0.09152
      16     H     0.45426  0.45426  0.00000  0.09147
      17     C     3.15007  3.15007  0.00000 -0.30014
      18     H     0.45385  0.45385  0.00000  0.09231
      19     H     0.45339  0.45339  0.00000  0.09322
      20     H     0.45576  0.45576  0.00000  0.08848
      21     H     0.44766  0.44766  0.00000  0.10467
      22     H     0.45554  0.45554  0.00000  0.08893
      23     H     0.45078  0.45078  0.00000  0.09845
      24     H     0.43508  0.43508  0.00000  0.12984
      25     H     0.45080  0.45080  0.00000  0.09841

   Total alpha = 36.00000, Total beta = 36.00000, Total charge = -0.00000

*** Psi4 exiting successfully. Buy a developer a beer!
