  ==> Input File <==

--------------------------------------------------------------------------
set {
	reference rhf
	basis 6-31G*
}

set_num_threads( 1 )
memory 2 gb

molecule MOL {
0 1

H	 1.869660	 1.725528	 -0.069180
O	 0.981312	 1.382581	 -0.072597
C	 1.050492	 0.053836	 0.000068
C	 -0.318135	 -0.576402	 0.000164
O	 2.087225	 -0.523245	 0.056273
C	 -1.454360	 0.441875	 -0.000474
H	 -0.374042	 -1.230163	 -0.866135
H	 -0.374274	 -1.229227	 0.867154
C	 -2.826123	 -0.230780	 0.000056
H	 -1.357605	 1.085198	 -0.868380
H	 -1.357504	 1.086451	 0.866496
H	 -2.959731	 -0.858053	 -0.876869
H	 -3.619374	 0.509403	 -0.000080
H	 -2.959371	 -0.857318	 0.877556

	symmetry c1
}
set optking {
	frozen_dihedral = ("
		7 4 6 10,
		1 2 3 5
	")
}

ee = energy('scf')
oeprop('DIPOLE', 'QUADRUPOLE', 'MULLIKEN_CHARGES')
f=open( 'psi4out.xyz', 'w' )
f.write( "14  " )
f.write( str(ee) + "\n" )
f.write( MOL.save_string_xyz() )
f.close()
--------------------------------------------------------------------------

    Molecular point group: c1

    Geometry (in Angstrom), charge = 0, multiplicity = 1:

       Center              X                  Y                   Z               Mass
    ------------   -----------------  -----------------  -----------------  -----------------
           H          1.923217588903     1.609222442058    -0.065394592343     1.007825032070
           O          1.034869588903     1.266275442058    -0.068811592343    15.994914619560
           C          1.104049588903    -0.062469557942     0.003853407657    12.000000000000
           C         -0.264577411097    -0.692707557942     0.003949407657    12.000000000000
           O          2.140782588903    -0.639550557942     0.060058407657    15.994914619560
           C         -1.400802411097     0.325569442058     0.003311407657    12.000000000000
           H         -0.320484411097    -1.346468557942    -0.862349592343     1.007825032070
           H         -0.320716411097    -1.345532557942     0.870939407657     1.007825032070
           C         -2.772565411097    -0.347085557942     0.003841407657    12.000000000000
           H         -1.304047411097     0.968892442058    -0.864594592343     1.007825032070
           H         -1.303946411097     0.970145442058     0.870281407657     1.007825032070
           H         -2.906173411097    -0.974358557942    -0.873083592343     1.007825032070
           H         -3.565816411097     0.393097442058     0.003705407657     1.007825032070
           H         -2.905813411097    -0.973623557942     0.881341407657     1.007825032070

  Charge       = 0
  Multiplicity = 1
  Basis Set: 6-31G*
  Basis Set:

    Orbital Energies (a.u.)
    -----------------------

    Doubly Occupied:

       1A    -20.614529     2A    -20.548706     3A    -11.382062
       4A    -11.241200     5A    -11.227049     6A    -11.217872
       7A     -1.475580     8A     -1.365277     9A     -1.086192
      10A     -0.977876    11A     -0.843615    12A     -0.819860
      13A     -0.699692    14A     -0.677987    15A     -0.668856
      16A     -0.613320    17A     -0.588768    18A     -0.565717
      19A     -0.548689    20A     -0.525487    21A     -0.495415
      22A     -0.493068    23A     -0.466165    24A     -0.436532

  @DF-RHF Final Energy:  -305.87677423436458

   => Energetics <=

    Nuclear Repulsion Energy =            241.7408104707432130
    One-Electron Energy =                -896.0761120408060378
    Two-Electron Energy =                 348.4585273356983066
    DFT Exchange-Correlation Energy =       0.0000000000000000
    Empirical Dispersion Energy =           0.0000000000000000
    PCM Polarization Energy =               0.0000000000000000
    EFP Energy =                            0.0000000000000000
    Total Energy =                       -305.8767742343645182

  Mulliken Charges: (a.u.)
   Center  Symbol    Alpha    Beta     Spin     Total
       1     H     0.26735  0.26735  0.00000  0.46530
       2     O     4.34986  4.34986  0.00000 -0.69972
       3     C     2.61905  2.61905  0.00000  0.76189
       4     C     3.21619  3.21619  0.00000 -0.43239
       5     O     4.28180  4.28180  0.00000 -0.56361
       6     C     3.15232  3.15232  0.00000 -0.30464
       7     H     0.39634  0.39634  0.00000  0.20732
       8     H     0.39625  0.39625  0.00000  0.20750
       9     C     3.24281  3.24281  0.00000 -0.48563
      10     H     0.41021  0.41021  0.00000  0.17958
      11     H     0.41170  0.41170  0.00000  0.17660
      12     H     0.42053  0.42053  0.00000  0.15894
      13     H     0.41509  0.41509  0.00000  0.16983
      14     H     0.42049  0.42049  0.00000  0.15901

   Total alpha = 24.00000, Total beta = 24.00000, Total charge = -0.00000
