  ==> Input File <==

--------------------------------------------------------------------------
set {
	reference rhf
	basis cc-pvtz
}

set_num_threads( 4 )
memory 2 gb

molecule MOL {
0 1

H	 3.083659	 -1.378387	 0.000000
O	 2.179005	 -1.633391	 0.000000
C	 1.366950	 -0.558201	 0.000000
C	 0.920623	 0.032752	 1.172283
C	 0.979686	 -0.045450	 -1.221120
H	 1.223283	 -0.367981	 2.122672
C	 0.089368	 1.133364	 1.121050
H	 1.322695	 -0.499606	 -2.128275
C	 0.146412	 1.057835	 -1.263338
H	 -0.249652	 1.582237	 2.034506
C	 -0.302661	 1.652423	 -0.096452
C	 -0.278069	 1.619862	 -2.572276
H	 -0.948981	 2.508174	 -0.139442
O	 0.045303	 1.191707	 -3.626570
H	 -0.936325	 2.491418	 -2.503804

	symmetry c1
}
set optking {
	frozen_dihedral = ("
		4 3 2 1
	")
}

ee = optimize('scf')
oeprop('DIPOLE', 'QUADRUPOLE', 'MULLIKEN_CHARGES')
f=open( 'psi4out.xyz', 'w' )
f.write( "15  " )
f.write( str(ee) + "\n" )
f.write( MOL.save_string_xyz() )
f.close()
--------------------------------------------------------------------------

    Molecular point group: c1
  Charge       = 0
  Multiplicity = 1
  Basis Set: CC-PVTZ
  Basis Set:
  @DF-RHF Final Energy:  -418.43439290985026
    Total Energy =                       -418.4343929098504304
    Molecular point group: c1
  Basis Set: CC-PVTZ
  Basis Set:
  Basis Set: CC-PVTZ
  Basis Set:
  @DF-RHF Final Energy:  -418.43521123166937
    Total Energy =                       -418.4352112316696548
  Basis Set: CC-PVTZ
  Basis Set:
  Basis Set: CC-PVTZ
  Basis Set:
  @DF-RHF Final Energy:  -418.43436663174811
    Total Energy =                       -418.4343666317479347
  Basis Set: CC-PVTZ
  Basis Set:
  Basis Set: CC-PVTZ
  Basis Set:
  @DF-RHF Final Energy:  -418.43531562915922
    Total Energy =                       -418.4353156291590494
  Basis Set: CC-PVTZ
  Basis Set:
  Basis Set: CC-PVTZ
  Basis Set:
  @DF-RHF Final Energy:  -418.43532447948212
    Total Energy =                       -418.4353244794818920
  Basis Set: CC-PVTZ
  Basis Set:
  Charge       = 0
  Multiplicity = 1
  Basis Set: CC-PVTZ
  Basis Set:

    Orbital Energies (a.u.)
    -----------------------

    Doubly Occupied:

       1A    -20.581595     2A    -20.555231     3A    -11.329051
       4A    -11.302946     5A    -11.251274     6A    -11.250083
       7A    -11.248941     8A    -11.247286     9A    -11.242567
      10A     -1.411268    11A     -1.409292    12A     -1.175327
      13A     -1.052734    14A     -1.030335    15A     -0.900505
      16A     -0.850500    17A     -0.804694    18A     -0.746809
      19A     -0.701876    20A     -0.685118    21A     -0.656894
      22A     -0.639317    23A     -0.623214    24A     -0.610625
      25A     -0.562333    26A     -0.549112    27A     -0.535528
      28A     -0.503443    29A     -0.492250    30A     -0.427469
      31A     -0.357170    32A     -0.347249

  @DF-RHF Final Energy:  -418.43532609633905

   => Energetics <=

    Nuclear Repulsion Energy =            403.5155802962440248
    One-Electron Energy =               -1369.7377418539990686
    Two-Electron Energy =                 547.7868354614161035
    DFT Exchange-Correlation Energy =       0.0000000000000000
    Empirical Dispersion Energy =           0.0000000000000000
    PCM Polarization Energy =               0.0000000000000000
    EFP Energy =                            0.0000000000000000
    Total Energy =                       -418.4353260963389403
    Molecular point group: c1
  Basis Set: CC-PVTZ
  Basis Set:

  -Total Gradient:
     Atom            X                  Y                   Z
    ------   -----------------  -----------------  -----------------
       1       -0.000015283693     0.000024368398     0.000229743491
       2        0.000126044085    -0.000066021531    -0.000344987690
       3       -0.000285626661     0.000043408233     0.000312772371
       4        0.000237723833    -0.000073772785    -0.000065483128
       5       -0.000027019258     0.000006312748    -0.000099976199
       6        0.000004350182    -0.000019067359     0.000002402996
       7       -0.000086180953     0.000181767519    -0.000129099026
       8       -0.000016108337     0.000007212432     0.000011224359
       9        0.000101227089    -0.000089935526    -0.000085142789
      10        0.000011087518    -0.000013893269    -0.000009759427
      11       -0.000022796568    -0.000035450334     0.000197575824
      12       -0.000020865900     0.000038089651     0.000016305338
      13       -0.000008705079     0.000004048117    -0.000038601462
      14        0.000005399064    -0.000008143817     0.000008488083
      15       -0.000003245325     0.000001077529    -0.000005462739

  **** Optimization is complete! (in 6 steps) ****
    Final optimized geometry and variables:
    Molecular point group: c1

    Geometry (in Angstrom), charge = 0, multiplicity = 1:

    H            2.475549661166    -1.873502861293     0.830785303858
    O            1.566324499922    -2.115405439050     0.799864080864
    C            0.771618583657    -1.006297805811     0.747031987388
    C            0.324862353320    -0.425137372764     1.924138501977
    C            0.375902197790    -0.498855423602    -0.468303439480
    H            0.633120206772    -0.846938563174     2.861189580419
    C           -0.512087994653     0.669875246603     1.881685227076
    H            0.708240839005    -0.954260418760    -1.379400205555
    C           -0.466463829043     0.603705568011    -0.509322400217
    H           -0.855644302902     1.115068878472     2.795072744826
    C           -0.909508829799     1.187795050690     0.662143830912
    C           -0.899703056271     1.165131408855    -1.813290798154
    H           -1.563181211038     2.038901620647     0.624226569929
    O           -0.568529696161     0.747989081971    -2.870007496994
    H           -1.571801650165     2.026059916826    -1.740335631940

  Mulliken Charges: (a.u.)
   Center  Symbol    Alpha    Beta     Spin     Total
       1     H     0.38747  0.38747  0.00000  0.22506
       2     O     4.18854  4.18854  0.00000 -0.37708
       3     C     2.86184  2.86184  0.00000  0.27632
       4     C     3.10332  3.10332  0.00000 -0.20664
       5     C     3.12047  3.12047  0.00000 -0.24094
       6     H     0.41370  0.41370  0.00000  0.17260
       7     C     3.06742  3.06742  0.00000 -0.13485
       8     H     0.40244  0.40244  0.00000  0.19511
       9     C     2.98090  2.98090  0.00000  0.03819
      10     H     0.41861  0.41861  0.00000  0.16279
      11     C     3.09709  3.09709  0.00000 -0.19418
      12     C     2.90881  2.90881  0.00000  0.18239
      13     H     0.42229  0.42229  0.00000  0.15541
      14     O     4.17066  4.17066  0.00000 -0.34133
      15     H     0.45643  0.45643  0.00000  0.08714

   Total alpha = 32.00000, Total beta = 32.00000, Total charge = -0.00000
