                              Psi4 1.0.54 Driver

  ==> Input File <==

--------------------------------------------------------------------------
set {
	reference rhf
	basis cc-pvtz
}

set_num_threads( 4 )
memory 2 gb

molecule MOL {
0 1

H	 3.721907	 -0.933076	 -0.066039
O	 2.824271	 -1.154299	 0.131461
C	 2.076458	 -0.067370	 -0.038225
C	 0.626018	 -0.337582	 0.258241
O	 2.538288	 0.965419	 -0.381593
C	 -0.267326	 0.883135	 0.076490
H	 0.325620	 -1.161483	 -0.378003
H	 0.574537	 -0.713685	 1.275261
C	 -1.726822	 0.642622	 0.463839
H	 -0.210803	 1.217591	 -0.953497
H	 0.129920	 1.693110	 0.675679
C	 -2.682132	 1.788247	 0.133739
H	 -1.764878	 0.458940	 1.533450
H	 -2.082224	 -0.269530	 -0.010624
C	 -4.099922	 1.536190	 0.636547
H	 -2.302329	 2.706771	 0.573168
H	 -2.713892	 1.952597	 -0.938612
H	 -4.756074	 2.363393	 0.391836
H	 -4.115880	 1.408154	 1.713603
H	 -4.518725	 0.639399	 0.192110

	symmetry c1
}
set optking {
	frozen_dihedral = ("
		12 9 6 10
	")
}

ee,wfn = optimize('scf', return_wfn=True)
oeprop( wfn, 'DIPOLE', 'QUADRUPOLE', 'MULLIKEN_CHARGES')
f=open( 'psi4out.xyz', 'w' )
f.write( "20  " )
f.write( str(ee) + "\n" )
f.write( MOL.save_string_xyz() )
f.close()
--------------------------------------------------------------------------

    Molecular point group: c1
  Charge       = 0
  Multiplicity = 1
  Basis Set: CC-PVTZ
  Basis Set:
  @DF-RHF Final Energy:  -384.09604527607991
    Total Energy =                       -384.0960452760798489
    Molecular point group: c1
  Basis Set: CC-PVTZ
  Basis Set:
  Basis Set: CC-PVTZ
  Basis Set:
  @DF-RHF Final Energy:  -384.09648766046496
    Total Energy =                       -384.0964876604648452
  Basis Set: CC-PVTZ
  Basis Set:
  Basis Set: CC-PVTZ
  Basis Set:
  @DF-RHF Final Energy:  -384.09630499861504
    Total Energy =                       -384.0963049986150395
  Basis Set: CC-PVTZ
  Basis Set:
  Basis Set: CC-PVTZ
  Basis Set:
  @DF-RHF Final Energy:  -384.09652939566882
    Total Energy =                       -384.0965293956686537
  Basis Set: CC-PVTZ
  Basis Set:
  Basis Set: CC-PVTZ
  Basis Set:
  @DF-RHF Final Energy:  -384.09653202796511
    Total Energy =                       -384.0965320279646562
  Basis Set: CC-PVTZ
  Basis Set:
  Charge       = 0
  Multiplicity = 1
  Basis Set: CC-PVTZ
  Basis Set:

    Orbital Energies (a.u.)
    -----------------------

    Doubly Occupied:

       1A    -20.604004     2A    -20.540596     3A    -11.373534
       4A    -11.239281     5A    -11.220678     6A    -11.218304
       7A    -11.216456     8A    -11.209196     9A     -1.477576
      10A     -1.369100    11A     -1.097270    12A     -1.043988
      13A     -0.960831    14A     -0.869450    15A     -0.804947
      16A     -0.791427    17A     -0.703824    18A     -0.688701
      19A     -0.672893    20A     -0.640441    21A     -0.597522
      22A     -0.594808    23A     -0.571248    24A     -0.565158
      25A     -0.538854    26A     -0.511646    27A     -0.488104
      28A     -0.484547    29A     -0.472993    30A     -0.467543
      31A     -0.466760    32A     -0.444318

  @DF-RHF Final Energy:  -384.09653255849207

   => Energetics <=

    Nuclear Repulsion Energy =            372.2438256669968268
    One-Electron Energy =               -1260.7887338495099812
    Two-Electron Energy =                 504.4483756240208550
    DFT Exchange-Correlation Energy =       0.0000000000000000
    Empirical Dispersion Energy =           0.0000000000000000
    PCM Polarization Energy =               0.0000000000000000
    EFP Energy =                            0.0000000000000000
    Total Energy =                       -384.0965325584922994
    Molecular point group: c1
  Basis Set: CC-PVTZ
  Basis Set:

  -Total Gradient:
     Atom            X                  Y                   Z
    ------   -----------------  -----------------  -----------------
       1       -0.000001978578     0.000007915956    -0.000001604921
       2       -0.000023300713    -0.000016518973     0.000004536807
       3       -0.000007677497     0.000063725883    -0.000002597852
       4       -0.000014088349    -0.000014961921    -0.000022132681
       5       -0.000004869646    -0.000014341018     0.000007461139
       6        0.000055280689    -0.002075541213    -0.001059773301
       7       -0.000002049698     0.000000242448     0.000003831614
       8       -0.000007585670     0.000005476780     0.000010624534
       9        0.000261415442     0.001031658730     0.001641865821
      10       -0.000098741421     0.001514679684     0.000489140749
      11        0.000002276086     0.000000999982     0.000012756422
      12       -0.000209431636    -0.000448257201    -0.001096064112
      13       -0.000012095265    -0.000012224915     0.000016304634
      14        0.000006333441     0.000012536591    -0.000018344447
      15        0.000021513537    -0.000049810482     0.000026336119
      16        0.000022020491    -0.000003408433     0.000001561629
      17       -0.000003277624     0.000003144576    -0.000019046629
      18        0.000036833498     0.000001075208    -0.000003884515
      19       -0.000008730656    -0.000003145752     0.000013534572
      20       -0.000011846433    -0.000003245931    -0.000004505586

  **** Optimization is complete! (in 6 steps) ****
    Final optimized geometry and variables:
    Molecular point group: c1

    Geometry (in Angstrom), charge = 0, multiplicity = 1:

    H            3.709089613608    -1.538147390448    -0.355792438169
    O            2.817056747365    -1.728306048342    -0.107086782979
    C            2.094232645905    -0.621624378005    -0.255199376363
    C            0.654434011166    -0.841683205012     0.122191797435
    O            2.566889394675     0.391441716994    -0.640204951182
    C           -0.216564285053     0.395386652134    -0.036055936695
    H            0.287528551404    -1.663564415772    -0.483810017952
    H            0.644572318440    -1.202478837387     1.145761172203
    C           -1.663222491712     0.148565541621     0.383207544533
    H           -0.181966785767     0.737319507178    -1.064238227912
    H            0.201587236316     1.202711311593     0.554724336338
    C           -2.587061500871     1.320023474675     0.063321301203
    H           -1.701542029201    -0.064184964096     1.448919490135
    H           -2.039371884005    -0.741369489790    -0.117000490530
    C           -4.026954589596     1.084813310549     0.506647932984
    H           -2.205657163908     2.219407054355     0.538931035464
    H           -2.564720686234     1.508940700814    -1.006055873296
    H           -4.656173108646     1.932122467894     0.260173220143
    H           -4.086542082846     0.929737549128     1.578803279699
    H           -4.447583667899     0.209141089025     0.023344338954

  Mulliken Charges: (a.u.)
   Center  Symbol    Alpha    Beta     Spin     Total
       1     H     0.38244  0.38244  0.00000  0.23512
       2     O     4.15970  4.15970  0.00000 -0.31939
       3     C     2.80462  2.80462  0.00000  0.39076
       4     C     3.11224  3.11224  0.00000 -0.22448
       5     O     4.19133  4.19133  0.00000 -0.38266
       6     C     3.08443  3.08443  0.00000 -0.16886
       7     H     0.43792  0.43792  0.00000  0.12417
       8     H     0.43793  0.43793  0.00000  0.12414
       9     C     3.08848  3.08848  0.00000 -0.17696
      10     H     0.44627  0.44627  0.00000  0.10747
      11     H     0.44545  0.44545  0.00000  0.10910
      12     C     3.08429  3.08429  0.00000 -0.16858
      13     H     0.45428  0.45428  0.00000  0.09144
      14     H     0.45645  0.45645  0.00000  0.08710
      15     C     3.15030  3.15030  0.00000 -0.30059
      16     H     0.45298  0.45298  0.00000  0.09404
      17     H     0.45308  0.45308  0.00000  0.09384
      18     H     0.44752  0.44752  0.00000  0.10495
      19     H     0.45504  0.45504  0.00000  0.08991
      20     H     0.45526  0.45526  0.00000  0.08948

   Total alpha = 32.00000, Total beta = 32.00000, Total charge =  0.00000

*** Psi4 exiting successfully. Buy a developer a beer!
