  ==> Input File <==

--------------------------------------------------------------------------
set {
	reference rhf
	basis 6-31G*
}

set_num_threads( 1 )
memory 2 gb

molecule MOL {
0 1

O	 -0.682937	 1.318834	 -0.186099
C	 -0.860635	 0.152188	 -0.042321
C	 -2.173363	 -0.477127	 0.338347
O	 0.083258	 -0.765189	 -0.202595
H	 -2.477673	 -1.180929	 -0.427595
H	 -2.923125	 0.290956	 0.455536
H	 -2.058825	 -1.029004	 1.264191
C	 1.432622	 -0.330504	 -0.354467
C	 2.090171	 -0.077029	 0.989417
H	 1.453197	 0.553032	 -0.974210
H	 1.920767	 -1.139946	 -0.877933
H	 3.135450	 0.178127	 0.844442
H	 1.608417	 0.743563	 1.506051
H	 2.039070	 -0.963478	 1.612324

	symmetry c1
}
set optking {
	frozen_dihedral = ("
		10 8 4 2
	")
}

ee = energy('scf')
oeprop('DIPOLE', 'QUADRUPOLE', 'MULLIKEN_CHARGES')
f=open( 'psi4out.xyz', 'w' )
f.write( "14  " )
f.write( str(ee) + "\n" )
f.write( MOL.save_string_xyz() )
f.close()
--------------------------------------------------------------------------

    Molecular point group: c1

    Geometry (in Angstrom), charge = 0, multiplicity = 1:

       Center              X                  Y                   Z               Mass
    ------------   -----------------  -----------------  -----------------  -----------------
           O         -0.671490522906     1.347246324108    -0.281315199836    15.994914619560
           C         -0.849188522906     0.180600324108    -0.137537199836    12.000000000000
           C         -2.161916522906    -0.448714675892     0.243130800164    12.000000000000
           O          0.094704477094    -0.736776675892    -0.297811199836    15.994914619560
           H         -2.466226522906    -1.152516675892    -0.522811199836     1.007825032070
           H         -2.911678522906     0.319368324108     0.360319800164     1.007825032070
           H         -2.047378522906    -1.000591675892     1.168974800164     1.007825032070
           C          1.444068477094    -0.302091675892    -0.449683199836    12.000000000000
           C          2.101617477094    -0.048616675892     0.894200800164    12.000000000000
           H          1.464643477094     0.581444324108    -1.069426199836     1.007825032070
           H          1.932213477094    -1.111533675892    -0.973149199836     1.007825032070
           H          3.146896477094     0.206539324108     0.749225800164     1.007825032070
           H          1.619863477094     0.771975324108     1.410834800164     1.007825032070
           H          2.050516477094    -0.935065675892     1.517107800164     1.007825032070

  Charge       = 0
  Multiplicity = 1
  Basis Set: 6-31G*
  Basis Set:

    Orbital Energies (a.u.)
    -----------------------

    Doubly Occupied:

       1A    -20.601366     2A    -20.544649     3A    -11.375911
       4A    -11.285055     5A    -11.233340     6A    -11.220708
       7A     -1.467411     8A     -1.362797     9A     -1.055232
      10A     -0.999796    11A     -0.883182    12A     -0.764852
      13A     -0.698970    14A     -0.682187    15A     -0.658673
      16A     -0.610956    17A     -0.587649    18A     -0.570206
      19A     -0.558248    20A     -0.529091    21A     -0.519257
      22A     -0.493676    23A     -0.450828    24A     -0.438695

  @DF-RHF Final Energy:  -305.87486667574944

   => Energetics <=

    Nuclear Repulsion Energy =            248.7447544283973855
    One-Electron Energy =                -910.0537679697984004
    Two-Electron Energy =                 355.4341468656512575
    DFT Exchange-Correlation Energy =       0.0000000000000000
    Empirical Dispersion Energy =           0.0000000000000000
    PCM Polarization Energy =               0.0000000000000000
    EFP Energy =                            0.0000000000000000
    Total Energy =                       -305.8748666757497290

  Mulliken Charges: (a.u.)
   Center  Symbol    Alpha    Beta     Spin     Total
       1     O     4.28399  4.28399  0.00000 -0.56797
       2     C     2.61954  2.61954  0.00000  0.76091
       3     C     3.28189  3.28189  0.00000 -0.56378
       4     O     4.30748  4.30748  0.00000 -0.61497
       5     H     0.39981  0.39981  0.00000  0.20038
       6     H     0.39714  0.39714  0.00000  0.20572
       7     H     0.40101  0.40101  0.00000  0.19797
       8     C     3.00824  3.00824  0.00000 -0.01649
       9     C     3.25468  3.25468  0.00000 -0.50937
      10     H     0.40032  0.40032  0.00000  0.19937
      11     H     0.41008  0.41008  0.00000  0.17984
      12     H     0.41645  0.41645  0.00000  0.16710
      13     H     0.40545  0.40545  0.00000  0.18911
      14     H     0.41391  0.41391  0.00000  0.17217

   Total alpha = 24.00000, Total beta = 24.00000, Total charge =  0.00000
