  ==> Input File <==

--------------------------------------------------------------------------
set {
	reference rhf
	basis cc-pvtz
}

set_num_threads( 4 )
memory 2 gb

molecule MOL {
0 1

H	 -2.498963	 -0.741158	 -0.729149
O	 -2.346257	 -0.289210	 0.080372
C	 -1.183935	 0.486039	 -0.009831
C	 0.062853	 -0.375310	 0.027457
H	 -1.178881	 1.094526	 -0.908634
H	 -1.184406	 1.155156	 0.838676
O	 1.137395	 0.392545	 -0.405220
H	 -0.067806	 -1.247226	 -0.615650
H	 0.223776	 -0.738204	 1.040366
C	 2.361466	 -0.265281	 -0.393564
H	 2.351573	 -1.134846	 -1.047041
H	 3.112404	 0.426393	 -0.746219
H	 2.627752	 -0.591270	 0.609104

	symmetry c1
}
set optking {
	frozen_dihedral = ("
		8 4 3 5
	")
}

ee = optimize('scf')
oeprop('DIPOLE', 'QUADRUPOLE', 'MULLIKEN_CHARGES')
f=open( 'psi4out.xyz', 'w' )
f.write( "13  " )
f.write( str(ee) + "\n" )
f.write( MOL.save_string_xyz() )
f.close()
--------------------------------------------------------------------------

    Molecular point group: c1
  Charge       = 0
  Multiplicity = 1
  Basis Set: CC-PVTZ
  Basis Set:
  @DF-RHF Final Energy:  -268.06128517326903
    Total Energy =                       -268.0612851732689705
    Molecular point group: c1
  Basis Set: CC-PVTZ
  Basis Set:
  Basis Set: CC-PVTZ
  Basis Set:
  @DF-RHF Final Energy:  -268.06142625068617
    Total Energy =                       -268.0614262506861110
  Basis Set: CC-PVTZ
  Basis Set:
  Basis Set: CC-PVTZ
  Basis Set:
  @DF-RHF Final Energy:  -268.06146739135158
    Total Energy =                       -268.0614673913518118
  Basis Set: CC-PVTZ
  Basis Set:
  Basis Set: CC-PVTZ
  Basis Set:
  @DF-RHF Final Energy:  -268.06146860040758
    Total Energy =                       -268.0614686004076361
  Basis Set: CC-PVTZ
  Basis Set:
  Charge       = 0
  Multiplicity = 1
  Basis Set: CC-PVTZ
  Basis Set:

    Orbital Energies (a.u.)
    -----------------------

    Doubly Occupied:

       1A    -20.556948     2A    -20.553107     3A    -11.269747
       4A    -11.268278     5A    -11.267411     6A     -1.392910
       7A     -1.369824     8A     -1.019438     9A     -0.914787
      10A     -0.843544    11A     -0.711307    12A     -0.678366
      13A     -0.662995    14A     -0.636328    15A     -0.604009
      16A     -0.569979    17A     -0.544738    18A     -0.492388
      19A     -0.483759    20A     -0.441477    21A     -0.424529

  @DF-RHF Final Energy:  -268.06146872796432

   => Energetics <=

    Nuclear Repulsion Energy =            190.4698387182804140
    One-Electron Energy =                -743.6508769381325692
    Two-Electron Energy =                 285.1195694918879440
    DFT Exchange-Correlation Energy =       0.0000000000000000
    Empirical Dispersion Energy =           0.0000000000000000
    PCM Polarization Energy =               0.0000000000000000
    EFP Energy =                            0.0000000000000000
    Total Energy =                       -268.0614687279641544
    Molecular point group: c1
  Basis Set: CC-PVTZ
  Basis Set:

  -Total Gradient:
     Atom            X                  Y                   Z
    ------   -----------------  -----------------  -----------------
       1       -0.000005780759     0.000002879918     0.000001010929
       2        0.000010603769    -0.000000719588    -0.000011877461
       3       -0.002112338248    -0.003098488318    -0.001243326652
       4        0.001708454020     0.002496192103    -0.002577892820
       5        0.001505433570     0.002174792559     0.001481562856
       6        0.000002641995     0.000006117199     0.000003677258
       7        0.000004576979    -0.000009317129     0.000008079961
       8       -0.001116056322    -0.001585781617     0.002332065008
       9        0.000005056980     0.000014082581     0.000002017930
      10       -0.000001602593    -0.000003308092     0.000010463179
      11        0.000000503940     0.000000488530    -0.000003920067
      12       -0.000004778906     0.000002037184    -0.000002267327
      13        0.000003285565     0.000001024669     0.000000407206

  **** Optimization is complete! (in 5 steps) ****
    Final optimized geometry and variables:
    Molecular point group: c1

    Geometry (in Angstrom), charge = 0, multiplicity = 1:

    H           -2.502781471402    -0.726704094247    -0.531503337237
    O           -2.337856599559    -0.250830514131     0.261927946605
    C           -1.171810058026     0.509831166138     0.133339907848
    C            0.075368228320    -0.356327176294     0.141899175219
    H           -1.172273809161     1.123260860534    -0.762127747956
    H           -1.149919234341     1.186532563290     0.976264179894
    O            1.153500110994     0.413558450267    -0.274077350103
    H           -0.071840636229    -1.220345175264    -0.508055661431
    H            0.243913370114    -0.748408679980     1.143333299767
    C            2.381126679758    -0.236617283261    -0.229746299932
    H            2.388367152037    -1.115550092706    -0.870545257896
    H            3.134221139350     0.454626398497    -0.578516813506
    H            2.630388007372    -0.546406469287     0.782296413351

  Mulliken Charges: (a.u.)
   Center  Symbol    Alpha    Beta     Spin     Total
       1     H     0.39365  0.39365  0.00000  0.21271
       2     O     4.20249  4.20249  0.00000 -0.40498
       3     C     2.97186  2.97186  0.00000  0.05627
       4     C     2.96309  2.96309  0.00000  0.07381
       5     H     0.46729  0.46729  0.00000  0.06542
       6     H     0.45466  0.45466  0.00000  0.09068
       7     O     4.17504  4.17504  0.00000 -0.35008
       8     H     0.48235  0.48235  0.00000  0.03531
       9     H     0.47174  0.47174  0.00000  0.05652
      10     C     3.03111  3.03111  0.00000 -0.06222
      11     H     0.47112  0.47112  0.00000  0.05775
      12     H     0.44595  0.44595  0.00000  0.10811
      13     H     0.46966  0.46966  0.00000  0.06069

   Total alpha = 21.00000, Total beta = 21.00000, Total charge = -0.00000
