                              Psi4 1.0.54 Driver

  ==> Input File <==

--------------------------------------------------------------------------
set {
	reference rhf
	basis cc-pvtz
}

set_num_threads( 4 )
memory 2 gb

molecule MOL {
0 1

H	 -0.355557	 2.505562	 -0.175779
C	 0.352894	 2.015138	 0.504836
C	 0.692262	 0.592428	 0.156232
O	 0.785977	 2.605253	 1.433188
C	 -0.554654	 -0.292621	 0.086567
H	 1.399731	 0.220048	 0.885380
H	 1.181828	 0.603323	 -0.815408
C	 -1.846385	 0.513195	 -0.016346
H	 -0.473986	 -0.956115	 -0.769708
H	 -0.597929	 -0.929215	 0.966651
C	 -3.089953	 -0.365049	 -0.098564
H	 -1.798267	 1.154820	 -0.891143
H	 -1.925398	 1.173265	 0.842889
H	 -3.055079	 -1.012299	 -0.968245
H	 -3.988403	 0.236438	 -0.170014
H	 -3.183055	 -0.995885	 0.779079

	symmetry c1
}
set optking {
	frozen_dihedral = ("
		6 3 5 9
	")
}

ee,wfn = optimize('scf', return_wfn=True)
oeprop( wfn, 'DIPOLE', 'QUADRUPOLE', 'MULLIKEN_CHARGES')
f=open( 'psi4out.xyz', 'w' )
f.write( "16  " )
f.write( str(ee) + "\n" )
f.write( MOL.save_string_xyz() )
f.close()
--------------------------------------------------------------------------

    Molecular point group: c1
  Charge       = 0
  Multiplicity = 1
  Basis Set: CC-PVTZ
  Basis Set:
  @DF-RHF Final Energy:  -270.10804627682427
    Total Energy =                       -270.1080462768243819
    Molecular point group: c1
  Basis Set: CC-PVTZ
  Basis Set:
  Basis Set: CC-PVTZ
  Basis Set:
  @DF-RHF Final Energy:  -270.10823339557817
    Total Energy =                       -270.1082333955783952
  Basis Set: CC-PVTZ
  Basis Set:
  Basis Set: CC-PVTZ
  Basis Set:
  @DF-RHF Final Energy:  -270.11084955039189
    Total Energy =                       -270.1108495503918903
  Basis Set: CC-PVTZ
  Basis Set:
  Basis Set: CC-PVTZ
  Basis Set:
  @DF-RHF Final Energy:  -270.11122476270259
    Total Energy =                       -270.1112247627024203
  Basis Set: CC-PVTZ
  Basis Set:
  @DF-RHF Final Energy:  -270.10892400111481
    Total Energy =                       -270.1089240011149286
  @DF-RHF Final Energy:  -270.11145545428025
    Total Energy =                       -270.1114554542803035
  Basis Set: CC-PVTZ
  Basis Set:
  @DF-RHF Final Energy:  -270.11147350468104
    Total Energy =                       -270.1114735046810438
  Basis Set: CC-PVTZ
  Basis Set:
  Basis Set: CC-PVTZ
  Basis Set:
  @DF-RHF Final Energy:  -270.11148465474804
    Total Energy =                       -270.1114846547481534
  Basis Set: CC-PVTZ
  Basis Set:
  Basis Set: CC-PVTZ
  Basis Set:
  @DF-RHF Final Energy:  -270.11149218274073
    Total Energy =                       -270.1114921827406192
  Basis Set: CC-PVTZ
  Basis Set:
  Charge       = 0
  Multiplicity = 1
  Basis Set: CC-PVTZ
  Basis Set:

    Orbital Energies (a.u.)
    -----------------------

    Doubly Occupied:

       1A    -20.550619     2A    -11.319947     3A    -11.234417
       4A    -11.233563     5A    -11.228313     6A    -11.216848
       7A     -1.405374     8A     -1.094190     9A     -1.016521
      10A     -0.906080    11A     -0.834397    12A     -0.771670
      13A     -0.681873    14A     -0.647553    15A     -0.626932
      16A     -0.604120    17A     -0.581537    18A     -0.562811
      19A     -0.525953    20A     -0.514928    21A     -0.493231
      22A     -0.476450    23A     -0.471760    24A     -0.409495

  @DF-RHF Final Energy:  -270.11149262049304

   => Energetics <=

    Nuclear Repulsion Energy =            234.3307144050701822
    One-Electron Energy =                -830.0672494950563305
    Two-Electron Energy =                 325.6250424694931667
    DFT Exchange-Correlation Energy =       0.0000000000000000
    Empirical Dispersion Energy =           0.0000000000000000
    PCM Polarization Energy =               0.0000000000000000
    EFP Energy =                            0.0000000000000000
    Total Energy =                       -270.1114926204929247
    Molecular point group: c1
  Basis Set: CC-PVTZ
  Basis Set:

  -Total Gradient:
     Atom            X                  Y                   Z
    ------   -----------------  -----------------  -----------------
       1        0.000006127654     0.000001332513    -0.000010159737
       2       -0.000023651994    -0.000033397127     0.000007481620
       3        0.001469451603    -0.002390053333    -0.004243852042
       4        0.000014157500     0.000015038777     0.000010877818
       5        0.001777199489    -0.002971749669     0.003481766511
       6       -0.001474057410     0.002456405485     0.003012032897
       7       -0.000010355745    -0.000005669462     0.000009799678
       8       -0.000019448375     0.000011213331    -0.000011717660
       9       -0.001756944272     0.002918617560    -0.002277540449
      10        0.000015941635    -0.000005660448     0.000015575124
      11        0.000020447400     0.000004755843     0.000004648976
      12       -0.000009878585    -0.000002172458     0.000005040695
      13       -0.000011531742    -0.000004446084    -0.000004281901
      14        0.000002198543     0.000002471908    -0.000000724522
      15       -0.000001044772     0.000003291565     0.000001251559
      16        0.000001389072     0.000000021603    -0.000000198566

  **** Optimization is complete! (in 10 steps) ****
    Final optimized geometry and variables:
    Molecular point group: c1

    Geometry (in Angstrom), charge = 0, multiplicity = 1:

    H            0.627240721870     1.804808319653    -0.590168386471
    C            1.151128903224     1.153168171912     0.117083228024
    C            1.286224974672    -0.292993684953    -0.288377512369
    O            1.584598736465     1.604305179407     1.121312449788
    C           -0.043390538531    -1.090249605894    -0.287092906201
    H            1.985294364870    -0.731161164570     0.410072305162
    H            1.726127706901    -0.304950619160    -1.280623629063
    C           -1.329061446116    -0.261659851292    -0.352825919636
    H           -0.045011140140    -1.753941844850    -1.144200392245
    H           -0.076821595613    -1.710417531938     0.600204729123
    C           -2.574832973236    -1.140924130248    -0.360628214410
    H           -1.326243067496     0.357491399273    -1.245448226087
    H           -1.379633822587     0.416338115124     0.493683256774
    H           -2.578154335491    -1.808181425144    -1.215922083754
    H           -3.475758895672    -0.540699991354    -0.405356958940
    H           -2.627281105716    -1.750980461577     0.534630987371

  Mulliken Charges: (a.u.)
   Center  Symbol    Alpha    Beta     Spin     Total
       1     H     0.46080  0.46080  0.00000  0.07840
       2     C     2.90687  2.90687  0.00000  0.18626
       3     C     3.08633  3.08633  0.00000 -0.17266
       4     O     4.16684  4.16684  0.00000 -0.33368
       5     C     3.09590  3.09590  0.00000 -0.19179
       6     H     0.44102  0.44102  0.00000  0.11796
       7     H     0.44867  0.44867  0.00000  0.10266
       8     C     3.10006  3.10006  0.00000 -0.20012
       9     H     0.44925  0.44925  0.00000  0.10151
      10     H     0.44515  0.44515  0.00000  0.10970
      11     C     3.14966  3.14966  0.00000 -0.29932
      12     H     0.45033  0.45033  0.00000  0.09933
      13     H     0.44569  0.44569  0.00000  0.10862
      14     H     0.45438  0.45438  0.00000  0.09125
      15     H     0.44616  0.44616  0.00000  0.10768
      16     H     0.45290  0.45290  0.00000  0.09420

   Total alpha = 24.00000, Total beta = 24.00000, Total charge =  0.00000

*** Psi4 exiting successfully. Buy a developer a beer!
