                              Psi4 1.0.54 Driver

  ==> Input File <==

--------------------------------------------------------------------------
set {
	reference rhf
	basis cc-pvtz
}

set_num_threads( 4 )
memory 2 gb

molecule MOL {
0 1

O	 2.116945	 1.809225	 -0.188707
C	 0.975855	 1.448955	 -0.241986
C	 -0.129575	 2.463612	 -0.450138
N	 0.622280	 0.144970	 -0.099307
H	 -0.836294	 2.450960	 0.370066
H	 0.331755	 3.435371	 -0.508043
H	 -0.673898	 2.271666	 -1.366567
C	 1.664396	 -0.854993	 0.000772
C	 -0.699754	 -0.366667	 -0.371717
H	 2.462727	 -0.615153	 -0.690869
H	 1.261798	 -1.821849	 -0.240651
H	 2.081615	 -0.891605	 1.003877
H	 -0.903896	 -1.196586	 0.292508
H	 -1.458005	 0.378741	 -0.203434
H	 -0.792856	 -0.727527	 -1.393557

	symmetry c1
}
set optking {
	frozen_dihedral = ("
		2 4 8 10
	")
}

ee,wfn = optimize('scf', return_wfn=True)
oeprop( wfn, 'DIPOLE', 'QUADRUPOLE', 'MULLIKEN_CHARGES')
f=open( 'psi4out.xyz', 'w' )
f.write( "15  " )
f.write( str(ee) + "\n" )
f.write( MOL.save_string_xyz() )
f.close()
--------------------------------------------------------------------------

    Molecular point group: c1
  Charge       = 0
  Multiplicity = 1
  Basis Set: CC-PVTZ
  Basis Set:
  @DF-RHF Final Energy:  -286.13380493340958
    Total Energy =                       -286.1338049334095786
    Molecular point group: c1
  Basis Set: CC-PVTZ
  Basis Set:
  Basis Set: CC-PVTZ
  Basis Set:
  @DF-RHF Final Energy:  -286.13436070463763
    Total Energy =                       -286.1343607046376292
  Basis Set: CC-PVTZ
  Basis Set:
  Basis Set: CC-PVTZ
  Basis Set:
  @DF-RHF Final Energy:  -286.13450957952602
    Total Energy =                       -286.1345095795261386
  Basis Set: CC-PVTZ
  Basis Set:
  Basis Set: CC-PVTZ
  Basis Set:
  @DF-RHF Final Energy:  -286.13459506788257
    Total Energy =                       -286.1345950678827421
  Basis Set: CC-PVTZ
  Basis Set:
  @DF-RHF Final Energy:  -286.13477901614959
    Total Energy =                       -286.1347790161497642
  @DF-RHF Final Energy:  -286.13485520700539
    Total Energy =                       -286.1348552070052733
  @DF-RHF Final Energy:  -286.13489653290287
    Total Energy =                       -286.1348965329028147
  @DF-RHF Final Energy:  -286.13492995120197
    Total Energy =                       -286.1349299512020252
  @DF-RHF Final Energy:  -286.13502049856277
    Total Energy =                       -286.1350204985627670
  @DF-RHF Final Energy:  -286.13510803172574
    Total Energy =                       -286.1351080317260198
  @DF-RHF Final Energy:  -286.13519506934847
    Total Energy =                       -286.1351950693483559
  @DF-RHF Final Energy:  -286.13486555784311
    Total Energy =                       -286.1348655578429998
  @DF-RHF Final Energy:  -286.13540451637880
    Total Energy =                       -286.1354045163787987
  Basis Set: CC-PVTZ
  Basis Set:
  @DF-RHF Final Energy:  -286.13546583792936
    Total Energy =                       -286.1354658379292459
  Basis Set: CC-PVTZ
  Basis Set:
  Basis Set: CC-PVTZ
  Basis Set:
  @DF-RHF Final Energy:  -286.13549076254424
    Total Energy =                       -286.1354907625441228
  Basis Set: CC-PVTZ
  Basis Set:
  Basis Set: CC-PVTZ
  Basis Set:
  @DF-RHF Final Energy:  -286.13549534679350
    Total Energy =                       -286.1354953467935616
  Basis Set: CC-PVTZ
  Basis Set:
  Charge       = 0
  Multiplicity = 1
  Basis Set: CC-PVTZ
  Basis Set:

    Orbital Energies (a.u.)
    -----------------------

    Doubly Occupied:

       1A    -20.504977     2A    -15.577800     3A    -11.334260
       4A    -11.263963     5A    -11.246673     6A    -11.226610
       7A     -1.388410     8A     -1.245388     9A     -1.014909
      10A     -0.973209    11A     -0.919747    12A     -0.738584
      13A     -0.682680    14A     -0.661196    15A     -0.653815
      16A     -0.589771    17A     -0.578282    18A     -0.568946
      19A     -0.563109    20A     -0.547476    21A     -0.530317
      22A     -0.505028    23A     -0.414849    24A     -0.371405

  @DF-RHF Final Energy:  -286.13549600080353

   => Energetics <=

    Nuclear Repulsion Energy =            253.0578496478366048
    One-Electron Energy =                -890.1838870603460236
    Two-Electron Energy =                 350.9905414117060900
    DFT Exchange-Correlation Energy =       0.0000000000000000
    Empirical Dispersion Energy =           0.0000000000000000
    PCM Polarization Energy =               0.0000000000000000
    EFP Energy =                            0.0000000000000000
    Total Energy =                       -286.1354960008033004
    Molecular point group: c1
  Basis Set: CC-PVTZ
  Basis Set:

  -Total Gradient:
     Atom            X                  Y                   Z
    ------   -----------------  -----------------  -----------------
       1       -0.000016739890    -0.000019776659     0.000000748738
       2       -0.000068769563    -0.000018660160     0.000430372688
       3       -0.000006876495    -0.000016612645    -0.000033296366
       4        0.000126509483    -0.000024043943    -0.000750597301
       5       -0.000001548545    -0.000007162382     0.000005710175
       6       -0.000000831139    -0.000003650384     0.000005131073
       7       -0.000003871916     0.000004736904     0.000006001760
       8        0.000072357354     0.000286338529     0.000740163221
       9        0.000016808355    -0.000001079789     0.000044645242
      10       -0.000103290569    -0.000216409692    -0.000443113074
      11        0.000006741732     0.000003740423    -0.000003069382
      12        0.000001423560    -0.000000769896     0.000005835794
      13       -0.000018048529    -0.000006445894    -0.000008179505
      14       -0.000005124965     0.000007821762    -0.000002214771
      15        0.000001261127     0.000011973824     0.000001861706

  **** Optimization is complete! (in 17 steps) ****
    Final optimized geometry and variables:
    Molecular point group: c1

    Geometry (in Angstrom), charge = 0, multiplicity = 1:

    O            1.344204347458     1.024750191281     0.221424353763
    C            0.217083842967     0.680822248172     0.008625377576
    C           -0.880794487087     1.714320543258    -0.131599487972
    N           -0.112920491618    -0.629507019717    -0.138772245931
    H           -1.613114935635     1.616398088284     0.660608421885
    H           -0.419714600409     2.685938652966    -0.067742997087
    H           -1.395373049996     1.621325113145    -1.079432399207
    C            0.923361066380    -1.612537155486     0.105842428560
    C           -1.469948514377    -1.121824897162    -0.093650495161
    H            1.860012237956    -1.266251248955    -0.295497731511
    H            0.649731343215    -2.538609028281    -0.381606866169
    H            1.055052429962    -1.806033506989     1.166768888065
    H           -1.766087715611    -1.409112552964     0.912926370584
    H           -2.168530042907    -0.387008271858    -0.455515058855
    H           -1.555705223762    -1.994559766000    -0.727459210416

  Mulliken Charges: (a.u.)
   Center  Symbol    Alpha    Beta     Spin     Total
       1     O     4.21898  4.21898  0.00000 -0.43797
       2     C     2.84487  2.84487  0.00000  0.31026
       3     C     3.16066  3.16066  0.00000 -0.32132
       4     N     3.56452  3.56452  0.00000 -0.12905
       5     H     0.44895  0.44895  0.00000  0.10210
       6     H     0.42873  0.42873  0.00000  0.14254
       7     H     0.44877  0.44877  0.00000  0.10246
       8     C     3.09396  3.09396  0.00000 -0.18792
       9     C     3.09600  3.09600  0.00000 -0.19200
      10     H     0.43130  0.43130  0.00000  0.13740
      11     H     0.45774  0.45774  0.00000  0.08452
      12     H     0.45575  0.45575  0.00000  0.08850
      13     H     0.45573  0.45573  0.00000  0.08855
      14     H     0.44546  0.44546  0.00000  0.10908
      15     H     0.44857  0.44857  0.00000  0.10285

   Total alpha = 24.00000, Total beta = 24.00000, Total charge = -0.00000

*** Psi4 exiting successfully. Buy a developer a beer!
