  ==> Input File <==

--------------------------------------------------------------------------
set {
	reference rhf
	basis cc-pvtz
}

set_num_threads( 4 )
memory 2 gb

molecule MOL {
0 1

H	 0.984828	 2.693481	 2.391218
O	 1.658602	 2.387465	 1.810611
C	 1.183106	 1.480509	 0.938880
C	 2.075728	 0.945167	 0.021409
C	 -0.135617	 1.078890	 0.933414
H	 3.096655	 1.271351	 0.043055
C	 1.645891	 0.012932	 -0.894850
H	 -0.845518	 1.475108	 1.629367
C	 -0.532034	 0.141680	 0.000000
H	 2.342830	 -0.395319	 -1.600083
C	 0.326200	 -0.406263	 -0.920041
N	 -1.937041	 -0.281114	 0.000000
H	 -0.021665	 -1.128959	 -1.625324
O	 -2.159542	 -1.446261	 0.000000
O	 -2.764978	 0.565773	 0.000000

	symmetry c1
}
set optking {
	frozen_dihedral = ("
		11 9 12 14
	")
}

ee = optimize('scf')
oeprop('DIPOLE', 'QUADRUPOLE', 'MULLIKEN_CHARGES')
f=open( 'psi4out.xyz', 'w' )
f.write( "15  " )
f.write( str(ee) + "\n" )
f.write( MOL.save_string_xyz() )
f.close()
--------------------------------------------------------------------------

    Molecular point group: c1
  Charge       = 0
  Multiplicity = 1
  Basis Set: CC-PVTZ
  Basis Set:
  @DF-RHF Final Energy:  -509.21416621891746
    Total Energy =                       -509.2141662189169438
    Molecular point group: c1
  Basis Set: CC-PVTZ
  Basis Set:
  Basis Set: CC-PVTZ
  Basis Set:
  @DF-RHF Final Energy:  -509.20792599667686
    Total Energy =                       -509.2079259966766358
  Basis Set: CC-PVTZ
  Basis Set:
  Basis Set: CC-PVTZ
  Basis Set:
  @DF-RHF Final Energy:  -509.21436989205705
    Total Energy =                       -509.2143698920563111
  Basis Set: CC-PVTZ
  Basis Set:
  Basis Set: CC-PVTZ
  Basis Set:
  @DF-RHF Final Energy:  -509.21462986580389
    Total Energy =                       -509.2146298658036585
  Basis Set: CC-PVTZ
  Basis Set:
  Basis Set: CC-PVTZ
  Basis Set:
  @DF-RHF Final Energy:  -509.21463149669819
    Total Energy =                       -509.2146314966985301
  Basis Set: CC-PVTZ
  Basis Set:
  Charge       = 0
  Multiplicity = 1
  Basis Set: CC-PVTZ
  Basis Set:

    Orbital Energies (a.u.)
    -----------------------

    Doubly Occupied:

       1A    -20.609798     2A    -20.598245     3A    -20.597595
       4A    -15.850308     5A    -11.329638     6A    -11.311934
       7A    -11.264554     8A    -11.263854     9A    -11.258766
      10A    -11.253387    11A     -1.645915    12A     -1.442618
      13A     -1.428933    14A     -1.204160    15A     -1.096647
      16A     -1.049522    17A     -0.967006    18A     -0.885032
      19A     -0.832975    20A     -0.794099    21A     -0.764591
      22A     -0.740731    23A     -0.724926    24A     -0.712438
      25A     -0.674656    26A     -0.636351    27A     -0.623032
      28A     -0.597424    29A     -0.564221    30A     -0.549182
      31A     -0.531425    32A     -0.494963    33A     -0.490820
      34A     -0.459618    35A     -0.377898    36A     -0.346586

  @DF-RHF Final Energy:  -509.21463173806217

   => Energetics <=

    Nuclear Repulsion Energy =            504.4322445136426722
    One-Electron Energy =               -1695.3460484618090049
    Two-Electron Energy =                 681.6991722101039386
    DFT Exchange-Correlation Energy =       0.0000000000000000
    Empirical Dispersion Energy =           0.0000000000000000
    PCM Polarization Energy =               0.0000000000000000
    EFP Energy =                            0.0000000000000000
    Total Energy =                       -509.2146317380623941
    Molecular point group: c1
  Basis Set: CC-PVTZ
  Basis Set:

  -Total Gradient:
     Atom            X                  Y                   Z
    ------   -----------------  -----------------  -----------------
       1        0.000000097396    -0.000006241742     0.000005470382
       2       -0.000000010615     0.000020453870    -0.000003686197
       3       -0.000014324536    -0.000035619975    -0.000004524595
       4        0.000005148740    -0.000015138757     0.000023370100
       5        0.000049595074    -0.000091260248     0.000071167828
       6        0.000002299651    -0.000000744524    -0.000000981491
       7       -0.000018957011     0.000035745561    -0.000037385852
       8        0.000000671640    -0.000003415347     0.000004299242
       9        0.001188830222    -0.004643214929     0.005706784881
      10        0.000000536226    -0.000005582302     0.000006059562
      11       -0.000849842209     0.003269357463    -0.002705605287
      12       -0.000292550027     0.001751746633    -0.008169149100
      13       -0.000000006368    -0.000000234145     0.000005887142
      14       -0.000098345388    -0.000188375636     0.005118842295
      15        0.000026857209    -0.000087475920    -0.000020548906

  **** Optimization is complete! (in 6 steps) ****
    Final optimized geometry and variables:
    Molecular point group: c1

    Geometry (in Angstrom), charge = 0, multiplicity = 1:

    H            1.113558118309     2.239647928731     2.167089560080
    O            1.788758217430     1.927308566533     1.591597994466
    C            1.315052628923     1.021516258782     0.719532150583
    C            2.207214396230     0.491762022597    -0.202082869575
    C           -0.005949252358     0.622543860569     0.709448901986
    H            3.225853814959     0.824655694014    -0.184443302574
    C            1.778401757179    -0.438479216886    -1.120559176596
    H           -0.724565443655     1.039744017642     1.386516984879
    C           -0.387926028658    -0.333837890884    -0.206128462884
    H            2.472918783722    -0.833339083650    -1.835872450943
    C            0.463099306161    -0.873992062232    -1.133744563461
    N           -1.796153213964    -0.731655102593    -0.230850165395
    H            0.117717105569    -1.608810882749    -1.830531632285
    O           -2.030860120908    -1.892273755419    -0.264570691871
    O           -2.605121034024     0.133541444013    -0.180751290159

  Mulliken Charges: (a.u.)
   Center  Symbol    Alpha    Beta     Spin     Total
       1     H     0.38445  0.38445  0.00000  0.23109
       2     O     4.16747  4.16747  0.00000 -0.33494
       3     C     2.84359  2.84359  0.00000  0.31283
       4     C     3.10239  3.10239  0.00000 -0.20478
       5     C     3.14057  3.14057  0.00000 -0.28115
       6     H     0.41377  0.41377  0.00000  0.17247
       7     C     3.05288  3.05288  0.00000 -0.10576
       8     H     0.41699  0.41699  0.00000  0.16602
       9     C     2.93368  2.93368  0.00000  0.13263
      10     H     0.41625  0.41625  0.00000  0.16749
      11     C     3.10721  3.10721  0.00000 -0.21442
      12     N     3.27637  3.27637  0.00000  0.44726
      13     H     0.40841  0.40841  0.00000  0.18318
      14     O     4.16648  4.16648  0.00000 -0.33297
      15     O     4.16948  4.16948  0.00000 -0.33895

   Total alpha = 36.00000, Total beta = 36.00000, Total charge = -0.00000
