  ==> Input File <==

--------------------------------------------------------------------------
set {
	reference rhf
	basis cc-pvtz
}

set_num_threads( 4 )
memory 2 gb

molecule MOL {
0 1

H	 2.737875	 -0.104219	 -0.903667
N	 2.326826	 -0.066186	 0.000000
C	 0.934676	 -0.005420	 0.000000
H	 2.709238	 -0.760309	 0.599147
C	 0.226436	 -0.001077	 -1.195129
C	 0.226436	 -0.001077	 1.195129
H	 0.759091	 -0.011439	 -2.128123
C	 -1.153391	 0.009141	 -1.189028
H	 0.759091	 -0.011439	 2.128123
C	 -1.153391	 0.009141	 1.189028
H	 -1.680905	 0.012964	 -2.124348
C	 -1.857876	 0.014675	 0.000000
H	 -1.680905	 0.012964	 2.124348
H	 -2.930222	 0.022904	 0.000000

	symmetry c1
}
set optking {
	frozen_dihedral = ("
		1 2 3 5
	")
}

ee = optimize('scf')
oeprop('DIPOLE', 'QUADRUPOLE', 'MULLIKEN_CHARGES')
f=open( 'psi4out.xyz', 'w' )
f.write( "14  " )
f.write( str(ee) + "\n" )
f.write( MOL.save_string_xyz() )
f.close()
--------------------------------------------------------------------------

    Molecular point group: c1
  Charge       = 0
  Multiplicity = 1
  Basis Set: CC-PVTZ
  Basis Set:
  @DF-RHF Final Energy:  -285.83195535874381
    Total Energy =                       -285.8319553587440396
    Molecular point group: c1
  Basis Set: CC-PVTZ
  Basis Set:
  Basis Set: CC-PVTZ
  Basis Set:
  @DF-RHF Final Energy:  -285.83227668465122
    Total Energy =                       -285.8322766846512195
  Basis Set: CC-PVTZ
  Basis Set:
  Basis Set: CC-PVTZ
  Basis Set:
  @DF-RHF Final Energy:  -285.83235440542018
    Total Energy =                       -285.8323544054201761
  Basis Set: CC-PVTZ
  Basis Set:
  Basis Set: CC-PVTZ
  Basis Set:
  @DF-RHF Final Energy:  -285.83235949768277
    Total Energy =                       -285.8323594976826598
  Basis Set: CC-PVTZ
  Basis Set:
  Basis Set: CC-PVTZ
  Basis Set:
  @DF-RHF Final Energy:  -285.83236218117867
    Total Energy =                       -285.8323621811783823
  Basis Set: CC-PVTZ
  Basis Set:
  Basis Set: CC-PVTZ
  Basis Set:
  @DF-RHF Final Energy:  -285.83235153803025
    Total Energy =                       -285.8323515380302524
  Basis Set: CC-PVTZ
  Basis Set:
  Charge       = 0
  Multiplicity = 1
  Basis Set: CC-PVTZ
  Basis Set:

    Orbital Energies (a.u.)
    -----------------------

    Doubly Occupied:

       1A    -15.552609     2A    -11.269407     3A    -11.226940
       4A    -11.226651     5A    -11.216484     6A    -11.215218
       7A    -11.212370     8A     -1.223673     9A     -1.130216
      10A     -1.013316    11A     -0.987840    12A     -0.832083
      13A     -0.813155    14A     -0.707996    15A     -0.688050
      16A     -0.654166    17A     -0.604549    18A     -0.595966
      19A     -0.582298    20A     -0.526519    21A     -0.506394
      22A     -0.488296    23A     -0.442836    24A     -0.335841
      25A     -0.296991

  @DF-RHF Final Energy:  -285.83236258412211

   => Energetics <=

    Nuclear Repulsion Energy =            273.6560150360293733
    One-Electron Energy =                -928.2770231653926203
    Two-Electron Energy =                 368.7886455452409109
    DFT Exchange-Correlation Energy =       0.0000000000000000
    Empirical Dispersion Energy =           0.0000000000000000
    PCM Polarization Energy =               0.0000000000000000
    EFP Energy =                            0.0000000000000000
    Total Energy =                       -285.8323625841222793
    Molecular point group: c1
  Basis Set: CC-PVTZ
  Basis Set:

  -Total Gradient:
     Atom            X                  Y                   Z
    ------   -----------------  -----------------  -----------------
       1        0.000042737051     0.003400972531    -0.000003399716
       2        0.000036735696    -0.005746340908     0.000017790515
       3       -0.000101692574     0.004972763426    -0.000166699324
       4       -0.000022495621    -0.000025226786    -0.000009843785
       5        0.000176746488    -0.002583400704     0.000074791669
       6       -0.000096555104    -0.000001037961     0.000088605981
       7       -0.000012284415     0.000004039796     0.000001829480
       8       -0.000154386854    -0.000040872817     0.000069865372
       9        0.000014050052     0.000000946088    -0.000010007683
      10        0.000105394426     0.000000773976     0.000082820678
      11       -0.000004373512     0.000005353268     0.000006579837
      12        0.000032281938     0.000009414852    -0.000138451823
      13       -0.000009597140    -0.000004497635    -0.000011723286
      14       -0.000006560430     0.000007112873    -0.000002157916

  **** Optimization is complete! (in 7 steps) ****
    Final optimized geometry and variables:
    Molecular point group: c1

    Geometry (in Angstrom), charge = 0, multiplicity = 1:

    H            2.759293344292    -0.040821488689    -0.883987411467
    N            2.328968337444    -0.037241572120     0.010088206116
    C            0.933524329350    -0.018821284953    -0.004585768605
    H            2.741929332120    -0.687116962500     0.636706541717
    C            0.222215381095    -0.006681610912    -1.195421309562
    C            0.229574994971    -0.004835853289     1.194400673970
    H            0.750051135155    -0.032742118434    -2.130904528871
    C           -1.159084516790     0.043472034081    -1.185490227101
    H            0.770076107574    -0.005239354302     2.122331296925
    C           -1.148417778526     0.024626810134     1.193815294297
    H           -1.689971064179     0.060519142997    -2.118715586564
    C           -1.856750559646     0.054887842150     0.005205021996
    H           -1.673756559632     0.033788491651     2.130274212601
    H           -2.928783670418     0.085916620582     0.009780446522

  Mulliken Charges: (a.u.)
   Center  Symbol    Alpha    Beta     Spin     Total
       1     H     0.42204  0.42204  0.00000  0.15591
       2     N     3.68346  3.68346  0.00000 -0.36692
       3     C     2.88067  2.88067  0.00000  0.23867
       4     H     0.41579  0.41579  0.00000  0.16842
       5     C     3.12097  3.12097  0.00000 -0.24194
       6     C     3.11678  3.11678  0.00000 -0.23357
       7     H     0.43475  0.43475  0.00000  0.13050
       8     C     3.06036  3.06036  0.00000 -0.12071
       9     H     0.42938  0.42938  0.00000  0.14123
      10     C     3.05927  3.05927  0.00000 -0.11854
      11     H     0.42474  0.42474  0.00000  0.15051
      12     C     3.10193  3.10193  0.00000 -0.20386
      13     H     0.42461  0.42461  0.00000  0.15078
      14     H     0.42524  0.42524  0.00000  0.14952

   Total alpha = 25.00000, Total beta = 25.00000, Total charge = -0.00000
