  ==> Input File <==

--------------------------------------------------------------------------
set {
	reference rhf
	basis 6-31G*
}

set_num_threads( 1 )
memory 2 gb

molecule MOL {
0 1

H	 2.176868	 -0.646004	 -0.217325
O	 1.337496	 -0.537251	 0.205931
C	 0.702312	 0.627605	 -0.264544
C	 -0.714990	 0.596302	 0.266387
H	 0.682322	 0.642550	 -1.350929
H	 1.215941	 1.520383	 0.085680
O	 -1.405996	 -0.526611	 -0.195820
H	 -1.257453	 1.468809	 -0.075599
H	 -0.688972	 0.618407	 1.353696
H	 -1.166728	 -0.659197	 -1.104217

	symmetry c1
}
set optking {
	frozen_dihedral = ("
		5 3 4 7
	")
}

ee = energy('scf')
oeprop('DIPOLE', 'QUADRUPOLE', 'MULLIKEN_CHARGES')
f=open( 'psi4out.xyz', 'w' )
f.write( "10  " )
f.write( str(ee) + "\n" )
f.write( MOL.save_string_xyz() )
f.close()
--------------------------------------------------------------------------

    Molecular point group: c1

    Geometry (in Angstrom), charge = 0, multiplicity = 1:

       Center              X                  Y                   Z               Mass
    ------------   -----------------  -----------------  -----------------  -----------------
           H          2.181353760629    -0.656296192171    -0.199027886559     1.007825032070
           O          1.341981760629    -0.547543192171     0.224228113441    15.994914619560
           C          0.706797760629     0.617312807829    -0.246246886559    12.000000000000
           C         -0.710504239371     0.586009807829     0.284684113441    12.000000000000
           H          0.686807760629     0.632257807829    -1.332631886559     1.007825032070
           H          1.220426760629     1.510090807829     0.103977113441     1.007825032070
           O         -1.401510239371    -0.536903192171    -0.177522886559    15.994914619560
           H         -1.252967239371     1.458516807829    -0.057301886559     1.007825032070
           H         -0.684486239371     0.608114807829     1.371993113441     1.007825032070
           H         -1.162242239371    -0.669489192171    -1.085919886559     1.007825032070

  Charge       = 0
  Multiplicity = 1
  Basis Set: 6-31G*
  Basis Set:

    Orbital Energies (a.u.)
    -----------------------

    Doubly Occupied:

       1A    -20.561173     2A    -20.549963     3A    -11.280432
       4A    -11.269368     5A     -1.377311     6A     -1.350919
       7A     -1.002690     8A     -0.847609     9A     -0.719578
      10A     -0.672217    11A     -0.660616    12A     -0.599553
      13A     -0.572000    14A     -0.543183    15A     -0.473998
      16A     -0.450812    17A     -0.436087

  @DF-RHF Final Energy:  -228.91635520920067

   => Energetics <=

    Nuclear Repulsion Energy =            134.4098901844143938
    One-Electron Energy =                -579.9175750002166296
    Two-Electron Energy =                 216.5913296066015903
    DFT Exchange-Correlation Energy =       0.0000000000000000
    Empirical Dispersion Energy =           0.0000000000000000
    PCM Polarization Energy =               0.0000000000000000
    EFP Energy =                            0.0000000000000000
    Total Energy =                       -228.9163552092006455

  Mulliken Charges: (a.u.)
   Center  Symbol    Alpha    Beta     Spin     Total
       1     H     0.27978  0.27978  0.00000  0.44045
       2     O     4.36346  4.36346  0.00000 -0.72691
       3     C     3.02152  3.02152  0.00000 -0.04304
       4     C     2.99068  2.99068  0.00000  0.01864
       5     H     0.43496  0.43496  0.00000  0.13007
       6     H     0.42510  0.42510  0.00000  0.14980
       7     O     4.36300  4.36300  0.00000 -0.72599
       8     H     0.42977  0.42977  0.00000  0.14046
       9     H     0.40935  0.40935  0.00000  0.18131
      10     H     0.28239  0.28239  0.00000  0.43522

   Total alpha = 17.00000, Total beta = 17.00000, Total charge =  0.00000
