  ==> Input File <==

--------------------------------------------------------------------------
set {
	reference rhf
	basis 6-31G*
}

set_num_threads( 4 )
memory 2 gb

molecule MOL {
0 1

H	 -2.646374	 -0.642757	 1.268656
C	 -2.083525	 -0.384536	 0.393091
O	 -0.807605	 -0.127164	 0.768327
F	 -2.118945	 -1.383102	 -0.486752
F	 -2.621877	 0.670592	 -0.209486
C	 0.084052	 0.273579	 -0.209957
C	 1.353033	 -0.546803	 -0.018071
Cl	 0.433844	 2.004619	 -0.074457
H	 -0.288836	 0.092657	 -1.202930
F	 2.084410	 -0.524602	 -1.112025
F	 1.016799	 -1.798103	 0.224068
F	 2.077607	 -0.110415	 0.983194

	symmetry c1
}
set optking {
	frozen_dihedral = ("
		10 7 6 9
	")
}

ee = optimize('scf')
oeprop('DIPOLE', 'QUADRUPOLE', 'MULLIKEN_CHARGES')
f=open( 'psi4out.xyz', 'w' )
f.write( "12  " )
f.write( str(ee) + "\n" )
f.write( MOL.save_string_xyz() )
f.close()
--------------------------------------------------------------------------

    Molecular point group: c1
  Charge       = 0
  Multiplicity = 1
  Basis Set: 6-31G*
  Basis Set:
  @DF-RHF Final Energy: -1146.31198418521399
    Total Energy =                      -1146.3119841852139871
    Molecular point group: c1
  Basis Set: 6-31G*
  Basis Set:
  Basis Set: 6-31G*
  Basis Set:
  @DF-RHF Final Energy: -1146.31229474186125
    Total Energy =                      -1146.3122947418607964
  Basis Set: 6-31G*
  Basis Set:
  Basis Set: 6-31G*
  Basis Set:
  @DF-RHF Final Energy: -1146.31257950197619
    Total Energy =                      -1146.3125795019764155
  Basis Set: 6-31G*
  Basis Set:
  Basis Set: 6-31G*
  Basis Set:
  @DF-RHF Final Energy: -1146.31259303539355
    Total Energy =                      -1146.3125930353921831
  Basis Set: 6-31G*
  Basis Set:
  Basis Set: 6-31G*
  Basis Set:
  @DF-RHF Final Energy: -1146.31259705977436
    Total Energy =                      -1146.3125970597743617
  Basis Set: 6-31G*
  Basis Set:
  Basis Set: 6-31G*
  Basis Set:
  @DF-RHF Final Energy: -1146.31260010630217
    Total Energy =                      -1146.3126001063019430
  Basis Set: 6-31G*
  Basis Set:
  Basis Set: 6-31G*
  Basis Set:
  @DF-RHF Final Energy: -1146.31260234827823
    Total Energy =                      -1146.3126023482791425
  Basis Set: 6-31G*
  Basis Set:
  Charge       = 0
  Multiplicity = 1
  Basis Set: 6-31G*
  Basis Set:

    Orbital Energies (a.u.)
    -----------------------

    Doubly Occupied:

       1A   -104.842874     2A    -26.359643     3A    -26.359505
       4A    -26.356495     5A    -26.347050     6A    -26.346651
       7A    -20.650182     8A    -11.527876     9A    -11.490327
      10A    -11.401269    11A    -10.577571    12A     -8.046913
      13A     -8.043409    14A     -8.043281    15A     -1.761039
      16A     -1.718545    17A     -1.658817    18A     -1.654346
      19A     -1.639130    20A     -1.487248    21A     -1.178780
      22A     -1.049998    23A     -0.987865    24A     -0.919947
      25A     -0.859693    26A     -0.853064    27A     -0.844435
      28A     -0.825215    29A     -0.812538    30A     -0.790077
      31A     -0.727947    32A     -0.727405    33A     -0.705789
      34A     -0.701455    35A     -0.678242    36A     -0.674684
      37A     -0.658060    38A     -0.657216    39A     -0.646704
      40A     -0.632801    41A     -0.597667    42A     -0.580302
      43A     -0.523037    44A     -0.476717    45A     -0.467902

  @DF-RHF Final Energy: -1146.31260211701419

   => Energetics <=

    Nuclear Repulsion Energy =            737.5621213402217791
    One-Electron Energy =               -3057.9700259188034579
    Two-Electron Energy =                1174.0953024615669165
    DFT Exchange-Correlation Energy =       0.0000000000000000
    Empirical Dispersion Energy =           0.0000000000000000
    PCM Polarization Energy =               0.0000000000000000
    EFP Energy =                            0.0000000000000000
    Total Energy =                      -1146.3126021170146487
    Molecular point group: c1
  Basis Set: 6-31G*
  Basis Set:

  -Total Gradient:
     Atom            X                  Y                   Z
    ------   -----------------  -----------------  -----------------
       1        0.000041840340     0.000022881987     0.000026686035
       2       -0.000201638595    -0.000075606472    -0.000259445171
       3        0.000274703538     0.000029580116    -0.000115299309
       4        0.000012053227     0.000079259916     0.000076068628
       5        0.000025793968    -0.000091313545     0.000086299847
       6       -0.004302619595    -0.006195958207     0.001826137130
       7        0.003532367492     0.005742192692     0.001955049421
       8        0.000023844103     0.000199443834    -0.000042579981
       9        0.002975167610     0.004286307906    -0.001768464210
      10       -0.002359152392    -0.003804003676    -0.001606698278
      11        0.000059087530    -0.000329305744    -0.000205078465
      12       -0.000081447212     0.000136521130     0.000027324345

  **** Optimization is complete! (in 8 steps) ****
    Final optimized geometry and variables:
    Molecular point group: c1

    Geometry (in Angstrom), charge = 0, multiplicity = 1:

    H           -2.662702960530    -0.605131939677     1.276684123907
    C           -2.087750854127    -0.378263140893     0.400442123973
    O           -0.827287802619    -0.066720100962     0.788278066128
    F           -2.077261936167    -1.420980873946    -0.426223157625
    F           -2.638589733431     0.630193381984    -0.267313816974
    C            0.074697564720     0.290768014716    -0.191556139737
    C            1.342442994726    -0.543463727896    -0.012654279578
    CL           0.460487227901     2.021519600193    -0.084421163276
    H           -0.287061238902     0.135100319542    -1.192422124959
    F            2.065735991979    -0.479808452352    -1.113039626309
    F            1.005492101446    -1.805380281185     0.164762855786
    F            2.073599494477    -0.165234215563     1.005127029539

  Mulliken Charges: (a.u.)
   Center  Symbol    Alpha    Beta     Spin     Total
       1     H     0.40097  0.40097  0.00000  0.19805
       2     C     2.56514  2.56514  0.00000  0.86971
       3     O     4.29572  4.29572  0.00000 -0.59144
       4     F     4.68609  4.68609  0.00000 -0.37218
       5     F     4.68462  4.68462  0.00000 -0.36923
       6     C     3.05155  3.05155  0.00000 -0.10311
       7     C     2.43271  2.43271  0.00000  1.13457
       8    CL     8.50101  8.50101  0.00000 -0.00201
       9     H     0.36492  0.36492  0.00000  0.27016
      10     F     4.67617  4.67617  0.00000 -0.35234
      11     F     4.67527  4.67527  0.00000 -0.35055
      12     F     4.66582  4.66582  0.00000 -0.33163

   Total alpha = 45.00000, Total beta = 45.00000, Total charge =  0.00000
