  ==> Input File <==

--------------------------------------------------------------------------
set {
	reference rhf
	basis 6-31G*
}

set_num_threads( 1 )
memory 2 gb

molecule MOL {
0 1

H	 -1.667522	 1.089359	 4.751862
O	 -0.832866	 1.100411	 5.197169
C	 -0.254858	 -0.179389	 5.151650
C	 0.274743	 -0.551030	 3.771022
H	 0.560927	 -0.159340	 5.862823
H	 -0.964898	 -0.930641	 5.495516
C	 -0.809492	 -0.653969	 2.695520
H	 1.013801	 0.188749	 3.474565
H	 0.794816	 -1.504042	 3.852631
C	 -0.253408	 -1.081199	 1.334247
H	 -1.308478	 0.306218	 2.598468
H	 -1.567206	 -1.370648	 3.012666
C	 -1.309753	 -1.282496	 0.241564
H	 0.475813	 -0.346014	 0.998708
H	 0.292962	 -2.013496	 1.460747
C	 -2.037799	 -0.007733	 -0.193645
H	 -0.822664	 -1.717725	 -0.628572
H	 -2.039305	 -2.017604	 0.578026
C	 -3.489788	 0.042957	 0.286558
H	 -2.017067	 0.064384	 -1.280144
H	 -1.513726	 0.868678	 0.179924
C	 -4.216917	 1.317354	 -0.141063
H	 -4.025645	 -0.823308	 -0.095450
H	 -3.513059	 -0.038752	 1.371301
H	 -4.239342	 1.411634	 -1.223113
H	 -5.243387	 1.322503	 0.212445
H	 -3.726170	 2.201406	 0.256408

	symmetry c1
}
set optking {
	frozen_dihedral = ("
		14 10 7 4,
		14 10 13 16,
		10 7 4 8,
		8 4 3 2,
		20 16 19 22,
		4 3 2 1
	")
}

ee = energy('scf')
oeprop('DIPOLE', 'QUADRUPOLE', 'MULLIKEN_CHARGES')
f=open( 'psi4out.xyz', 'w' )
f.write( "27  " )
f.write( str(ee) + "\n" )
f.write( MOL.save_string_xyz() )
f.close()
--------------------------------------------------------------------------

    Molecular point group: c1

    Geometry (in Angstrom), charge = 0, multiplicity = 1:

       Center              X                  Y                   Z               Mass
    ------------   -----------------  -----------------  -----------------  -----------------
           H         -0.221109846162     1.201863515556     2.661745200107     1.007825032070
           O          0.613546153838     1.212915515556     3.107052200107    15.994914619560
           C          1.191554153838    -0.066884484444     3.061533200107    12.000000000000
           C          1.721155153838    -0.438525484444     1.680905200107    12.000000000000
           H          2.007339153838    -0.046835484444     3.772706200107     1.007825032070
           H          0.481514153838    -0.818136484444     3.405399200107     1.007825032070
           C          0.636920153838    -0.541464484444     0.605403200107    12.000000000000
           H          2.460213153838     0.301253515556     1.384448200107     1.007825032070
           H          2.241228153838    -1.391537484444     1.762514200107     1.007825032070
           C          1.193004153838    -0.968694484444    -0.755869799893    12.000000000000
           H          0.137934153838     0.418722515556     0.508351200107     1.007825032070
           H         -0.120793846162    -1.258143484444     0.922549200107     1.007825032070
           C          0.136659153838    -1.169991484444    -1.848552799893    12.000000000000
           H          1.922225153838    -0.233509484444    -1.091408799893     1.007825032070
           H          1.739374153838    -1.900991484444    -0.629369799893     1.007825032070
           C         -0.591386846162     0.104771515556    -2.283761799893    12.000000000000
           H          0.623748153838    -1.605220484444    -2.718688799893     1.007825032070
           H         -0.592892846162    -1.905099484444    -1.512090799893     1.007825032070
           C         -2.043375846162     0.155461515556    -1.803558799893    12.000000000000
           H         -0.570654846162     0.176888515556    -3.370260799893     1.007825032070
           H         -0.067313846162     0.981182515556    -1.910192799893     1.007825032070
           C         -2.770504846162     1.429858515556    -2.231179799893    12.000000000000
           H         -2.579232846162    -0.710803484444    -2.185566799893     1.007825032070
           H         -2.066646846162     0.073752515556    -0.718815799893     1.007825032070
           H         -2.792929846162     1.524138515556    -3.313229799893     1.007825032070
           H         -3.796974846162     1.435007515556    -1.877671799893     1.007825032070
           H         -2.279757846162     2.313910515556    -1.833708799893     1.007825032070

  Charge       = 0
  Multiplicity = 1
  Basis Set: 6-31G*
  Basis Set:

    Orbital Energies (a.u.)
    -----------------------

    Doubly Occupied:

       1A    -20.552579     2A    -11.267313     3A    -11.220329
       4A    -11.217343     5A    -11.216926     6A    -11.215543
       7A    -11.214287     8A    -11.213237     9A    -11.209558
      10A     -1.359325    11A     -1.096326    12A     -1.061008
      13A     -1.011325    14A     -0.949314    15A     -0.888528
      16A     -0.824301    17A     -0.797242    18A     -0.779682
      19A     -0.693968    20A     -0.652205    21A     -0.636552
      22A     -0.611904    23A     -0.599731    24A     -0.590420
      25A     -0.578567    26A     -0.558443    27A     -0.544359
      28A     -0.519318    29A     -0.508427    30A     -0.494467
      31A     -0.487557    32A     -0.478011    33A     -0.470996
      34A     -0.461060    35A     -0.446417    36A     -0.440466
      37A     -0.423050

  @DF-RHF Final Energy:  -388.27665498868231

   => Energetics <=

    Nuclear Repulsion Energy =            469.3420196162671232
    One-Electron Energy =               -1456.6575275780530774
    Two-Electron Energy =                 599.0388529731060316
    DFT Exchange-Correlation Energy =       0.0000000000000000
    Empirical Dispersion Energy =           0.0000000000000000
    PCM Polarization Energy =               0.0000000000000000
    EFP Energy =                            0.0000000000000000
    Total Energy =                       -388.2766549886798657

  Mulliken Charges: (a.u.)
   Center  Symbol    Alpha    Beta     Spin     Total
       1     H     0.27993  0.27993  0.00000  0.44014
       2     O     4.37093  4.37093  0.00000 -0.74187
       3     C     2.99740  2.99740  0.00000  0.00520
       4     C     3.16090  3.16090  0.00000 -0.32181
       5     H     0.41437  0.41437  0.00000  0.17126
       6     H     0.43196  0.43196  0.00000  0.13608
       7     C     3.16328  3.16328  0.00000 -0.32656
       8     H     0.41505  0.41505  0.00000  0.16991
       9     H     0.42408  0.42408  0.00000  0.15184
      10     C     3.15254  3.15254  0.00000 -0.30507
      11     H     0.42340  0.42340  0.00000  0.15319
      12     H     0.42517  0.42517  0.00000  0.14967
      13     C     3.15709  3.15709  0.00000 -0.31418
      14     H     0.42134  0.42134  0.00000  0.15733
      15     H     0.42234  0.42234  0.00000  0.15531
      16     C     3.15510  3.15510  0.00000 -0.31020
      17     H     0.41893  0.41893  0.00000  0.16213
      18     H     0.42160  0.42160  0.00000  0.15679
      19     C     3.15376  3.15376  0.00000 -0.30752
      20     H     0.42032  0.42032  0.00000  0.15937
      21     H     0.42107  0.42107  0.00000  0.15785
      22     C     3.23999  3.23999  0.00000 -0.47997
      23     H     0.42210  0.42210  0.00000  0.15579
      24     H     0.42447  0.42447  0.00000  0.15107
      25     H     0.42115  0.42115  0.00000  0.15770
      26     H     0.41970  0.41970  0.00000  0.16060
      27     H     0.42201  0.42201  0.00000  0.15597

   Total alpha = 37.00000, Total beta = 37.00000, Total charge =  0.00000
