                              Psi4 1.0.54 Driver

  ==> Input File <==

--------------------------------------------------------------------------
set {
	reference rhf
	basis cc-pvtz
}

set_num_threads( 4 )
memory 2 gb

molecule MOL {
0 1

H	 2.370153	 -0.769701	 -0.518787
C	 1.637382	 0.012513	 -0.623754
O	 0.462329	 -0.453336	 -0.000137
H	 1.470417	 0.204509	 -1.676123
H	 2.004324	 0.910436	 -0.142790
C	 -0.590565	 0.341382	 0.000062
O	 -1.693898	 -0.053880	 0.000252
H	 -0.340426	 1.403822	 0.000200

	symmetry c1
}
set optking {
	frozen_dihedral = ("
		2 3 6 7
	")
}

ee,wfn = optimize('scf', return_wfn=True)
oeprop( wfn, 'DIPOLE', 'QUADRUPOLE', 'MULLIKEN_CHARGES')
f=open( 'psi4out.xyz', 'w' )
f.write( "8  " )
f.write( str(ee) + "\n" )
f.write( MOL.save_string_xyz() )
f.close()
--------------------------------------------------------------------------

    Molecular point group: c1
  Charge       = 0
  Multiplicity = 1
  Basis Set: CC-PVTZ
  Basis Set:
  @DF-RHF Final Energy:  -227.86756796958446
    Total Energy =                       -227.8675679695845133
    Molecular point group: c1
  Basis Set: CC-PVTZ
  Basis Set:
  Basis Set: CC-PVTZ
  Basis Set:
  @DF-RHF Final Energy:  -227.86757944428766
    Total Energy =                       -227.8675794442877418
  Basis Set: CC-PVTZ
  Basis Set:
  Basis Set: CC-PVTZ
  Basis Set:
  @DF-RHF Final Energy:  -227.86736873220565
    Total Energy =                       -227.8673687322055343
  Basis Set: CC-PVTZ
  Basis Set:
  Basis Set: CC-PVTZ
  Basis Set:
  @DF-RHF Final Energy:  -227.86783036801597
    Total Energy =                       -227.8678303680160298
  Basis Set: CC-PVTZ
  Basis Set:
  Basis Set: CC-PVTZ
  Basis Set:
  @DF-RHF Final Energy:  -227.86785195082456
    Total Energy =                       -227.8678519508243028
  Basis Set: CC-PVTZ
  Basis Set:
  Basis Set: CC-PVTZ
  Basis Set:
  @DF-RHF Final Energy:  -227.86785609405746
    Total Energy =                       -227.8678560940573448
  Basis Set: CC-PVTZ
  Basis Set:
  Charge       = 0
  Multiplicity = 1
  Basis Set: CC-PVTZ
  Basis Set:

    Orbital Energies (a.u.)
    -----------------------

    Doubly Occupied:

       1A    -20.606769     2A    -20.550416     3A    -11.374932
       4A    -11.301860     5A     -1.478804     6A     -1.387194
       7A     -0.992894     8A     -0.848445     9A     -0.740735
      10A     -0.688426    11A     -0.684337    12A     -0.612601
      13A     -0.572539    14A     -0.536350    15A     -0.468830
      16A     -0.458106

  @DF-RHF Final Energy:  -227.86785642594171

   => Energetics <=

    Nuclear Repulsion Energy =            121.5548990778390532
    One-Electron Energy =                -552.2390377520644051
    Two-Electron Energy =                 202.8162822482836702
    DFT Exchange-Correlation Energy =       0.0000000000000000
    Empirical Dispersion Energy =           0.0000000000000000
    PCM Polarization Energy =               0.0000000000000000
    EFP Energy =                            0.0000000000000000
    Total Energy =                       -227.8678564259416532
    Molecular point group: c1
  Basis Set: CC-PVTZ
  Basis Set:

  -Total Gradient:
     Atom            X                  Y                   Z
    ------   -----------------  -----------------  -----------------
       1        0.000017050653     0.000012028176    -0.000010514684
       2       -0.001103405516    -0.001020428060    -0.003398347172
       3        0.001793175287     0.001807547461     0.002771089741
       4       -0.000018188315    -0.000000894102     0.000017227528
       5       -0.000005270402     0.000000532818    -0.000003057714
       6       -0.000778319139    -0.001468737474     0.005338921622
       7        0.000091586585     0.000692635781    -0.004709475621
       8        0.000003370847    -0.000022684600    -0.000005843700

  **** Optimization is complete! (in 7 steps) ****
    Final optimized geometry and variables:
    Molecular point group: c1

    Geometry (in Angstrom), charge = 0, multiplicity = 1:

    H            2.448402001151    -0.661501428555    -0.177567246667
    C            1.669996647953     0.035739584688    -0.439427881430
    O            0.471119468993    -0.460161673507     0.107928171768
    H            1.592513754552     0.101896409505    -1.516569511442
    H            1.915505803872     1.010557697006    -0.033457534837
    C           -0.550647550653     0.373914660452     0.210142366409
    O           -1.670398843042     0.035308764486     0.150971576573
    H           -0.250885536617     1.414088379958     0.348730754859

  Mulliken Charges: (a.u.)
   Center  Symbol    Alpha    Beta     Spin     Total
       1     H     0.44186  0.44186  0.00000  0.11628
       2     C     3.02882  3.02882  0.00000 -0.05764
       3     O     4.12627  4.12627  0.00000 -0.25254
       4     H     0.45574  0.45574  0.00000  0.08851
       5     H     0.46475  0.46475  0.00000  0.07051
       6     C     2.83494  2.83494  0.00000  0.33012
       7     O     4.17068  4.17068  0.00000 -0.34135
       8     H     0.47695  0.47695  0.00000  0.04611

   Total alpha = 16.00000, Total beta = 16.00000, Total charge = -0.00000

*** Psi4 exiting successfully. Buy a developer a beer!
