  ==> Input File <==

--------------------------------------------------------------------------
set {
	reference rhf
	basis 6-31G*
}

set_num_threads( 4 )
memory 2 gb

molecule MOL {
0 1

H	 2.332609	 0.878551	 -1.051851
C	 2.357710	 0.000000	 -0.417167
C	 1.175432	 0.000000	 0.532082
H	 3.291263	 0.000000	 0.136880
H	 2.332609	 -0.878551	 -1.051851
O	 0.000000	 0.000000	 -0.221444
H	 1.206604	 0.877321	 1.177902
H	 1.206604	 -0.877321	 1.177902
C	 -1.175432	 0.000000	 0.532082
C	 -2.247016	 -0.739927	 -0.244495
H	 -1.490950	 1.023369	 0.734348
H	 -1.003418	 -0.480863	 1.494853
H	 -2.425913	 -0.254870	 -1.197396
H	 -3.177689	 -0.759179	 0.314045
H	 -1.937697	 -1.761210	 -0.435825

	symmetry c1
}
set optking {
	frozen_dihedral = ("
		11 9 6 3
	")
}

ee = optimize('scf')
oeprop('DIPOLE', 'QUADRUPOLE', 'MULLIKEN_CHARGES')
f=open( 'psi4out.xyz', 'w' )
f.write( "15  " )
f.write( str(ee) + "\n" )
f.write( MOL.save_string_xyz() )
f.close()
--------------------------------------------------------------------------

    Molecular point group: c1
  Charge       = 0
  Multiplicity = 1
  Basis Set: 6-31G*
  Basis Set:
  @DF-RHF Final Energy:  -232.14265243971232
    Total Energy =                       -232.1426524397122648
    Molecular point group: c1
  Basis Set: 6-31G*
  Basis Set:
  Basis Set: 6-31G*
  Basis Set:
  @DF-RHF Final Energy:  -232.14276213064934
    Total Energy =                       -232.1427621306492028
  Basis Set: 6-31G*
  Basis Set:
  Basis Set: 6-31G*
  Basis Set:
  @DF-RHF Final Energy:  -232.14279819811915
    Total Energy =                       -232.1427981981191806
  Basis Set: 6-31G*
  Basis Set:
  Charge       = 0
  Multiplicity = 1
  Basis Set: 6-31G*
  Basis Set:

    Orbital Energies (a.u.)
    -----------------------

    Doubly Occupied:

       1A    -20.549618     2A    -11.268579     3A    -11.267847
       4A    -11.208680     5A    -11.208314     6A     -1.375314
       7A     -1.043594     8A     -0.982288     9A     -0.847517
      10A     -0.825046    11A     -0.674444    12A     -0.665866
      13A     -0.617366    14A     -0.587470    15A     -0.549046
      16A     -0.532313    17A     -0.522232    18A     -0.495681
      19A     -0.486667    20A     -0.464215    21A     -0.407819

  @DF-RHF Final Energy:  -232.14279860065716

   => Energetics <=

    Nuclear Repulsion Energy =            191.0958554425635612
    One-Electron Energy =                -693.3174804652413741
    Two-Electron Energy =                 270.0788264220206543
    DFT Exchange-Correlation Energy =       0.0000000000000000
    Empirical Dispersion Energy =           0.0000000000000000
    PCM Polarization Energy =               0.0000000000000000
    EFP Energy =                            0.0000000000000000
    Total Energy =                       -232.1427986006571587
    Molecular point group: c1
  Basis Set: 6-31G*
  Basis Set:

  -Total Gradient:
     Atom            X                  Y                   Z
    ------   -----------------  -----------------  -----------------
       1       -0.000006526504    -0.000006940182     0.000010111843
       2        0.000004943068    -0.000007492454     0.000001027032
       3        0.000026728438    -0.002367474432     0.000009550429
       4        0.000020809741    -0.000002872261    -0.000001035459
       5        0.000001828354     0.000004323435    -0.000000317207
       6       -0.000475708185     0.003428676707    -0.000653861594
       7       -0.000009848798    -0.000006872366    -0.000005329669
       8       -0.000012739447     0.000005214406    -0.000007200246
       9        0.002033251363    -0.001032255426     0.003125420237
      10       -0.000002866742     0.000029395503     0.000004717070
      11       -0.001565960926    -0.000044427157    -0.002496483956
      12       -0.000005978418    -0.000001515779     0.000015523828
      13       -0.000007997861    -0.000006778633    -0.000011173664
      14       -0.000010309628     0.000000052122     0.000001232924
      15        0.000010375547     0.000008966517     0.000007818432

  **** Optimization is complete! (in 4 steps) ****
    Final optimized geometry and variables:
    Molecular point group: c1

    Geometry (in Angstrom), charge = 0, multiplicity = 1:

    H            2.301784813421     1.039293494397    -1.095299516779
    C            2.335598911552     0.159626042200    -0.462587853008
    C            1.163432002924     0.154545229101     0.498953492880
    H            3.275193806553     0.160653673758     0.081445286799
    H            2.305200766517    -0.717779975063    -1.098748410060
    O           -0.019381875481     0.142052659148    -0.244354290475
    H            1.198913945467     1.033641665754     1.142084253951
    H            1.206177364532    -0.720921533469     1.145736086027
    C           -1.202944373830     0.140268024128     0.502640104536
    C           -2.277364050892    -0.586143517833    -0.286471000638
    H           -1.519023031647     1.164761282962     0.690851546001
    H           -1.048335957318    -0.345686628858     1.463355595151
    H           -2.419910086824    -0.112360841199    -1.251283928259
    H           -3.222547044436    -0.569035188891     0.248054659663
    H           -1.992775625328    -1.618865122077    -0.455003589863

  Mulliken Charges: (a.u.)
   Center  Symbol    Alpha    Beta     Spin     Total
       1     H     0.41333  0.41333  0.00000  0.17335
       2     C     3.24448  3.24448  0.00000 -0.48895
       3     C     2.98791  2.98791  0.00000  0.02419
       4     H     0.42265  0.42265  0.00000  0.15470
       5     H     0.41349  0.41349  0.00000  0.17302
       6     O     4.31057  4.31057  0.00000 -0.62115
       7     H     0.43250  0.43250  0.00000  0.13500
       8     H     0.43175  0.43175  0.00000  0.13650
       9     C     2.98727  2.98727  0.00000  0.02546
      10     C     3.24315  3.24315  0.00000 -0.48631
      11     H     0.42854  0.42854  0.00000  0.14292
      12     H     0.43196  0.43196  0.00000  0.13608
      13     H     0.41264  0.41264  0.00000  0.17471
      14     H     0.42362  0.42362  0.00000  0.15277
      15     H     0.41614  0.41614  0.00000  0.16771

   Total alpha = 21.00000, Total beta = 21.00000, Total charge = -0.00000
