  ==> Input File <==

--------------------------------------------------------------------------
set {
	reference rhf
	basis 6-31G*
}

set_num_threads( 4 )
memory 2 gb

molecule MOL {
0 1

H	 -3.020838	 0.080141	 -0.472852
O	 -2.347518	 -0.290803	 0.079804
C	 -1.184022	 0.487508	 -0.006784
C	 0.062599	 -0.378592	 0.031606
H	 -1.176523	 1.099369	 -0.904519
H	 -1.187323	 1.153111	 0.844927
O	 1.171513	 0.459272	 -0.058250
H	 0.050699	 -1.089204	 -0.797170
H	 0.078739	 -0.954914	 0.954740
C	 2.397842	 -0.198080	 -0.002151
H	 2.508049	 -0.905315	 -0.822092
H	 3.173794	 0.550865	 -0.078850
H	 2.517602	 -0.735921	 0.936026

	symmetry c1
}
set optking {
	frozen_dihedral = ("
		1 2 3 5
	")
}

ee = optimize('scf')
oeprop('DIPOLE', 'QUADRUPOLE', 'MULLIKEN_CHARGES')
f=open( 'psi4out.xyz', 'w' )
f.write( "13  " )
f.write( str(ee) + "\n" )
f.write( MOL.save_string_xyz() )
f.close()
--------------------------------------------------------------------------

    Molecular point group: c1
  Charge       = 0
  Multiplicity = 1
  Basis Set: 6-31G*
  Basis Set:
  @DF-RHF Final Energy:  -267.94884921741232
    Total Energy =                       -267.9488492174123735
    Molecular point group: c1
  Basis Set: 6-31G*
  Basis Set:
  Basis Set: 6-31G*
  Basis Set:
  @DF-RHF Final Energy:  -267.94966186395044
    Total Energy =                       -267.9496618639503254
  Basis Set: 6-31G*
  Basis Set:
  Basis Set: 6-31G*
  Basis Set:
  @DF-RHF Final Energy:  -267.94990694447256
    Total Energy =                       -267.9499069444724455
  Basis Set: 6-31G*
  Basis Set:
  Basis Set: 6-31G*
  Basis Set:
  @DF-RHF Final Energy:  -267.94991589194342
    Total Energy =                       -267.9499158919435899
  Basis Set: 6-31G*
  Basis Set:
  Charge       = 0
  Multiplicity = 1
  Basis Set: 6-31G*
  Basis Set:

    Orbital Energies (a.u.)
    -----------------------

    Doubly Occupied:

       1A    -20.558722     2A    -20.558058     3A    -11.269011
       4A    -11.267261     5A    -11.266113     6A     -1.385090
       7A     -1.362980     8A     -1.017856     9A     -0.911189
      10A     -0.832299    11A     -0.711258    12A     -0.679721
      13A     -0.641743    14A     -0.640417    15A     -0.609908
      16A     -0.550346    17A     -0.542762    18A     -0.493474
      19A     -0.473857    20A     -0.438478    21A     -0.418197

  @DF-RHF Final Energy:  -267.94991668586454

   => Energetics <=

    Nuclear Repulsion Energy =            190.3234894349241131
    One-Electron Energy =                -743.2893378518735972
    Two-Electron Energy =                 285.0159317310848905
    DFT Exchange-Correlation Energy =       0.0000000000000000
    Empirical Dispersion Energy =           0.0000000000000000
    PCM Polarization Energy =               0.0000000000000000
    EFP Energy =                            0.0000000000000000
    Total Energy =                       -267.9499166858645935
    Molecular point group: c1
  Basis Set: 6-31G*
  Basis Set:

  -Total Gradient:
     Atom            X                  Y                   Z
    ------   -----------------  -----------------  -----------------
       1        0.000402758462    -0.000696461018    -0.000877553083
       2       -0.000625832419     0.001111703387     0.001222454925
       3        0.000737066060    -0.001214486651    -0.000811173541
       4       -0.000017583198    -0.000016835430    -0.000029341632
       5       -0.000491114401     0.000769002425     0.000488211589
       6       -0.000002501293    -0.000013048848    -0.000000425171
       7        0.000036729103     0.000028431008     0.000006395766
       8       -0.000018539279    -0.000011193208    -0.000007792185
       9       -0.000009394059     0.000036872339    -0.000003152625
      10       -0.000006739169     0.000007072094     0.000019436154
      11       -0.000012044410     0.000004078766    -0.000001428477
      12        0.000002559114     0.000000053050    -0.000002797380
      13        0.000004635493    -0.000005187915    -0.000002834340

  **** Optimization is complete! (in 5 steps) ****
    Final optimized geometry and variables:
    Molecular point group: c1

    Geometry (in Angstrom), charge = 0, multiplicity = 1:

    H           -2.999876452323    -0.017420385759    -0.468929060224
    O           -2.308432935796    -0.325872885252     0.096181816664
    C           -1.178595081460     0.501964613880    -0.021359092238
    C            0.054738637547    -0.376151707386     0.008850803069
    H           -1.195398963325     1.074506731473    -0.943587159542
    H           -1.138526524850     1.208440124312     0.801613773014
    O            1.173134311909     0.454744267501    -0.047254727644
    H            0.037081115454    -1.064806803975    -0.834021857417
    H            0.054995011381    -0.969956019701     0.920964499071
    C            2.390942508044    -0.218973493708    -0.008875217228
    H            2.495751009306    -0.899342481308    -0.851808801491
    H            3.176597857570     0.522442289523    -0.057125290487
    H            2.500413280684    -0.789898658486     0.910995236145

  Mulliken Charges: (a.u.)
   Center  Symbol    Alpha    Beta     Spin     Total
       1     H     0.27747  0.27747  0.00000  0.44505
       2     O     4.37536  4.37536  0.00000 -0.75072
       3     C     3.00420  3.00420  0.00000 -0.00840
       4     C     2.99127  2.99127  0.00000  0.01746
       5     H     0.42432  0.42432  0.00000  0.15137
       6     H     0.41882  0.41882  0.00000  0.16237
       7     O     4.30946  4.30946  0.00000 -0.61892
       8     H     0.42756  0.42756  0.00000  0.14488
       9     H     0.42325  0.42325  0.00000  0.15351
      10     C     3.07948  3.07948  0.00000 -0.15897
      11     H     0.42898  0.42898  0.00000  0.14205
      12     H     0.41172  0.41172  0.00000  0.17657
      13     H     0.42812  0.42812  0.00000  0.14376

   Total alpha = 21.00000, Total beta = 21.00000, Total charge = -0.00000
