  ==> Input File <==

--------------------------------------------------------------------------
set {
	reference rhf
	basis 6-31G*
}

set_num_threads( 4 )
memory 2 gb

molecule MOL {
0 1

H	 -0.821032	 -1.655889	 0.000000
O	 -1.037828	 -0.728600	 0.000000
C	 0.100509	 -0.036935	 0.000000
C	 1.302161	 -0.938010	 -0.000000
O	 0.123019	 1.149958	 0.000000
H	 1.278482	 -1.577119	 0.875040
H	 2.201692	 -0.341358	 -0.000000
H	 1.278482	 -1.577119	 -0.875040

	symmetry c1
}
set optking {
	frozen_dihedral = ("
		4 3 2 1
	")
}

ee = optimize('scf')
oeprop('DIPOLE', 'QUADRUPOLE', 'MULLIKEN_CHARGES')
f=open( 'psi4out.xyz', 'w' )
f.write( "8  " )
f.write( str(ee) + "\n" )
f.write( MOL.save_string_xyz() )
f.close()
--------------------------------------------------------------------------

    Molecular point group: c1
  Charge       = 0
  Multiplicity = 1
  Basis Set: 6-31G*
  Basis Set:
  @DF-RHF Final Energy:  -227.79714772546805
    Total Energy =                       -227.7971477254680508
    Molecular point group: c1
  Basis Set: 6-31G*
  Basis Set:
  Basis Set: 6-31G*
  Basis Set:
  @DF-RHF Final Energy:  -227.79862062759412
    Total Energy =                       -227.7986206275941186
  Basis Set: 6-31G*
  Basis Set:
  Basis Set: 6-31G*
  Basis Set:
  @DF-RHF Final Energy:  -227.79882183651819
    Total Energy =                       -227.7988218365182149
  Basis Set: 6-31G*
  Basis Set:
  Charge       = 0
  Multiplicity = 1
  Basis Set: 6-31G*
  Basis Set:

    Orbital Energies (a.u.)
    -----------------------

    Doubly Occupied:

       1A    -20.615883     2A    -20.548834     3A    -11.385630
       4A    -11.252821     5A     -1.471142     6A     -1.372520
       7A     -1.027948     8A     -0.840826     9A     -0.721487
      10A     -0.668072    11A     -0.655418    12A     -0.602761
      13A     -0.572039    14A     -0.555786    15A     -0.476572
      16A     -0.445647

  @DF-RHF Final Energy:  -227.79882373917033

   => Energetics <=

    Nuclear Repulsion Energy =            122.2316721040109258
    One-Electron Energy =                -553.6342173095110866
    Two-Electron Energy =                 203.6037214663299153
    DFT Exchange-Correlation Energy =       0.0000000000000000
    Empirical Dispersion Energy =           0.0000000000000000
    PCM Polarization Energy =               0.0000000000000000
    EFP Energy =                            0.0000000000000000
    Total Energy =                       -227.7988237391702171
    Molecular point group: c1
  Basis Set: 6-31G*
  Basis Set:

  -Total Gradient:
     Atom            X                  Y                   Z
    ------   -----------------  -----------------  -----------------
       1        0.000030188330     0.000056090770     0.000000003647
       2       -0.000141901631     0.000010945157     0.000000006733
       3        0.000103908359     0.000013673847    -0.000000035592
       4        0.000031394851     0.000004764793     0.000000010688
       5       -0.000051495100    -0.000124487399     0.000000014485
       6       -0.000009161641     0.000023570184    -0.000014007658
       7        0.000046231230    -0.000008129628     0.000000000577
       8       -0.000009164398     0.000023572280     0.000014007119

  **** Optimization is complete! (in 4 steps) ****
    Final optimized geometry and variables:
    Molecular point group: c1

    Geometry (in Angstrom), charge = 0, multiplicity = 1:

    H           -1.053436523837    -1.475317668285     0.000000120635
    O           -1.169096943317    -0.534853869990    -0.000000008797
    C           -0.000625400944     0.116928295206    -0.000000061623
    C            1.228518801658    -0.762019845070    -0.000000004288
    O            0.025431808665     1.297135033156     0.000000048527
    H            1.236173993235    -1.399866223177     0.878686631140
    H            2.111567698892    -0.141910571937     0.000000057562
    H            1.236174091832    -1.399866200319    -0.878686655099

  Mulliken Charges: (a.u.)
   Center  Symbol    Alpha    Beta     Spin     Total
       1     H     0.26872  0.26872  0.00000  0.46255
       2     O     4.34512  4.34512  0.00000 -0.69024
       3     C     2.62277  2.62277  0.00000  0.75446
       4     C     3.31244  3.31244  0.00000 -0.62488
       5     O     4.25958  4.25958  0.00000 -0.51917
       6     H     0.40265  0.40265  0.00000  0.19470
       7     H     0.38606  0.38606  0.00000  0.22788
       8     H     0.40265  0.40265  0.00000  0.19470

   Total alpha = 16.00000, Total beta = 16.00000, Total charge =  0.00000
