  ==> Input File <==

--------------------------------------------------------------------------
set {
	reference rhf
	basis 6-31G*
}

set_num_threads( 4 )
memory 2 gb

molecule MOL {
0 1

H	 -0.367348	 2.047014	 -0.308205
C	 0.352277	 1.337084	 0.083769
N	 -0.000016	 0.000074	 -0.335546
H	 1.328359	 1.600444	 -0.307950
H	 0.381933	 1.450534	 1.172486
C	 -1.387931	 -0.301275	 -0.068805
C	 0.349435	 -0.242571	 -1.716547
H	 -1.597003	 -1.332568	 -0.329716
H	 -1.595022	 -0.175805	 0.987999
H	 -2.079825	 0.336990	 -0.628075
H	 1.410463	 -0.074431	 -1.862570
H	 0.136527	 -1.273960	 -1.974124
H	 -0.194965	 0.400905	 -2.415470

	symmetry c1
}
set optking {
	frozen_dihedral = ("
		6 3 2 1
	")
}

ee = optimize('scf')
oeprop('DIPOLE', 'QUADRUPOLE', 'MULLIKEN_CHARGES')
f=open( 'psi4out.xyz', 'w' )
f.write( "13  " )
f.write( str(ee) + "\n" )
f.write( MOL.save_string_xyz() )
f.close()
--------------------------------------------------------------------------

    Molecular point group: c1
  Charge       = 0
  Multiplicity = 1
  Basis Set: 6-31G*
  Basis Set:
  @DF-RHF Final Energy:  -173.26749581907544
    Total Energy =                       -173.2674958190753784
    Molecular point group: c1
  Basis Set: 6-31G*
  Basis Set:
  Basis Set: 6-31G*
  Basis Set:
  @DF-RHF Final Energy:  -173.26837151606625
    Total Energy =                       -173.2683715160662530
  Basis Set: 6-31G*
  Basis Set:
  Basis Set: 6-31G*
  Basis Set:
  @DF-RHF Final Energy:  -173.26846877267141
    Total Energy =                       -173.2684687726713832
  Basis Set: 6-31G*
  Basis Set:
  Charge       = 0
  Multiplicity = 1
  Basis Set: 6-31G*
  Basis Set:

    Orbital Energies (a.u.)
    -----------------------

    Doubly Occupied:

       1A    -15.544243     2A    -11.235803     3A    -11.235787
       4A    -11.235749     5A     -1.225317     6A     -0.951675
       7A     -0.950861     8A     -0.807016     9A     -0.641729
      10A     -0.630737    11A     -0.629504    12A     -0.546721
      13A     -0.542468    14A     -0.517301    15A     -0.501012
      16A     -0.499722    17A     -0.347997

  @DF-RHF Final Energy:  -173.26847038957985

   => Energetics <=

    Nuclear Repulsion Energy =            139.3031677547153606
    One-Electron Energy =                -509.0559918667195802
    Two-Electron Energy =                 196.4843537224244301
    DFT Exchange-Correlation Energy =       0.0000000000000000
    Empirical Dispersion Energy =           0.0000000000000000
    PCM Polarization Energy =               0.0000000000000000
    EFP Energy =                            0.0000000000000000
    Total Energy =                       -173.2684703895797611
    Molecular point group: c1
  Basis Set: 6-31G*
  Basis Set:

  -Total Gradient:
     Atom            X                  Y                   Z
    ------   -----------------  -----------------  -----------------
       1       -0.001869397905    -0.000312999502     0.002714915753
       2        0.002096764271     0.000682077752    -0.004378176270
       3        0.000285355772    -0.001258446847     0.003747021154
       4       -0.000008812614    -0.000058728395    -0.000022097898
       5        0.000005826324    -0.000014931186     0.000006304660
       6       -0.000483621769     0.000875248933    -0.002208494109
       7        0.000037136179     0.000077097954     0.000145146367
       8       -0.000015658525    -0.000007841911    -0.000003634164
       9       -0.000038780476     0.000001886356     0.000010978451
      10       -0.000006872019     0.000008406610    -0.000004961892
      11        0.000030967522     0.000008327778    -0.000022717852
      12       -0.000016799581     0.000004314194     0.000025454395
      13       -0.000016107178    -0.000004411737    -0.000009738594

  **** Optimization is complete! (in 4 steps) ****
    Final optimized geometry and variables:
    Molecular point group: c1

    Geometry (in Angstrom), charge = 0, multiplicity = 1:

    H           -0.173949163180     1.881510903328     0.216643970972
    C            0.528266684972     1.133459667344     0.597121353566
    N            0.192920112746    -0.214012826813     0.189451985314
    H            1.526104468781     1.388094190580     0.261952132580
    H            0.513016177100     1.200692510629     1.680339653830
    C           -1.195286491466    -0.515151318172     0.457774974647
    C            0.523497631839    -0.457901400337    -1.197933354577
    H           -1.402469480970    -1.551502080664     0.216094025748
    H           -1.407107115735    -0.369757441642     1.511467318780
    H           -1.884088640121     0.113364735262    -0.115592654632
    H            1.582417743308    -0.292006356179    -1.359705115310
    H            0.305787245019    -1.489760712404    -1.449599664693
    H           -0.031316908563     0.182995369288    -1.890794541914

  Mulliken Charges: (a.u.)
   Center  Symbol    Alpha    Beta     Spin     Total
       1     H     0.43424  0.43424  0.00000  0.13152
       2     C     3.14378  3.14378  0.00000 -0.28756
       3     N     3.76496  3.76496  0.00000 -0.52991
       4     H     0.41722  0.41722  0.00000  0.16557
       5     H     0.41596  0.41596  0.00000  0.16808
       6     C     3.14411  3.14411  0.00000 -0.28823
       7     C     3.14355  3.14355  0.00000 -0.28711
       8     H     0.41637  0.41637  0.00000  0.16727
       9     H     0.41659  0.41659  0.00000  0.16683
      10     H     0.43468  0.43468  0.00000  0.13065
      11     H     0.41652  0.41652  0.00000  0.16696
      12     H     0.41689  0.41689  0.00000  0.16623
      13     H     0.43515  0.43515  0.00000  0.12970

   Total alpha = 17.00000, Total beta = 17.00000, Total charge = -0.00000
