  ==> Input File <==

--------------------------------------------------------------------------
set {
	reference rhf
	basis 6-31G*
}

set_num_threads( 1 )
memory 2 gb

molecule MOL {
0 1

O	 2.939920	 -0.104677	 -1.656558
C	 2.548289	 -0.516191	 -0.612365
C	 1.112039	 -0.512858	 -0.147643
O	 3.347903	 -1.046386	 0.304773
C	 0.150067	 0.077527	 -1.176317
H	 0.857512	 -1.536394	 0.106879
H	 1.075864	 0.042931	 0.785891
C	 -1.295571	 0.184595	 -0.679164
H	 0.184019	 -0.519170	 -2.082915
H	 0.504097	 1.064364	 -1.454234
C	 -1.991303	 -1.155589	 -0.424262
H	 -1.866986	 0.736932	 -1.421548
H	 -1.323005	 0.784252	 0.229498
C	 -3.462906	 -0.997686	 -0.036383
H	 -1.919564	 -1.771763	 -1.319249
H	 -1.477064	 -1.700752	 0.363982
C	 -4.166957	 -2.330231	 0.225849
H	 -3.988055	 -0.464231	 -0.826876
H	 -3.536002	 -0.372747	 0.852328
C	 -5.637110	 -2.163956	 0.608867
H	 -4.093991	 -2.956348	 -0.660884
H	 -3.646053	 -2.862978	 1.018705
H	 -6.108430	 -3.125337	 0.788340
H	 -6.193580	 -1.664948	 -0.179503
H	 -5.742108	 -1.570338	 1.512675
C	 4.728119	 -1.109107	 -0.004993
H	 4.882018	 -1.033965	 -1.071845
H	 5.068212	 -2.067527	 0.355250
H	 5.265056	 -0.311663	 0.488280

	symmetry c1
}
set optking {
	frozen_dihedral = ("
		21 17 14 11,
		17 14 11 15,
		15 11 8 5,
		6 3 5 9,
		11 8 5 9,
		1 2 4 26,
		6 3 2 1
	")
}

ee = energy('scf')
oeprop('DIPOLE', 'QUADRUPOLE', 'MULLIKEN_CHARGES')
f=open( 'psi4out.xyz', 'w' )
f.write( "29  " )
f.write( str(ee) + "\n" )
f.write( MOL.save_string_xyz() )
f.close()
--------------------------------------------------------------------------

    Molecular point group: c1

    Geometry (in Angstrom), charge = 0, multiplicity = 1:

       Center              X                  Y                   Z               Mass
    ------------   -----------------  -----------------  -----------------  -----------------
           O          3.052747371764     0.781767325358    -1.333322019212    15.994914619560
           C          2.661116371764     0.370253325358    -0.289129019212    12.000000000000
           C          1.224866371764     0.373586325358     0.175592980788    12.000000000000
           O          3.460730371764    -0.159941674642     0.628008980788    15.994914619560
           C          0.262894371764     0.963971325358    -0.853081019212    12.000000000000
           H          0.970339371764    -0.649949674642     0.430114980788     1.007825032070
           H          1.188691371764     0.929375325358     1.109126980788     1.007825032070
           C         -1.182743628236     1.071039325358    -0.355928019212    12.000000000000
           H          0.296846371764     0.367274325358    -1.759679019212     1.007825032070
           H          0.616924371764     1.950808325358    -1.130998019212     1.007825032070
           C         -1.878475628236    -0.269144674642    -0.101026019212    12.000000000000
           H         -1.754158628236     1.623376325358    -1.098312019212     1.007825032070
           H         -1.210177628236     1.670696325358     0.552733980788     1.007825032070
           C         -3.350078628236    -0.111241674642     0.286852980788    12.000000000000
           H         -1.806736628236    -0.885318674642    -0.996013019212     1.007825032070
           H         -1.364236628236    -0.814307674642     0.687217980788     1.007825032070
           C         -4.054129628236    -1.443786674642     0.549084980788    12.000000000000
           H         -3.875227628236     0.422213325358    -0.503640019212     1.007825032070
           H         -3.423174628236     0.513697325358     1.175563980788     1.007825032070
           C         -5.524282628236    -1.277511674642     0.932102980788    12.000000000000
           H         -3.981163628236    -2.069903674642    -0.337648019212     1.007825032070
           H         -3.533225628236    -1.976533674642     1.341940980788     1.007825032070
           H         -5.995602628236    -2.238892674642     1.111575980788     1.007825032070
           H         -6.080752628236    -0.778503674642     0.143732980788     1.007825032070
           H         -5.629280628236    -0.683893674642     1.835910980788     1.007825032070
           C          4.840946371764    -0.222662674642     0.318242980788    12.000000000000
           H          4.994845371764    -0.147520674642    -0.748609019212     1.007825032070
           H          5.181039371764    -1.181082674642     0.678485980788     1.007825032070
           H          5.377883371764     0.574781325358     0.811515980788     1.007825032070

  Charge       = 0
  Multiplicity = 1
  Basis Set: 6-31G*
  Basis Set:

    Orbital Energies (a.u.)
    -----------------------

    Doubly Occupied:

       1A    -20.603275     2A    -20.544530     3A    -11.372991
       4A    -11.276900     5A    -11.235125     6A    -11.219253
       7A    -11.217757     8A    -11.216085     9A    -11.215911
      10A    -11.214521    11A    -11.209106    12A     -1.469360
      13A     -1.362673    14A     -1.098235    15A     -1.066978
      16A     -1.019543    17A     -0.976728    18A     -0.928281
      19A     -0.861575    20A     -0.799236    21A     -0.790484
      22A     -0.763468    23A     -0.703119    24A     -0.681274
      25A     -0.672723    26A     -0.650873    27A     -0.629081
      28A     -0.604352    29A     -0.595083    30A     -0.579246
      31A     -0.567732    32A     -0.550566    33A     -0.533809
      34A     -0.525184    35A     -0.516768    36A     -0.511881
      37A     -0.496673    38A     -0.477966    39A     -0.470281
      40A     -0.462487    41A     -0.458881    42A     -0.453553
      43A     -0.441755    44A     -0.435528

  @DF-RHF Final Energy:  -501.04190928981461

   => Energetics <=

    Nuclear Repulsion Energy =            610.2918139194107425
    One-Electron Energy =               -1891.7057535892404303
    Two-Electron Energy =                 780.3720303800143938
    DFT Exchange-Correlation Energy =       0.0000000000000000
    Empirical Dispersion Energy =           0.0000000000000000
    PCM Polarization Energy =               0.0000000000000000
    EFP Energy =                            0.0000000000000000
    Total Energy =                       -501.0419092898152940

  Mulliken Charges: (a.u.)
   Center  Symbol    Alpha    Beta     Spin     Total
       1     O     4.28659  4.28659  0.00000 -0.57318
       2     C     2.60454  2.60454  0.00000  0.79091
       3     C     3.21042  3.21042  0.00000 -0.42083
       4     O     4.30720  4.30720  0.00000 -0.61440
       5     C     3.15382  3.15382  0.00000 -0.30765
       6     H     0.39868  0.39868  0.00000  0.20265
       7     H     0.40097  0.40097  0.00000  0.19807
       8     C     3.15663  3.15663  0.00000 -0.31326
       9     H     0.41307  0.41307  0.00000  0.17386
      10     H     0.40868  0.40868  0.00000  0.18265
      11     C     3.15508  3.15508  0.00000 -0.31016
      12     H     0.41820  0.41820  0.00000  0.16359
      13     H     0.42384  0.42384  0.00000  0.15232
      14     C     3.15029  3.15029  0.00000 -0.30059
      15     H     0.42261  0.42261  0.00000  0.15478
      16     H     0.42360  0.42360  0.00000  0.15279
      17     C     3.15146  3.15146  0.00000 -0.30293
      18     H     0.42332  0.42332  0.00000  0.15337
      19     H     0.42396  0.42396  0.00000  0.15209
      20     C     3.23936  3.23936  0.00000 -0.47871
      21     H     0.42280  0.42280  0.00000  0.15440
      22     H     0.42342  0.42342  0.00000  0.15316
      23     H     0.41922  0.41922  0.00000  0.16156
      24     H     0.42154  0.42154  0.00000  0.15691
      25     H     0.42182  0.42182  0.00000  0.15636
      26     C     3.09991  3.09991  0.00000 -0.19982
      27     H     0.39403  0.39403  0.00000  0.21195
      28     H     0.41140  0.41140  0.00000  0.17720
      29     H     0.41355  0.41355  0.00000  0.17290

   Total alpha = 44.00000, Total beta = 44.00000, Total charge = -0.00000
