  ==> Input File <==

--------------------------------------------------------------------------
set {
	reference rhf
	basis cc-pvtz
}

set_num_threads( 4 )
memory 2 gb

molecule MOL {
0 1

O	 -1.510770	 1.240811	 -0.054933
C	 -1.081510	 0.147522	 0.122720
C	 0.327029	 -0.064006	 0.641890
C	 -1.903028	 -1.084121	 -0.174656
C	 1.349460	 -0.017068	 -0.500215
H	 0.399029	 -1.014606	 1.159950
H	 0.538021	 0.726928	 1.350471
C	 2.605890	 0.760348	 -0.125047
H	 1.624180	 -1.027747	 -0.788131
H	 0.880872	 0.436311	 -1.365779
H	 3.305619	 0.787835	 -0.951881
H	 3.110542	 0.307504	 0.721718
H	 2.365639	 1.783813	 0.140791
H	 -1.341891	 -1.779207	 -0.789259
H	 -2.820449	 -0.808163	 -0.671328
H	 -2.133314	 -1.593056	 0.755831

	symmetry c1
}
set optking {
	frozen_dihedral = ("
		9 5 3 2
	")
}

ee = optimize('scf')
oeprop('DIPOLE', 'QUADRUPOLE', 'MULLIKEN_CHARGES')
f=open( 'psi4out.xyz', 'w' )
f.write( "16  " )
f.write( str(ee) + "\n" )
f.write( MOL.save_string_xyz() )
f.close()
--------------------------------------------------------------------------

    Molecular point group: c1
  Charge       = 0
  Multiplicity = 1
  Basis Set: CC-PVTZ
  Basis Set:
  @DF-RHF Final Energy:  -270.12483673813199
    Total Energy =                       -270.1248367381320463
    Molecular point group: c1
  Basis Set: CC-PVTZ
  Basis Set:
  Basis Set: CC-PVTZ
  Basis Set:
  @DF-RHF Final Energy:  -270.12511211849653
    Total Energy =                       -270.1251121184967019
  Basis Set: CC-PVTZ
  Basis Set:
  Basis Set: CC-PVTZ
  Basis Set:
  @DF-RHF Final Energy:  -270.12329199865042
    Total Energy =                       -270.1232919986504726
  Basis Set: CC-PVTZ
  Basis Set:
  Basis Set: CC-PVTZ
  Basis Set:
  @DF-RHF Final Energy:  -270.12537308865251
    Total Energy =                       -270.1253730886529638
  Basis Set: CC-PVTZ
  Basis Set:
  @DF-RHF Final Energy:  -270.12547878977199
    Total Energy =                       -270.1254787897717051
  Basis Set: CC-PVTZ
  Basis Set:
  @DF-RHF Final Energy:  -270.12552871821129
    Total Energy =                       -270.1255287182113420
  Basis Set: CC-PVTZ
  Basis Set:
  Basis Set: CC-PVTZ
  Basis Set:
  @DF-RHF Final Energy:  -270.12554357656956
    Total Energy =                       -270.1255435765694983
  Basis Set: CC-PVTZ
  Basis Set:
  Basis Set: CC-PVTZ
  Basis Set:
  @DF-RHF Final Energy:  -270.12554679570530
    Total Energy =                       -270.1255467957055316
  Basis Set: CC-PVTZ
  Basis Set:
  Charge       = 0
  Multiplicity = 1
  Basis Set: CC-PVTZ
  Basis Set:

    Orbital Energies (a.u.)
    -----------------------

    Doubly Occupied:

       1A    -20.537465     2A    -11.319540     3A    -11.233944
       4A    -11.228121     5A    -11.226702     6A    -11.217270
       7A     -1.397398     8A     -1.083134     9A     -1.012912
      10A     -0.950040    11A     -0.832046    12A     -0.736661
      13A     -0.661745    14A     -0.646036    15A     -0.622046
      16A     -0.603892    17A     -0.579035    18A     -0.555688
      19A     -0.543198    20A     -0.516929    21A     -0.501176
      22A     -0.484718    23A     -0.476762    24A     -0.400387

  @DF-RHF Final Energy:  -270.12554722566108

   => Energetics <=

    Nuclear Repulsion Energy =            237.8621199187692241
    One-Electron Energy =                -837.2416402602095786
    Two-Electron Energy =                 329.2539731157793312
    DFT Exchange-Correlation Energy =       0.0000000000000000
    Empirical Dispersion Energy =           0.0000000000000000
    PCM Polarization Energy =               0.0000000000000000
    EFP Energy =                            0.0000000000000000
    Total Energy =                       -270.1255472256610801
    Molecular point group: c1
  Basis Set: CC-PVTZ
  Basis Set:

  -Total Gradient:
     Atom            X                  Y                   Z
    ------   -----------------  -----------------  -----------------
       1       -0.000001005182    -0.000002801899    -0.000010958913
       2        0.000292313229     0.002593215100     0.000046143675
       3        0.000245880808    -0.003461616980     0.000509743923
       4       -0.000020642284    -0.000018166003     0.000044480482
       5       -0.003248992220     0.000606632856    -0.002813504407
       6       -0.000008798024     0.000005302387     0.000001646136
       7        0.000004811481    -0.000007224212    -0.000002698685
       8       -0.000006632381    -0.000018165561    -0.000006823169
       9        0.002732394049     0.000297667275     0.002280180911
      10        0.000001050913    -0.000001522200    -0.000008959623
      11        0.000004163027     0.000001678121     0.000001205380
      12       -0.000000711836     0.000002565129     0.000000456791
      13       -0.000003215820    -0.000002753834    -0.000004065066
      14       -0.000000866462     0.000008329222    -0.000012433347
      15        0.000000930334     0.000003392044    -0.000008654589
      16        0.000009320367    -0.000006531447    -0.000015759499

  **** Optimization is complete! (in 9 steps) ****
    Final optimized geometry and variables:
    Molecular point group: c1

    Geometry (in Angstrom), charge = 0, multiplicity = 1:

    O           -1.607867552061     1.056506537307     0.235386708182
    C           -1.059347575069     0.003505686398     0.200194947653
    C            0.370227246844    -0.155278003795     0.674431668078
    C           -1.750603287233    -1.230071428774    -0.332833010528
    C            1.365217337167    -0.240184812609    -0.506292429208
    H            0.458194845238    -1.036048511637     1.300766129127
    H            0.590382486826     0.711383207282     1.282002013347
    C            2.649122291636     0.539071791368    -0.234376995281
    H            1.629566781486    -1.275641913654    -0.688122166288
    H            0.906811480096     0.140053584983    -1.412376850141
    H            3.346366715573     0.436927735168    -1.057782262880
    H            3.140228733401     0.179533727852     0.663599498656
    H            2.441545096992     1.594222767872    -0.099522841531
    H           -1.131831480502    -1.731351995297    -1.068256530785
    H           -2.700494444821    -0.963314244802    -0.770021004660
    H           -1.911428475855    -1.928709091325     0.481936449947

  Mulliken Charges: (a.u.)
   Center  Symbol    Alpha    Beta     Spin     Total
       1     O     4.17470  4.17470  0.00000 -0.34940
       2     C     2.86017  2.86017  0.00000  0.27966
       3     C     3.09930  3.09930  0.00000 -0.19859
       4     C     3.15479  3.15479  0.00000 -0.30958
       5     C     3.09274  3.09274  0.00000 -0.18548
       6     H     0.44708  0.44708  0.00000  0.10585
       7     H     0.44029  0.44029  0.00000  0.11943
       8     C     3.14646  3.14646  0.00000 -0.29292
       9     H     0.45089  0.45089  0.00000  0.09823
      10     H     0.44843  0.44843  0.00000  0.10314
      11     H     0.44804  0.44804  0.00000  0.10392
      12     H     0.45366  0.45366  0.00000  0.09267
      13     H     0.44952  0.44952  0.00000  0.10095
      14     H     0.44948  0.44948  0.00000  0.10103
      15     H     0.43569  0.43569  0.00000  0.12861
      16     H     0.44876  0.44876  0.00000  0.10249

   Total alpha = 24.00000, Total beta = 24.00000, Total charge = -0.00000
