  ==> Input File <==

--------------------------------------------------------------------------
set {
	reference rhf
	basis 6-31G*
}

set_num_threads( 4 )
memory 2 gb

molecule MOL {
0 1

H	 -2.276678	 -0.507102	 3.280058
C	 -1.434776	 -0.513990	 2.612056
C	 -1.293143	 -1.523325	 1.665798
C	 -0.477988	 0.477697	 2.679616
H	 -2.029302	 -2.304604	 1.598707
C	 -0.214951	 -1.535461	 0.807572
H	 -0.571045	 1.266379	 3.405154
C	 0.616038	 0.479909	 1.820801
H	 -0.093391	 -2.308938	 0.072187
C	 0.747496	 -0.530747	 0.881454
H	 1.343080	 1.264832	 1.898078
O	 1.765256	 -0.628444	 0.000000
C	 2.778419	 0.335181	 0.000000
H	 2.731280	 0.961222	 -0.884976
H	 3.711703	 -0.207767	 0.000000
H	 2.731280	 0.961222	 0.884976

	symmetry c1
}
set optking {
	frozen_dihedral = ("
		10 12 13 14
	")
}

ee = optimize('scf')
oeprop('DIPOLE', 'QUADRUPOLE', 'MULLIKEN_CHARGES')
f=open( 'psi4out.xyz', 'w' )
f.write( "16  " )
f.write( str(ee) + "\n" )
f.write( MOL.save_string_xyz() )
f.close()
--------------------------------------------------------------------------

    Molecular point group: c1
  Charge       = 0
  Multiplicity = 1
  Basis Set: 6-31G*
  Basis Set:
  @DF-RHF Final Energy:  -344.57481568822681
    Total Energy =                       -344.5748156882268631
    Molecular point group: c1
  Basis Set: 6-31G*
  Basis Set:
  Basis Set: 6-31G*
  Basis Set:
  @DF-RHF Final Energy:  -344.57324258163726
    Total Energy =                       -344.5732425816372597
  Basis Set: 6-31G*
  Basis Set:
  Basis Set: 6-31G*
  Basis Set:
  @DF-RHF Final Energy:  -344.57730523501891
    Total Energy =                       -344.5773052350190255
  Basis Set: 6-31G*
  Basis Set:
  Basis Set: 6-31G*
  Basis Set:
  @DF-RHF Final Energy:  -344.57802903935237
    Total Energy =                       -344.5780290393524297
  Basis Set: 6-31G*
  Basis Set:
  @DF-RHF Final Energy:  -344.57891916206557
    Total Energy =                       -344.5789191620651764
  Basis Set: 6-31G*
  Basis Set:
  @DF-RHF Final Energy:  -344.57903299041988
    Total Energy =                       -344.5790329904200462
  Basis Set: 6-31G*
  Basis Set:
  Basis Set: 6-31G*
  Basis Set:
  @DF-RHF Final Energy:  -344.57908377630969
    Total Energy =                       -344.5790837763094601
  Basis Set: 6-31G*
  Basis Set:
  Basis Set: 6-31G*
  Basis Set:
  @DF-RHF Final Energy:  -344.57909041864326
    Total Energy =                       -344.5790904186432044
  Basis Set: 6-31G*
  Basis Set:
  Charge       = 0
  Multiplicity = 1
  Basis Set: 6-31G*
  Basis Set:

    Orbital Energies (a.u.)
    -----------------------

    Doubly Occupied:

       1A    -20.577965     2A    -11.291821     3A    -11.278201
       4A    -11.233132     5A    -11.231578     6A    -11.224477
       7A    -11.221165     8A    -11.220071     9A     -1.406263
      10A     -1.146069    11A     -1.019834    12A     -1.013246
      13A     -0.938837    14A     -0.831732    15A     -0.804890
      16A     -0.717914    17A     -0.664057    18A     -0.661210
      19A     -0.648480    20A     -0.614440    21A     -0.589601
      22A     -0.580612    23A     -0.526349    24A     -0.513307
      25A     -0.507340    26A     -0.480110    27A     -0.449789
      28A     -0.334390    29A     -0.308520

  @DF-RHF Final Energy:  -344.57909128264311

   => Energetics <=

    Nuclear Repulsion Energy =            347.6386753221951835
    One-Electron Energy =               -1156.3647356855908583
    Two-Electron Energy =                 464.1469690807527968
    DFT Exchange-Correlation Energy =       0.0000000000000000
    Empirical Dispersion Energy =           0.0000000000000000
    PCM Polarization Energy =               0.0000000000000000
    EFP Energy =                            0.0000000000000000
    Total Energy =                       -344.5790912826428212
    Molecular point group: c1
  Basis Set: 6-31G*
  Basis Set:

  -Total Gradient:
     Atom            X                  Y                   Z
    ------   -----------------  -----------------  -----------------
       1       -0.000006312841    -0.000009809686    -0.000000067448
       2        0.000068449714     0.000069596803     0.000037522832
       3       -0.000008759446    -0.000008390380    -0.000083021376
       4       -0.000102197597    -0.000017889657     0.000041282265
       5        0.000005760824     0.000007299855     0.000018067063
       6       -0.000013332786    -0.000003864493    -0.000031385029
       7        0.000000799232    -0.000003897792    -0.000001216055
       8        0.000040719582    -0.000033258537    -0.000096869954
       9        0.000002592831     0.000000250281    -0.000004278567
      10        0.000703881970    -0.001960609450     0.000858412840
      11       -0.000008419150    -0.000011366984    -0.000002769110
      12       -0.000828978610     0.002553189388    -0.001555033291
      13       -0.000740742020     0.000592596560     0.002754899037
      14        0.000940982519    -0.001196422741    -0.001940399974
      15       -0.000051814591    -0.000000736525     0.000026286679
      16       -0.000002629634     0.000023313359    -0.000021429914

  **** Optimization is complete! (in 9 steps) ****
    Final optimized geometry and variables:
    Molecular point group: c1

    Geometry (in Angstrom), charge = 0, multiplicity = 1:

    H           -2.521471152125    -0.292220433134     2.184496015088
    C           -1.740518285795    -0.216639182424     1.449824011578
    C           -1.551989320407    -1.228224018528     0.518115046504
    C           -0.914396433726     0.891817739848     1.417363249308
    H           -2.188413854069    -2.095217725395     0.529905347411
    C           -0.545517948390    -1.137978920884    -0.424302026701
    H           -1.055040021209     1.688843042330     2.125840329829
    C            0.093969639858     0.998774308148     0.470027622597
    H           -0.385593893739    -1.915090607255    -1.148401889171
    C            0.284170628141    -0.023972187370    -0.447473704230
    H            0.711476912136     1.877465967247     0.440854296814
    O            1.223308383489     0.020473817734    -1.421009830308
    C            2.487991133615     0.573021468768    -1.157805681493
    H            2.600239036135     1.513268234952    -1.685026321687
    H            3.230201024807    -0.118864893085    -1.534881432853
    H            2.653549032609     0.721949372401    -0.099203955151

  Mulliken Charges: (a.u.)
   Center  Symbol    Alpha    Beta     Spin     Total
       1     H     0.40090  0.40090  0.00000  0.19821
       2     C     3.11055  3.11055  0.00000 -0.22110
       3     C     3.09327  3.09327  0.00000 -0.18654
       4     C     3.09271  3.09271  0.00000 -0.18543
       5     H     0.39872  0.39872  0.00000  0.20256
       6     C     3.12466  3.12466  0.00000 -0.24932
       7     H     0.39930  0.39930  0.00000  0.20140
       8     C     3.13528  3.13528  0.00000 -0.27057
       9     H     0.39327  0.39327  0.00000  0.21345
      10     C     2.78889  2.78889  0.00000  0.42222
      11     H     0.39747  0.39747  0.00000  0.20506
      12     O     4.33102  4.33102  0.00000 -0.66204
      13     C     3.08654  3.08654  0.00000 -0.17309
      14     H     0.41722  0.41722  0.00000  0.16555
      15     H     0.41095  0.41095  0.00000  0.17809
      16     H     0.41923  0.41923  0.00000  0.16153

   Total alpha = 29.00000, Total beta = 29.00000, Total charge = -0.00000
