  ==> Input File <==

--------------------------------------------------------------------------
set {
	reference rhf
	basis 6-31G*
}

set_num_threads( 4 )
memory 2 gb

molecule MOL {
0 1

H	 -3.042581	 -0.665861	 0.004336
O	 -2.245037	 -1.176175	 0.000806
C	 -1.162163	 -0.365336	 0.001020
C	 0.089460	 -0.797041	 -0.399481
C	 -1.349878	 0.943368	 0.428674
H	 0.237040	 -1.811859	 -0.728626
C	 1.152172	 0.094899	 -0.367880
H	 -2.335139	 1.244290	 0.734980
C	 -0.289773	 1.832409	 0.458578
H	 2.127350	 -0.238114	 -0.676376
C	 0.972528	 1.396125	 0.055808
C	 -0.497516	 3.262295	 0.900583
H	 1.806808	 2.074990	 0.077010
H	 0.303245	 3.589564	 1.555156
H	 -1.434976	 3.380295	 1.430776
H	 -0.513984	 3.931308	 0.044722

	symmetry c1
}
set optking {
	frozen_dihedral = ("
		5 3 2 1
	")
}

ee = optimize('scf')
oeprop('DIPOLE', 'QUADRUPOLE', 'MULLIKEN_CHARGES')
f=open( 'psi4out.xyz', 'w' )
f.write( "16  " )
f.write( str(ee) + "\n" )
f.write( MOL.save_string_xyz() )
f.close()
--------------------------------------------------------------------------

    Molecular point group: c1
  Charge       = 0
  Multiplicity = 1
  Basis Set: 6-31G*
  Basis Set:
  @DF-RHF Final Energy:  -344.59252341792114
    Total Energy =                       -344.5925234179210292
    Molecular point group: c1
  Basis Set: 6-31G*
  Basis Set:
  Basis Set: 6-31G*
  Basis Set:
  @DF-RHF Final Energy:  -344.59433748363375
    Total Energy =                       -344.5943374836338080
  Basis Set: 6-31G*
  Basis Set:
  Basis Set: 6-31G*
  Basis Set:
  @DF-RHF Final Energy:  -344.59449381686727
    Total Energy =                       -344.5944938168673843
  Basis Set: 6-31G*
  Basis Set:
  Basis Set: 6-31G*
  Basis Set:
  @DF-RHF Final Energy:  -344.59451457341328
    Total Energy =                       -344.5945145734133348
  Basis Set: 6-31G*
  Basis Set:
  @DF-RHF Final Energy:  -344.59452107853508
    Total Energy =                       -344.5945210785353652
  @DF-RHF Final Energy:  -344.59452473871659
    Total Energy =                       -344.5945247387165864
  @DF-RHF Final Energy:  -344.59453809074790
    Total Energy =                       -344.5945380907477329
  @DF-RHF Final Energy:  -344.59456951696984
    Total Energy =                       -344.5945695169696137
  @DF-RHF Final Energy:  -344.59458896583033
    Total Energy =                       -344.5945889658302690
  @DF-RHF Final Energy:  -344.59460145332469
    Total Energy =                       -344.5946014533247421
  @DF-RHF Final Energy:  -344.59460343388037
    Total Energy =                       -344.5946034338800246
  @DF-RHF Final Energy:  -344.59460504432133
    Total Energy =                       -344.5946050443213835
  @DF-RHF Final Energy:  -344.59460906901620
    Total Energy =                       -344.5946090690162009
  @DF-RHF Final Energy:  -344.59461271335948
    Total Energy =                       -344.5946127133594246
  Basis Set: 6-31G*
  Basis Set:
  @DF-RHF Final Energy:  -344.59461569656469
    Total Energy =                       -344.5946156965642899
  Basis Set: 6-31G*
  Basis Set:
  Basis Set: 6-31G*
  Basis Set:
  @DF-RHF Final Energy:  -344.59461786230941
    Total Energy =                       -344.5946178623093488
  Basis Set: 6-31G*
  Basis Set:
  Basis Set: 6-31G*
  Basis Set:
  @DF-RHF Final Energy:  -344.59462027620526
    Total Energy =                       -344.5946202762050348
  Basis Set: 6-31G*
  Basis Set:
  Charge       = 0
  Multiplicity = 1
  Basis Set: 6-31G*
  Basis Set:

    Orbital Energies (a.u.)
    -----------------------

    Doubly Occupied:

       1A    -20.587747     2A    -11.295450     3A    -11.243336
       4A    -11.232662     5A    -11.223068     6A    -11.221693
       7A    -11.217542     8A    -11.216752     9A     -1.405974
      10A     -1.149828    11A     -1.044109    12A     -1.003236
      13A     -0.938235    14A     -0.840076    15A     -0.799105
      16A     -0.727152    17A     -0.679953    18A     -0.647361
      19A     -0.601272    20A     -0.592660    21A     -0.577395
      22A     -0.567255    23A     -0.566025    24A     -0.533222
      25A     -0.503907    26A     -0.481873    27A     -0.466917
      28A     -0.329363    29A     -0.306830

  @DF-RHF Final Energy:  -344.59462054363530

   => Energetics <=

    Nuclear Repulsion Energy =            345.5346612669500246
    One-Electron Energy =               -1152.2585638973307596
    Two-Electron Energy =                 462.1292820867452065
    DFT Exchange-Correlation Energy =       0.0000000000000000
    Empirical Dispersion Energy =           0.0000000000000000
    PCM Polarization Energy =               0.0000000000000000
    EFP Energy =                            0.0000000000000000
    Total Energy =                       -344.5946205436355285
    Molecular point group: c1
  Basis Set: 6-31G*
  Basis Set:

  -Total Gradient:
     Atom            X                  Y                   Z
    ------   -----------------  -----------------  -----------------
       1        0.000107218735     0.000038816054    -0.001831767324
       2       -0.000011519678    -0.000254228606     0.002962576154
       3       -0.000332271999     0.000603124379    -0.002423423752
       4        0.000003762190     0.000003330626    -0.000021652515
       5        0.000211708490    -0.000388327488     0.001286591938
       6       -0.000001192350    -0.000005938895     0.000019526301
       7        0.000001320183     0.000010607420    -0.000012718466
       8        0.000002869356    -0.000004251645     0.000015831680
       9        0.000031609364     0.000007188926     0.000008207390
      10       -0.000001372558    -0.000002216821     0.000002077289
      11        0.000000290561    -0.000010874578     0.000001543361
      12       -0.000007040419    -0.000003031441    -0.000009008202
      13       -0.000003538818     0.000006685313    -0.000000911597
      14        0.000000594413     0.000000044849     0.000001806483
      15       -0.000001213671    -0.000003068092     0.000000787443
      16       -0.000001223792     0.000002139995     0.000000533817

  **** Optimization is complete! (in 18 steps) ****
    Final optimized geometry and variables:
    Molecular point group: c1

    Geometry (in Angstrom), charge = 0, multiplicity = 1:

    H           -2.569548012770    -1.377938555877    -0.299972516303
    O           -1.744343265507    -1.840703594692    -0.261870314183
    C           -0.711750462845    -0.967100622794    -0.184087682468
    C            0.554143974092    -1.439762388172    -0.506357482387
    C           -0.884231319644     0.339520603366     0.234352838334
    H            0.668213813997    -2.459374460963    -0.823626261553
    C            1.630921659447    -0.583515406977    -0.409816128336
    H           -1.870349540755     0.687614177080     0.497268646668
    C            0.202559681050     1.206701494767     0.323551727980
    H            2.614220113536    -0.941809921912    -0.658405774302
    C            1.463642682497     0.734093224806    -0.000998743671
    C           -0.010204248745     2.634030261421     0.771413287024
    H            2.315784927907     1.386707241179     0.064563926643
    H            0.930646017170     3.165151052786     0.851213129490
    H           -0.498004900168     2.671098762350     1.740609839486
    H           -0.638775304840     3.173506075225     0.068975579789

  Mulliken Charges: (a.u.)
   Center  Symbol    Alpha    Beta     Spin     Total
       1     H     0.27223  0.27223  0.00000  0.45555
       2     O     4.37999  4.37999  0.00000 -0.75998
       3     C     2.79130  2.79130  0.00000  0.41740
       4     C     3.12688  3.12688  0.00000 -0.25377
       5     C     3.15465  3.15465  0.00000 -0.30930
       6     H     0.39260  0.39260  0.00000  0.21480
       7     C     3.08800  3.08800  0.00000 -0.17600
       8     H     0.40710  0.40710  0.00000  0.18580
       9     C     2.96919  2.96919  0.00000  0.06162
      10     H     0.39847  0.39847  0.00000  0.20306
      11     C     3.12813  3.12813  0.00000 -0.25625
      12     C     3.25509  3.25509  0.00000 -0.51019
      13     H     0.40319  0.40319  0.00000  0.19362
      14     H     0.41143  0.41143  0.00000  0.17714
      15     H     0.41088  0.41088  0.00000  0.17823
      16     H     0.41087  0.41087  0.00000  0.17826

   Total alpha = 29.00000, Total beta = 29.00000, Total charge =  0.00000
