  ==> Input File <==

--------------------------------------------------------------------------
set {
	reference rhf
	basis 6-31G*
}

set_num_threads( 4 )
memory 2 gb

molecule MOL {
0 1

H	 2.312801	 -2.191910	 1.284840
C	 1.811353	 -1.642456	 0.493079
C	 0.731142	 -0.737070	 1.076637
H	 1.369085	 -2.354646	 -0.194632
H	 2.568217	 -1.083984	 -0.047107
N	 -0.000257	 -0.000071	 0.054619
H	 0.028896	 -1.358640	 1.617820
H	 1.168174	 -0.058906	 1.815408
C	 -1.363055	 0.315058	 0.462241
C	 0.726565	 1.172008	 -0.415079
C	 -2.412078	 -0.285320	 -0.468531
H	 -1.482241	 1.391144	 0.451970
H	 -1.549931	 -0.001174	 1.492681
C	 0.384923	 1.541513	 -1.855214
H	 1.786802	 0.958267	 -0.366424
H	 0.559391	 2.029977	 0.242743
H	 -2.262839	 0.075384	 -1.480151
H	 -2.369300	 -1.368867	 -0.491760
H	 -3.410332	 -0.003975	 -0.144961
H	 0.606837	 0.710804	 -2.515752
H	 -0.663003	 1.793339	 -1.977626
H	 0.967533	 2.401486	 -2.173554

	symmetry c1
}
set optking {
	frozen_dihedral = ("
		3 6 9 11
	")
}

ee = optimize('scf')
oeprop('DIPOLE', 'QUADRUPOLE', 'MULLIKEN_CHARGES')
f=open( 'psi4out.xyz', 'w' )
f.write( "22  " )
f.write( str(ee) + "\n" )
f.write( MOL.save_string_xyz() )
f.close()
--------------------------------------------------------------------------

    Molecular point group: c1
  Charge       = 0
  Multiplicity = 1
  Basis Set: 6-31G*
  Basis Set:
  @DF-RHF Final Energy:  -290.36800225977771
    Total Energy =                       -290.3680022597781090
    Molecular point group: c1
  Basis Set: 6-31G*
  Basis Set:
  Basis Set: 6-31G*
  Basis Set:
  @DF-RHF Final Energy:  -290.36894005196996
    Total Energy =                       -290.3689400519697870
  Basis Set: 6-31G*
  Basis Set:
  Basis Set: 6-31G*
  Basis Set:
  @DF-RHF Final Energy:  -290.36930669530722
    Total Energy =                       -290.3693066953072162
  Basis Set: 6-31G*
  Basis Set:
  Basis Set: 6-31G*
  Basis Set:
  @DF-RHF Final Energy:  -290.36940334599063
    Total Energy =                       -290.3694033459905768
  Basis Set: 6-31G*
  Basis Set:
  @DF-RHF Final Energy:  -290.36941678249804
    Total Energy =                       -290.3694167824980354
  Basis Set: 6-31G*
  Basis Set:
  @DF-RHF Final Energy:  -290.36942228750939
    Total Energy =                       -290.3694222875095647
  Basis Set: 6-31G*
  Basis Set:
  Basis Set: 6-31G*
  Basis Set:
  @DF-RHF Final Energy:  -290.36942593585496
    Total Energy =                       -290.3694259358550198
  Basis Set: 6-31G*
  Basis Set:
  Basis Set: 6-31G*
  Basis Set:
  @DF-RHF Final Energy:  -290.36942823605938
    Total Energy =                       -290.3694282360592069
  Basis Set: 6-31G*
  Basis Set:
  Charge       = 0
  Multiplicity = 1
  Basis Set: 6-31G*
  Basis Set:

    Orbital Energies (a.u.)
    -----------------------

    Doubly Occupied:

       1A    -15.536356     2A    -11.241354     3A    -11.239778
       4A    -11.239608     5A    -11.206106     6A    -11.205506
       7A    -11.201879     8A     -1.221339     9A     -1.025675
      10A     -1.019681    11A     -0.956234    12A     -0.851871
      13A     -0.837238    14A     -0.773462    15A     -0.656497
      16A     -0.636833    17A     -0.615597    18A     -0.597916
      19A     -0.574532    20A     -0.555439    21A     -0.537212
      22A     -0.522731    23A     -0.516405    24A     -0.498627
      25A     -0.491035    26A     -0.480659    27A     -0.464199
      28A     -0.459049    29A     -0.338630

  @DF-RHF Final Energy:  -290.36942920015309

   => Energetics <=

    Nuclear Repulsion Energy =            337.7904897253587819
    One-Electron Energy =               -1061.3169356836028783
    Two-Electron Energy =                 433.1570167580909470
    DFT Exchange-Correlation Energy =       0.0000000000000000
    Empirical Dispersion Energy =           0.0000000000000000
    PCM Polarization Energy =               0.0000000000000000
    EFP Energy =                            0.0000000000000000
    Total Energy =                       -290.3694292001530926
    Molecular point group: c1
  Basis Set: 6-31G*
  Basis Set:

  -Total Gradient:
     Atom            X                  Y                   Z
    ------   -----------------  -----------------  -----------------
       1       -0.000001211645     0.000000472631     0.000002391847
       2       -0.000004614661    -0.000008022931     0.000000239870
       3        0.000400635375     0.001082513389     0.000429171486
       4        0.000002139318     0.000000710018    -0.000002575144
       5       -0.000000645029    -0.000002132472     0.000000817232
       6       -0.000544505190    -0.001085078827    -0.000865868733
       7        0.000008176605     0.000000575317    -0.000002080600
       8        0.000005423287    -0.000002421177     0.000010886368
       9        0.000100765769    -0.000912001073     0.001110519163
      10       -0.000009576523    -0.000045109163    -0.000002894017
      11        0.000062026503     0.000942828645    -0.000689629413
      12       -0.000000872801     0.000007238888    -0.000002436210
      13       -0.000000448665     0.000001273224     0.000004760396
      14       -0.000005653616     0.000006308272    -0.000001258946
      15        0.000003397922     0.000004493128     0.000004866964
      16       -0.000003970406     0.000003713669    -0.000004292281
      17       -0.000006480153    -0.000002453707    -0.000002720156
      18       -0.000000506347     0.000002573418     0.000000596577
      19       -0.000000748041     0.000000427311    -0.000000041672
      20        0.000003843077     0.000003057462     0.000006359281
      21       -0.000006788679    -0.000001606913     0.000002433123
      22       -0.000000386100     0.000002640888     0.000000754865

  **** Optimization is complete! (in 9 steps) ****
    Final optimized geometry and variables:
    Molecular point group: c1

    Geometry (in Angstrom), charge = 0, multiplicity = 1:

    H            2.293886944644    -2.257770600910     1.491129022684
    C            1.880421396992    -1.663775524023     0.681054008256
    C            0.736371990567    -0.798682165335     1.203495621188
    H            1.517533043121    -2.336235649242    -0.088429636044
    H            2.692704285718    -1.080312501708     0.262970342120
    N            0.027869380827    -0.078874128756     0.153705005144
    H            0.024183429651    -1.458153637549     1.685252751543
    H            1.107697195715    -0.121728639657     1.979809816462
    C           -1.340621536890     0.286070714987     0.524035620898
    C            0.794143164221     1.039288168665    -0.374532044966
    C           -2.381859817166    -0.323568711387    -0.410645306941
    H           -1.452706335690     1.368267588280     0.536079111504
    H           -1.545779455114    -0.039230315148     1.538948420945
    C            0.291296078741     1.534988226409    -1.726468963953
    H            1.819875813498     0.718811054955    -0.499669122628
    H            0.815146646151     1.872919895505     0.335369605547
    H           -2.232894134231     0.003464521820    -1.432969711368
    H           -2.313785027452    -1.406534864901    -0.398083642182
    H           -3.386592347472    -0.041786673271    -0.105427158755
    H            0.281545618538     0.723836308792    -2.446213513852
    H           -0.710313725546     1.946470668604    -1.666912592601
    H            0.943369191692     2.318963662999    -2.100354421757

  Mulliken Charges: (a.u.)
   Center  Symbol    Alpha    Beta     Spin     Total
       1     H     0.42233  0.42233  0.00000  0.15535
       2     C     3.23960  3.23960  0.00000 -0.47921
       3     C     3.05486  3.05486  0.00000 -0.10971
       4     H     0.41435  0.41435  0.00000  0.17131
       5     H     0.42099  0.42099  0.00000  0.15802
       6     N     3.78629  3.78629  0.00000 -0.57257
       7     H     0.41873  0.41873  0.00000  0.16255
       8     H     0.43409  0.43409  0.00000  0.13182
       9     C     3.06238  3.06238  0.00000 -0.12476
      10     C     3.05572  3.05572  0.00000 -0.11144
      11     C     3.22840  3.22840  0.00000 -0.45681
      12     H     0.42459  0.42459  0.00000  0.15082
      13     H     0.42191  0.42191  0.00000  0.15618
      14     C     3.24082  3.24082  0.00000 -0.48163
      15     H     0.41827  0.41827  0.00000  0.16346
      16     H     0.43458  0.43458  0.00000  0.13085
      17     H     0.41810  0.41810  0.00000  0.16381
      18     H     0.41989  0.41989  0.00000  0.16023
      19     H     0.42745  0.42745  0.00000  0.14510
      20     H     0.41465  0.41465  0.00000  0.17069
      21     H     0.42036  0.42036  0.00000  0.15928
      22     H     0.42166  0.42166  0.00000  0.15667

   Total alpha = 29.00000, Total beta = 29.00000, Total charge =  0.00000
