  ==> Input File <==

--------------------------------------------------------------------------
set {
	reference rhf
	basis 6-31G*
}

set_num_threads( 4 )
memory 2 gb

molecule MOL {
0 1

O	 -2.439739	 -0.935931	 -0.423848
C	 -1.921153	 0.064240	 -0.045697
C	 -2.624470	 1.379923	 0.150949
O	 -0.632575	 0.154573	 0.251549
H	 -2.168117	 2.136577	 -0.476876
H	 -3.669540	 1.273223	 -0.098610
H	 -2.519365	 1.700893	 1.180846
C	 0.160891	 -1.019931	 0.106212
C	 1.589627	 -0.672828	 0.480843
H	 0.089836	 -1.367806	 -0.916050
H	 -0.238459	 -1.792301	 0.749618
C	 1.968917	 0.782692	 0.201557
H	 2.244885	 -1.335174	 -0.081179
H	 1.742011	 -0.900431	 1.532620
C	 3.420855	 1.090209	 0.565302
H	 1.806423	 0.999452	 -0.852346
H	 1.307779	 1.438972	 0.757931
H	 3.664716	 2.127546	 0.359156
H	 4.109041	 0.469713	 -0.001850
H	 3.607052	 0.910392	 1.620326

	symmetry c1
}
set optking {
	frozen_dihedral = ("
		12 9 8 10
	")
}

ee = optimize('scf')
oeprop('DIPOLE', 'QUADRUPOLE', 'MULLIKEN_CHARGES')
f=open( 'psi4out.xyz', 'w' )
f.write( "20  " )
f.write( str(ee) + "\n" )
f.write( MOL.save_string_xyz() )
f.close()
--------------------------------------------------------------------------

    Molecular point group: c1
  Charge       = 0
  Multiplicity = 1
  Basis Set: 6-31G*
  Basis Set:
  @DF-RHF Final Energy:  -383.94011202424019
    Total Energy =                       -383.9401120242398520
    Molecular point group: c1
  Basis Set: 6-31G*
  Basis Set:
  Basis Set: 6-31G*
  Basis Set:
  @DF-RHF Final Energy:  -383.94054781675555
    Total Energy =                       -383.9405478167552701
  Basis Set: 6-31G*
  Basis Set:
  Basis Set: 6-31G*
  Basis Set:
  @DF-RHF Final Energy:  -383.94086724940934
    Total Energy =                       -383.9408672494093935
  Basis Set: 6-31G*
  Basis Set:
  Basis Set: 6-31G*
  Basis Set:
  @DF-RHF Final Energy:  -383.94108655531556
    Total Energy =                       -383.9410865553159056
  Basis Set: 6-31G*
  Basis Set:
  Basis Set: 6-31G*
  Basis Set:
  @DF-RHF Final Energy:  -383.94115066310712
    Total Energy =                       -383.9411506631070097
  Basis Set: 6-31G*
  Basis Set:
  Basis Set: 6-31G*
  Basis Set:
  @DF-RHF Final Energy:  -383.94115591420342
    Total Energy =                       -383.9411559142032502
  Basis Set: 6-31G*
  Basis Set:
  Charge       = 0
  Multiplicity = 1
  Basis Set: 6-31G*
  Basis Set:

    Orbital Energies (a.u.)
    -----------------------

    Doubly Occupied:

       1A    -20.603002     2A    -20.544994     3A    -11.375380
       4A    -11.282306     5A    -11.233969     6A    -11.225918
       7A    -11.219180     8A    -11.212390     9A     -1.469358
      10A     -1.363495    11A     -1.083199    12A     -1.028351
      13A     -0.980480    14A     -0.880782    15A     -0.817046
      16A     -0.765884    17A     -0.690323    18A     -0.687337
      19A     -0.668182    20A     -0.633490    21A     -0.595481
      22A     -0.592947    23A     -0.573471    24A     -0.548620
      25A     -0.545557    26A     -0.534417    27A     -0.508261
      28A     -0.483689    29A     -0.474556    30A     -0.468612
      31A     -0.446067    32A     -0.439641

  @DF-RHF Final Energy:  -383.94115603933187

   => Energetics <=

    Nuclear Repulsion Energy =            386.2305563432191775
    One-Electron Energy =               -1288.3906542846709726
    Two-Electron Energy =                 518.2189419021202639
    DFT Exchange-Correlation Energy =       0.0000000000000000
    Empirical Dispersion Energy =           0.0000000000000000
    PCM Polarization Energy =               0.0000000000000000
    EFP Energy =                            0.0000000000000000
    Total Energy =                       -383.9411560393315312
    Molecular point group: c1
  Basis Set: 6-31G*
  Basis Set:

  -Total Gradient:
     Atom            X                  Y                   Z
    ------   -----------------  -----------------  -----------------
       1       -0.000003975979    -0.000006610209    -0.000011269889
       2        0.000028876780    -0.000006178015     0.000041523006
       3        0.000000268966     0.000003705478    -0.000009384219
       4       -0.000021987424     0.000003173821     0.000010669061
       5       -0.000003308784     0.000003404580    -0.000001080264
       6       -0.000000170709    -0.000000099503    -0.000002231104
       7        0.000003575220    -0.000002753566    -0.000003187575
       8       -0.001621120899     0.008022156296    -0.000943594822
       9        0.002319710694    -0.003379938198    -0.005375988697
      10        0.000787466697    -0.005928573410     0.002124400199
      11       -0.000013818296     0.000008154429     0.000007216524
      12       -0.001481067624     0.001280264113     0.004150428841
      13       -0.000003446804     0.000001263292     0.000000466418
      14        0.000006564215    -0.000000970194     0.000003953258
      15       -0.000002476511     0.000002631204     0.000019389653
      16       -0.000007590044     0.000003704156    -0.000009342253
      17        0.000013400209    -0.000004234966    -0.000002370433
      18       -0.000000582045    -0.000000327371     0.000000125617
      19       -0.000007454229     0.000001956379    -0.000001692458
      20        0.000007136572    -0.000000728315     0.000001969138

  **** Optimization is complete! (in 7 steps) ****
    Final optimized geometry and variables:
    Molecular point group: c1

    Geometry (in Angstrom), charge = 0, multiplicity = 1:

    O           -2.374448772266    -1.078262484497    -0.586448628828
    C           -1.887493268738    -0.061762457680    -0.210502038339
    C           -2.633215356121     1.229108552983    -0.005763622144
    O           -0.601260962350     0.071471155675     0.082537910000
    H           -2.205347679313     2.002441343286    -0.633251344950
    H           -3.675273151600     1.088151618794    -0.250856751468
    H           -2.534067077447     1.549898116828     1.024817955444
    C            0.226399341374    -1.072878485505    -0.067017359860
    C            1.661525394479    -0.737560083342     0.339513485420
    H            0.173929392358    -1.441563705678    -1.082950045189
    H           -0.165965896525    -1.864810681116     0.557450096080
    C            2.103421314958     0.700059495948     0.052575884624
    H            2.319101575748    -1.440828079601    -0.164484772264
    H            1.779065457179    -0.919817321879     1.404925500190
    C            3.574350810324     0.927768535120     0.399377445231
    H            1.938185417831     0.934727924871    -0.996677906666
    H            1.483950889597     1.384020002755     0.619848711335
    H            3.865922876202     1.955608226548     0.207624556191
    H            4.223681380664     0.284953994436    -0.188299058768
    H            3.767336449798     0.720649977445     1.448424460776

  Mulliken Charges: (a.u.)
   Center  Symbol    Alpha    Beta     Spin     Total
       1     O     4.28279  4.28279  0.00000 -0.56557
       2     C     2.61876  2.61876  0.00000  0.76247
       3     C     3.28175  3.28175  0.00000 -0.56349
       4     O     4.30804  4.30804  0.00000 -0.61609
       5     H     0.40040  0.40040  0.00000  0.19920
       6     H     0.39672  0.39672  0.00000  0.20656
       7     H     0.40063  0.40063  0.00000  0.19873
       8     C     3.00072  3.00072  0.00000 -0.00145
       9     C     3.17125  3.17125  0.00000 -0.34250
      10     H     0.41037  0.41037  0.00000  0.17925
      11     H     0.40902  0.40902  0.00000  0.18197
      12     C     3.14984  3.14984  0.00000 -0.29967
      13     H     0.41670  0.41670  0.00000  0.16660
      14     H     0.41725  0.41725  0.00000  0.16551
      15     C     3.24141  3.24141  0.00000 -0.48283
      16     H     0.42188  0.42188  0.00000  0.15624
      17     H     0.41138  0.41138  0.00000  0.17725
      18     H     0.41777  0.41777  0.00000  0.16446
      19     H     0.42183  0.42183  0.00000  0.15635
      20     H     0.42149  0.42149  0.00000  0.15702

   Total alpha = 32.00000, Total beta = 32.00000, Total charge = -0.00000
