  ==> Input File <==

--------------------------------------------------------------------------
set {
	reference rhf
	basis 6-31G*
}

set_num_threads( 4 )
memory 2 gb

molecule MOL {
0 1

H	 2.866480	 -0.465706	 0.876907
C	 2.405773	 -0.024801	 0.000000
N	 0.988830	 -0.304158	 0.000000
H	 2.866480	 -0.465706	 -0.876907
H	 2.629928	 1.045948	 0.000000
C	 0.689801	 -1.648038	 -0.458842
C	 0.231679	 0.675630	 -0.756773
H	 1.021135	 -1.804332	 -1.490486
H	 1.214808	 -2.361962	 0.167997
C	 -0.806594	 -1.899338	 -0.371435
H	 0.421228	 1.663202	 -0.348093
H	 0.529629	 0.688661	 -1.810127
C	 -1.252567	 0.362710	 -0.661465
H	 -1.058300	 -2.863875	 -0.792538
H	 -1.118959	 -1.883393	 0.671227
O	 -1.518814	 -0.939671	 -1.100635
H	 -1.825951	 1.029770	 -1.291766
H	 -1.585915	 0.485081	 0.367551

	symmetry c1
}
set optking {
	frozen_dihedral = ("
		6 3 2 5
	")
}

ee = optimize('scf')
oeprop('DIPOLE', 'QUADRUPOLE', 'MULLIKEN_CHARGES')
f=open( 'psi4out.xyz', 'w' )
f.write( "18  " )
f.write( str(ee) + "\n" )
f.write( MOL.save_string_xyz() )
f.close()
--------------------------------------------------------------------------

    Molecular point group: c1
  Charge       = 0
  Multiplicity = 1
  Basis Set: 6-31G*
  Basis Set:
  @DF-RHF Final Energy:  -325.02576856915289
    Total Energy =                       -325.0257685691533425
    Molecular point group: c1
  Basis Set: 6-31G*
  Basis Set:
  Basis Set: 6-31G*
  Basis Set:
  @DF-RHF Final Energy:  -325.02652671830685
    Total Energy =                       -325.0265267183070819
  Basis Set: 6-31G*
  Basis Set:
  Basis Set: 6-31G*
  Basis Set:
  @DF-RHF Final Energy:  -325.02664016810672
    Total Energy =                       -325.0266401681066100
  Basis Set: 6-31G*
  Basis Set:
  Basis Set: 6-31G*
  Basis Set:
  @DF-RHF Final Energy:  -325.02664232295427
    Total Energy =                       -325.0266423229542738
  Basis Set: 6-31G*
  Basis Set:
  Charge       = 0
  Multiplicity = 1
  Basis Set: 6-31G*
  Basis Set:

    Orbital Energies (a.u.)
    -----------------------

    Doubly Occupied:

       1A    -20.553854     2A    -15.549471     3A    -11.266079
       4A    -11.266060     5A    -11.244243     6A    -11.243975
       7A    -11.241097     8A     -1.383342     9A     -1.231433
      10A     -1.038152    11A     -0.980934    12A     -0.882395
      13A     -0.869323    14A     -0.775362    15A     -0.683421
      16A     -0.644612    17A     -0.643194    18A     -0.633349
      19A     -0.628554    20A     -0.571505    21A     -0.557940
      22A     -0.541735    23A     -0.527152    24A     -0.501402
      25A     -0.483108    26A     -0.452078    27A     -0.407620
      28A     -0.354069

  @DF-RHF Final Energy:  -325.02664283028730

   => Energetics <=

    Nuclear Repulsion Energy =            341.4239442816556220
    One-Electron Energy =               -1118.5902465572667097
    Two-Electron Energy =                 452.1396594453237867
    DFT Exchange-Correlation Energy =       0.0000000000000000
    Empirical Dispersion Energy =           0.0000000000000000
    PCM Polarization Energy =               0.0000000000000000
    EFP Energy =                            0.0000000000000000
    Total Energy =                       -325.0266428302873010
    Molecular point group: c1
  Basis Set: 6-31G*
  Basis Set:

  -Total Gradient:
     Atom            X                  Y                   Z
    ------   -----------------  -----------------  -----------------
       1       -0.000013238060    -0.000000588189    -0.000010031574
       2       -0.000080453920     0.000400553225     0.004589258869
       3        0.000324025227    -0.001634201290     0.003283661312
       4        0.000008683183    -0.000005885326    -0.000002325515
       5       -0.000022086021     0.000036083188    -0.004622096424
       6       -0.000221086027     0.001219547741    -0.003239882426
       7        0.000014681753    -0.000032229462     0.000020244116
       8       -0.000000167605    -0.000001320788    -0.000003081536
       9        0.000006059392     0.000001528017    -0.000001100144
      10       -0.000002623324    -0.000000072083    -0.000017284607
      11       -0.000004436704    -0.000002595405    -0.000002300750
      12        0.000006186839     0.000001521633    -0.000005871678
      13       -0.000018012935     0.000019485821     0.000016692508
      14        0.000000210570    -0.000004424506     0.000001118639
      15        0.000001360761     0.000003864652    -0.000003228504
      16        0.000001667586    -0.000000622144    -0.000001759769
      17       -0.000000108446    -0.000002717801    -0.000002523399
      18       -0.000000662265     0.000002072719     0.000000510883

  **** Optimization is complete! (in 5 steps) ****
    Final optimized geometry and variables:
    Molecular point group: c1

    Geometry (in Angstrom), charge = 0, multiplicity = 1:

    H            2.778949572292     0.058889815833     1.358086606462
    C            2.306317968268     0.503944741192     0.489508798614
    N            0.881562776387     0.239958520494     0.494733299521
    H            2.797914009607     0.111017712533    -0.404407443510
    H            2.485668743114     1.572331306259     0.495062606700
    C            0.579339624835    -1.101123271442     0.027065321904
    C            0.127647560799     1.213404718929    -0.277796040985
    H            0.909164600974    -1.245598167526    -1.006268636365
    H            1.108121026143    -1.820699015204     0.645067104582
    C           -0.915803667443    -1.357039184362     0.115964195028
    H            0.314793281377     2.204874985677     0.121242424369
    H            0.425321284054     1.215077692691    -1.331164826930
    C           -1.357477762427     0.904847223579    -0.180093932213
    H           -1.165067984838    -2.322088949519    -0.305608833605
    H           -1.227638186957    -1.342424095993     1.158657237619
    O           -1.630052504131    -0.398420634101    -0.612532636662
    H           -1.929432896495     1.571737394093    -0.812000754932
    H           -1.687755011325     1.032910727640     0.849166318250

  Mulliken Charges: (a.u.)
   Center  Symbol    Alpha    Beta     Spin     Total
       1     H     0.41387  0.41387  0.00000  0.17225
       2     C     3.14047  3.14047  0.00000 -0.28094
       3     N     3.78686  3.78686  0.00000 -0.57371
       4     H     0.43099  0.43099  0.00000  0.13801
       5     H     0.41772  0.41772  0.00000  0.16456
       6     C     3.07030  3.07030  0.00000 -0.14060
       7     C     3.07025  3.07025  0.00000 -0.14050
       8     H     0.42755  0.42755  0.00000  0.14489
       9     H     0.41644  0.41644  0.00000  0.16711
      10     C     2.99716  2.99716  0.00000  0.00567
      11     H     0.41635  0.41635  0.00000  0.16729
      12     H     0.42830  0.42830  0.00000  0.14341
      13     C     2.99747  2.99747  0.00000  0.00505
      14     H     0.41333  0.41333  0.00000  0.17335
      15     H     0.42375  0.42375  0.00000  0.15250
      16     O     4.31204  4.31204  0.00000 -0.62409
      17     H     0.41335  0.41335  0.00000  0.17331
      18     H     0.42379  0.42379  0.00000  0.15242

   Total alpha = 28.00000, Total beta = 28.00000, Total charge =  0.00000
