  ==> Input File <==

--------------------------------------------------------------------------
set {
	reference rhf
	basis 6-31G*
}

set_num_threads( 4 )
memory 2 gb

molecule MOL {
0 1

H	 2.791914	 -0.368624	 -1.016827
N	 2.434251	 -0.367735	 -0.081097
C	 1.267428	 0.496480	 0.024474
H	 3.172113	 -0.035289	 0.510472
C	 -0.016086	 -0.325158	 -0.029487
H	 1.288818	 1.183521	 -0.816092
H	 1.267576	 1.109062	 0.929528
C	 -1.282277	 0.529072	 0.046735
H	 -0.012495	 -0.908639	 -0.945788
H	 -0.015903	 -1.041248	 0.791956
C	 -2.563920	 -0.301775	 -0.006060
H	 -1.284084	 1.244622	 -0.773004
H	 -1.271387	 1.115393	 0.963286
H	 -2.621848	 -0.873522	 -0.927727
H	 -3.445135	 0.329952	 0.047812
H	 -2.609542	 -1.004582	 0.821105

	symmetry c1
}
set optking {
	frozen_dihedral = ("
		1 2 3 6
	")
}

ee = optimize('scf')
oeprop('DIPOLE', 'QUADRUPOLE', 'MULLIKEN_CHARGES')
f=open( 'psi4out.xyz', 'w' )
f.write( "16  " )
f.write( str(ee) + "\n" )
f.write( MOL.save_string_xyz() )
f.close()
--------------------------------------------------------------------------

    Molecular point group: c1
  Charge       = 0
  Multiplicity = 1
  Basis Set: 6-31G*
  Basis Set:
  @DF-RHF Final Energy:  -212.31316402346613
    Total Energy =                       -212.3131640234659585
    Molecular point group: c1
  Basis Set: 6-31G*
  Basis Set:
  Basis Set: 6-31G*
  Basis Set:
  @DF-RHF Final Energy:  -212.31430224086370
    Total Energy =                       -212.3143022408638956
  Basis Set: 6-31G*
  Basis Set:
  Basis Set: 6-31G*
  Basis Set:
  @DF-RHF Final Energy:  -212.31455064454963
    Total Energy =                       -212.3145506445495698
  Basis Set: 6-31G*
  Basis Set:
  Basis Set: 6-31G*
  Basis Set:
  @DF-RHF Final Energy:  -212.31455369665844
    Total Energy =                       -212.3145536966583791
  Basis Set: 6-31G*
  Basis Set:
  Basis Set: 6-31G*
  Basis Set:
  @DF-RHF Final Energy:  -212.31455833420384
    Total Energy =                       -212.3145583342040936
  Basis Set: 6-31G*
  Basis Set:
  Charge       = 0
  Multiplicity = 1
  Basis Set: 6-31G*
  Basis Set:

    Orbital Energies (a.u.)
    -----------------------

    Doubly Occupied:

       1A    -15.532343     2A    -11.240752     3A    -11.212215
       4A    -11.205825     5A    -11.203581     6A     -1.174444
       7A     -1.056971     8A     -0.957599     9A     -0.842280
      10A     -0.786944    11A     -0.673450    12A     -0.623593
      13A     -0.609402    14A     -0.575537    15A     -0.553078
      16A     -0.531050    17A     -0.490413    18A     -0.472965
      19A     -0.464560    20A     -0.458895    21A     -0.379288

  @DF-RHF Final Energy:  -212.31455914660296

   => Energetics <=

    Nuclear Repulsion Energy =            185.8743646320057223
    One-Electron Energy =                -654.2874765789258618
    Two-Electron Energy =                 256.0985528003172362
    DFT Exchange-Correlation Energy =       0.0000000000000000
    Empirical Dispersion Energy =           0.0000000000000000
    PCM Polarization Energy =               0.0000000000000000
    EFP Energy =                            0.0000000000000000
    Total Energy =                       -212.3145591466029032
    Molecular point group: c1
  Basis Set: 6-31G*
  Basis Set:

  -Total Gradient:
     Atom            X                  Y                   Z
    ------   -----------------  -----------------  -----------------
       1        0.001535296280     0.002061089383     0.000657997454
       2       -0.002325105102    -0.002968465949    -0.001193249101
       3        0.002008295051     0.002523371472     0.001874698378
       4       -0.000023065464     0.000001298525     0.000007585555
       5        0.000027322736    -0.000019021045    -0.000024801085
       6       -0.001236601318    -0.001581561726    -0.001391661222
       7        0.000005319480    -0.000010765828     0.000005964743
       8        0.000011771111     0.000009586329     0.000039261414
       9        0.000011094381    -0.000010334428     0.000004646456
      10       -0.000021468801     0.000000934796     0.000004800753
      11        0.000004318045    -0.000007328815     0.000005232148
      12        0.000027986719    -0.000010307329     0.000008207386
      13       -0.000025894531     0.000009970238     0.000008574165
      14        0.000002921639     0.000000592612    -0.000000584551
      15        0.000001564428     0.000001266361    -0.000005143539
      16       -0.000003754653    -0.000000324598    -0.000001528952

  **** Optimization is complete! (in 6 steps) ****
    Final optimized geometry and variables:
    Molecular point group: c1

    Geometry (in Angstrom), charge = 0, multiplicity = 1:

    H            2.826558302755    -0.371558384913    -0.979861333780
    N            2.440868480056    -0.373914437679    -0.056357740804
    C            1.263972014941     0.491010215352     0.022524313502
    H            3.166515906139    -0.043324377685     0.548111455748
    C           -0.022020086595    -0.331106185698    -0.016498070838
    H            1.239115713145     1.216365130585    -0.790593379038
    H            1.300165659754     1.056699484759     0.948520819839
    C           -1.287509824888     0.524141601575     0.057454742085
    H           -0.031562597768    -0.922372796375    -0.930153827334
    H           -0.001541960811    -1.041670529102     0.805296150706
    C           -2.570573517623    -0.305447920655     0.016956841641
    H           -1.294592082225     1.236171956968    -0.765823938671
    H           -1.272196660856     1.116407493811     0.970683153107
    H           -2.634031769672    -0.883115881096    -0.900842235116
    H           -3.451370264010     0.327051692778     0.071588318917
    H           -2.611513304783    -1.003253702082     0.848369588179

  Mulliken Charges: (a.u.)
   Center  Symbol    Alpha    Beta     Spin     Total
       1     H     0.33297  0.33297  0.00000  0.33406
       2     N     3.92378  3.92378  0.00000 -0.84757
       3     C     3.06818  3.06818  0.00000 -0.13636
       4     H     0.33188  0.33188  0.00000  0.33624
       5     C     3.13953  3.13953  0.00000 -0.27906
       6     H     0.42969  0.42969  0.00000  0.14061
       7     H     0.42342  0.42342  0.00000  0.15315
       8     C     3.15735  3.15735  0.00000 -0.31470
       9     H     0.42448  0.42448  0.00000  0.15104
      10     H     0.41798  0.41798  0.00000  0.16403
      11     C     3.23799  3.23799  0.00000 -0.47598
      12     H     0.42498  0.42498  0.00000  0.15003
      13     H     0.42455  0.42455  0.00000  0.15090
      14     H     0.42169  0.42169  0.00000  0.15662
      15     H     0.42047  0.42047  0.00000  0.15907
      16     H     0.42104  0.42104  0.00000  0.15791

   Total alpha = 21.00000, Total beta = 21.00000, Total charge = -0.00000
