  ==> Input File <==

--------------------------------------------------------------------------
set {
	reference rhf
	basis 6-31G*
}

set_num_threads( 4 )
memory 2 gb

molecule MOL {
0 1

O	 -2.071330	 -0.348712	 2.015954
C	 -1.012651	 0.179989	 2.171219
C	 0.255000	 -0.434490	 1.603960
C	 -0.882275	 1.495148	 2.906566
C	 0.379448	 -0.143569	 0.099626
H	 0.200221	 -1.506098	 1.761943
H	 1.129350	 -0.059473	 2.128270
C	 1.631333	 -0.777471	 -0.511575
H	 -0.513942	 -0.512797	 -0.391199
H	 0.406348	 0.932583	 -0.064448
C	 2.915987	 -0.544314	 0.291766
H	 1.766672	 -0.399098	 -1.523130
H	 1.471257	 -1.849544	 -0.605828
C	 3.373361	 0.914346	 0.347591
H	 3.708709	 -1.142521	 -0.150311
H	 2.780642	 -0.921148	 1.303579
H	 3.506512	 1.320010	 -0.651625
H	 4.322697	 0.999599	 0.867103
H	 2.660624	 1.545032	 0.868198
H	 -0.324391	 1.345155	 3.827180
H	 -1.862218	 1.887263	 3.140537
H	 -0.329052	 2.215484	 2.310861

	symmetry c1
}
set optking {
	frozen_dihedral = ("
		3 5 8 12
	")
}

ee = optimize('scf')
oeprop('DIPOLE', 'QUADRUPOLE', 'MULLIKEN_CHARGES')
f=open( 'psi4out.xyz', 'w' )
f.write( "22  " )
f.write( str(ee) + "\n" )
f.write( MOL.save_string_xyz() )
f.close()
--------------------------------------------------------------------------

    Molecular point group: c1
  Charge       = 0
  Multiplicity = 1
  Basis Set: 6-31G*
  Basis Set:
  @DF-RHF Final Energy:  -348.09424690820828
    Total Energy =                       -348.0942469082079924
    Molecular point group: c1
  Basis Set: 6-31G*
  Basis Set:
  Basis Set: 6-31G*
  Basis Set:
  @DF-RHF Final Energy:  -348.09520582319607
    Total Energy =                       -348.0952058231955561
  Basis Set: 6-31G*
  Basis Set:
  Basis Set: 6-31G*
  Basis Set:
  @DF-RHF Final Energy:  -348.09557963040959
    Total Energy =                       -348.0955796304094747
  Basis Set: 6-31G*
  Basis Set:
  Basis Set: 6-31G*
  Basis Set:
  @DF-RHF Final Energy:  -348.09522874155340
    Total Energy =                       -348.0952287415534556
  Basis Set: 6-31G*
  Basis Set:
  @DF-RHF Final Energy:  -348.09588105366237
    Total Energy =                       -348.0958810536626515
  @DF-RHF Final Energy:  -348.09463602508657
    Total Energy =                       -348.0946360250864586
  @DF-RHF Final Energy:  -348.09578218412616
    Total Energy =                       -348.0957821841261648
  Basis Set: 6-31G*
  Basis Set:
  @DF-RHF Final Energy:  -348.09589893740059
    Total Energy =                       -348.0958989374008183
  Basis Set: 6-31G*
  Basis Set:
  Basis Set: 6-31G*
  Basis Set:
  @DF-RHF Final Energy:  -348.09589719426947
    Total Energy =                       -348.0958971942694689
  Basis Set: 6-31G*
  Basis Set:
  Basis Set: 6-31G*
  Basis Set:
  @DF-RHF Final Energy:  -348.09590055369290
    Total Energy =                       -348.0959005536929567
  Basis Set: 6-31G*
  Basis Set:
  Charge       = 0
  Multiplicity = 1
  Basis Set: 6-31G*
  Basis Set:

    Orbital Energies (a.u.)
    -----------------------

    Doubly Occupied:

       1A    -20.547266     2A    -11.324520     3A    -11.230002
       4A    -11.228828     5A    -11.228344     6A    -11.223000
       7A    -11.222197     8A    -11.216244     9A     -1.393107
      10A     -1.096582    11A     -1.042644    12A     -0.999179
      13A     -0.942464    14A     -0.864615    15A     -0.778213
      16A     -0.734153    17A     -0.662944    18A     -0.653031
      19A     -0.620294    20A     -0.616280    21A     -0.605679
      22A     -0.573143    23A     -0.565735    24A     -0.552793
      25A     -0.532882    26A     -0.520874    27A     -0.510043
      28A     -0.488199    29A     -0.466526    30A     -0.461899
      31A     -0.457910    32A     -0.397158

  @DF-RHF Final Energy:  -348.09590069077467

   => Energetics <=

    Nuclear Repulsion Energy =            380.3391718680275062
    One-Electron Energy =               -1225.3566501224183867
    Two-Electron Energy =                 496.9215775636167791
    DFT Exchange-Correlation Energy =       0.0000000000000000
    Empirical Dispersion Energy =           0.0000000000000000
    PCM Polarization Energy =               0.0000000000000000
    EFP Energy =                            0.0000000000000000
    Total Energy =                       -348.0959006907741013
    Molecular point group: c1
  Basis Set: 6-31G*
  Basis Set:

  -Total Gradient:
     Atom            X                  Y                   Z
    ------   -----------------  -----------------  -----------------
       1       -0.000004370724     0.000004855145    -0.000021641257
       2       -0.000002901929     0.000007857426     0.000030323472
       3        0.001599407803     0.002316162666     0.000587672476
       4       -0.000010738451    -0.000015715610     0.000018385509
       5       -0.001757915713    -0.002683421342    -0.000563953611
       6        0.000004691821    -0.000006201721     0.000008162175
       7        0.000003275590    -0.000003332335    -0.000004749683
       8       -0.002129192152    -0.002434709166    -0.001437917396
       9       -0.000000633608     0.000003345109     0.000008420546
      10        0.000004704557     0.000003936551    -0.000001369392
      11       -0.000002837253     0.000002065196    -0.000008346757
      12        0.002293612413     0.002792856659     0.001399107487
      13       -0.000008892940    -0.000000335683     0.000000558147
      14        0.000005315636     0.000004656537     0.000001322118
      15        0.000000487285     0.000003245800    -0.000002671362
      16       -0.000000528460    -0.000004486533     0.000003233689
      17        0.000004799291    -0.000000173234    -0.000000814023
      18       -0.000000454857     0.000004333580     0.000005005905
      19       -0.000004364747    -0.000001801816    -0.000003147017
      20        0.000004305456     0.000003825218    -0.000005990388
      21        0.000000625121     0.000001314349    -0.000002043943
      22        0.000001605869     0.000001723204    -0.000009546702

  **** Optimization is complete! (in 11 steps) ****
    Final optimized geometry and variables:
    Molecular point group: c1

    Geometry (in Angstrom), charge = 0, multiplicity = 1:

    O           -2.655302896254    -0.461801362789     0.894866006697
    C           -1.627688090806     0.122451670186     1.058312507223
    C           -0.316709520554    -0.443344241135     0.539977901774
    C           -1.578577593275     1.459255401034     1.764683356095
    C           -0.163336599402    -0.153617778815    -0.963095877282
    H           -0.334914797033    -1.515502266865     0.706438569278
    H            0.516492424122    -0.028439710621     1.096057798118
    C            1.053525497529    -0.820681975992    -1.622227611544
    H           -1.061175213771    -0.489466063960    -1.470973927961
    H           -0.111656267577     0.922603017188    -1.112251481591
    C            2.399580031902    -0.637846381188    -0.908013959708
    H            1.158855573182    -0.406455283199    -2.622581603368
    H            0.857866073895    -1.883889628737    -1.733904046595
    C            2.862878701072     0.816641813524    -0.808007732618
    H            3.147693484597    -1.204296693546    -1.456682309033
    H            2.363636335370    -1.079114121838     0.084249450761
    H            2.924307247704     1.274387406834    -1.791518076421
    H            3.846555269929     0.879241951882    -0.353332077376
    H            2.188478585049     1.419572141325    -0.207683644528
    H           -1.040858554870     1.356790263335     2.703600293452
    H           -2.581826739115     1.810152346430     1.962408985182
    H           -1.042928628252     2.191181877336     1.167026848256

  Mulliken Charges: (a.u.)
   Center  Symbol    Alpha    Beta     Spin     Total
       1     O     4.26232  4.26232  0.00000 -0.52464
       2     C     2.73664  2.73664  0.00000  0.52672
       3     C     3.20298  3.20298  0.00000 -0.40595
       4     C     3.28976  3.28976  0.00000 -0.57951
       5     C     3.16577  3.16577  0.00000 -0.33153
       6     H     0.40164  0.40164  0.00000  0.19672
       7     H     0.41441  0.41441  0.00000  0.17117
       8     C     3.15297  3.15297  0.00000 -0.30593
       9     H     0.40331  0.40331  0.00000  0.19338
      10     H     0.42001  0.42001  0.00000  0.15999
      11     C     3.15776  3.15776  0.00000 -0.31551
      12     H     0.41964  0.41964  0.00000  0.16072
      13     H     0.41740  0.41740  0.00000  0.16521
      14     C     3.24134  3.24134  0.00000 -0.48268
      15     H     0.41801  0.41801  0.00000  0.16397
      16     H     0.42112  0.42112  0.00000  0.15776
      17     H     0.42036  0.42036  0.00000  0.15929
      18     H     0.41737  0.41737  0.00000  0.16526
      19     H     0.42355  0.42355  0.00000  0.15291
      20     H     0.40690  0.40690  0.00000  0.18620
      21     H     0.39691  0.39691  0.00000  0.20618
      22     H     0.40986  0.40986  0.00000  0.18028

   Total alpha = 32.00000, Total beta = 32.00000, Total charge =  0.00000
