                              Psi4 1.0.54 Driver

  ==> Input File <==

--------------------------------------------------------------------------
set {
	reference rhf
	basis cc-pvtz
}

set_num_threads( 4 )
memory 2 gb

molecule MOL {
0 1

H	 2.830292	 0.848801	 1.068097
O	 3.534881	 0.609833	 0.495142
C	 3.524227	 -0.774158	 0.263344
C	 2.390339	 -1.228466	 -0.643622
H	 4.473526	 -1.003046	 -0.201868
H	 3.488505	 -1.316555	 1.206201
C	 0.996641	 -1.034791	 -0.050373
H	 2.464978	 -0.692236	 -1.584921
H	 2.542886	 -2.281622	 -0.867208
C	 -0.113655	 -1.532204	 -0.974853
H	 0.842177	 0.016938	 0.166442
H	 0.933011	 -1.562859	 0.899565
C	 -1.527557	 -1.430536	 -0.399701
H	 -0.068040	 -0.985573	 -1.913650
H	 0.082619	 -2.572014	 -1.221307
C	 -2.041121	 -0.006551	 -0.194127
H	 -2.206663	 -1.948984	 -1.070933
H	 -1.569725	 -1.967877	 0.545096
C	 -3.489218	 0.042606	 0.286507
H	 -1.956139	 0.542965	 -1.129155
H	 -1.416233	 0.516073	 0.523774
C	 -4.219984	 1.311773	 -0.139038
H	 -4.022855	 -0.824300	 -0.093339
H	 -3.510372	 -0.038577	 1.370031
H	 -4.244251	 1.405725	 -1.219696
H	 -5.244345	 1.313233	 0.215630
H	 -3.732090	 2.196311	 0.257073

	symmetry c1
}
set optking {
	frozen_dihedral = ("
		20 16 19 22
	")
}

ee,wfn = optimize('scf', return_wfn=True)
oeprop( wfn, 'DIPOLE', 'QUADRUPOLE', 'MULLIKEN_CHARGES')
f=open( 'psi4out.xyz', 'w' )
f.write( "27  " )
f.write( str(ee) + "\n" )
f.write( MOL.save_string_xyz() )
f.close()
--------------------------------------------------------------------------

    Molecular point group: c1
  Charge       = 0
  Multiplicity = 1
  Basis Set: CC-PVTZ
  Basis Set:
  @DF-RHF Final Energy:  -388.42512044370369
    Total Energy =                       -388.4251204437027809
    Molecular point group: c1
  Basis Set: CC-PVTZ
  Basis Set:
  Basis Set: CC-PVTZ
  Basis Set:
  @DF-RHF Final Energy:  -388.42534725771901
    Total Energy =                       -388.4253472577194088
  Basis Set: CC-PVTZ
  Basis Set:
  Basis Set: CC-PVTZ
  Basis Set:
  @DF-RHF Final Energy:  -388.42540397168517
    Total Energy =                       -388.4254039716853413
  Basis Set: CC-PVTZ
  Basis Set:
  Basis Set: CC-PVTZ
  Basis Set:
  @DF-RHF Final Energy:  -388.42540308354842
    Total Energy =                       -388.4254030835484173
  Basis Set: CC-PVTZ
  Basis Set:
  Basis Set: CC-PVTZ
  Basis Set:
  @DF-RHF Final Energy:  -388.42541096984775
    Total Energy =                       -388.4254109698481443
  Basis Set: CC-PVTZ
  Basis Set:
  Charge       = 0
  Multiplicity = 1
  Basis Set: CC-PVTZ
  Basis Set:

    Orbital Energies (a.u.)
    -----------------------

    Doubly Occupied:

       1A    -20.545408     2A    -11.265034     3A    -11.216818
       4A    -11.214771     5A    -11.213749     6A    -11.213655
       7A    -11.213289     8A    -11.211601     9A    -11.207409
      10A     -1.363298    11A     -1.095797    12A     -1.061910
      13A     -1.012506    14A     -0.949386    15A     -0.888706
      16A     -0.821172    17A     -0.801512    18A     -0.779151
      19A     -0.696336    20A     -0.650109    21A     -0.640318
      22A     -0.615810    23A     -0.599316    24A     -0.585291
      25A     -0.581928    26A     -0.554768    27A     -0.541866
      28A     -0.530171    29A     -0.509287    30A     -0.492933
      31A     -0.483549    32A     -0.477420    33A     -0.467933
      34A     -0.460578    35A     -0.451543    36A     -0.442422
      37A     -0.425591

  @DF-RHF Final Energy:  -388.42541113863251

   => Energetics <=

    Nuclear Repulsion Energy =            459.6501320836129025
    One-Electron Energy =               -1437.5864123501969516
    Two-Electron Energy =                 589.5108691279517643
    DFT Exchange-Correlation Energy =       0.0000000000000000
    Empirical Dispersion Energy =           0.0000000000000000
    PCM Polarization Energy =               0.0000000000000000
    EFP Energy =                            0.0000000000000000
    Total Energy =                       -388.4254111386322847
    Molecular point group: c1
  Basis Set: CC-PVTZ
  Basis Set:

  -Total Gradient:
     Atom            X                  Y                   Z
    ------   -----------------  -----------------  -----------------
       1       -0.000007658302     0.000007005321     0.000002465704
       2       -0.000013407764     0.000002477697     0.000007978847
       3        0.000015669906     0.000000183905    -0.000022028199
       4        0.000002808319    -0.000005060289     0.000010629353
       5        0.000000376214    -0.000008045608    -0.000003169567
       6       -0.000004020685     0.000001003199    -0.000002444052
       7       -0.000003312024    -0.000007064093     0.000001061802
       8        0.000003324712    -0.000001524639     0.000002202066
       9        0.000000134246    -0.000002579466     0.000002999476
      10       -0.000001482303     0.000010117871    -0.000006736187
      11        0.000001169621     0.000004921455     0.000004463304
      12       -0.000000108277    -0.000000471534     0.000002488267
      13       -0.000012763819     0.000000575829    -0.000001711355
      14       -0.000002512578    -0.000001542934    -0.000007086720
      15        0.000004051839     0.000004843502     0.000005070384
      16       -0.001737742972    -0.004881066866    -0.003570984823
      17        0.000005618239    -0.000000858709    -0.000000862301
      18       -0.000004567115    -0.000001277762     0.000000057695
      19        0.001761623553     0.002737562194     0.004011330522
      20        0.001038276690     0.003508630144     0.002083153311
      21        0.000010114022     0.000001181125     0.000018734841
      22       -0.001064466395    -0.001365675631    -0.002536730123
      23        0.000004545486    -0.000009343974    -0.000000498509
      24        0.000007344266     0.000009886760     0.000000158349
      25       -0.000002613207    -0.000004175273    -0.000001602337
      26        0.000001815008    -0.000000515146     0.000004100942
      27       -0.000002216672     0.000000812924    -0.000003040689

  **** Optimization is complete! (in 6 steps) ****
    Final optimized geometry and variables:
    Molecular point group: c1

    Geometry (in Angstrom), charge = 0, multiplicity = 1:

    H            2.906230362208     1.150282044987     1.267773166876
    O            3.613398082227     0.897768763699     0.704094742262
    C            3.562561999147    -0.481124975381     0.448702733418
    C            2.432595335725    -0.883303726714    -0.487169567992
    H            4.512898086237    -0.733429894281    -0.002030281926
    H            3.490697259026    -1.037206983868     1.381421452990
    C            1.034522034712    -0.648042041456     0.080108190099
    H            2.545607667809    -0.337868185708    -1.419234660103
    H            2.552829178225    -1.938171038502    -0.722024543869
    C           -0.072846991764    -1.101701804732    -0.870095062531
    H            0.910901758369     0.406306653785     0.303390215238
    H            0.934694746201    -1.181570406848     1.023734432918
    C           -1.494355118232    -0.960513746662    -0.322758984209
    H            0.008455397037    -0.549789555870    -1.803388853946
    H            0.095762772475    -2.145202162604    -1.121108558744
    C           -1.978293928922     0.475610352857    -0.141745652730
    H           -2.174131554719    -1.468839768993    -1.000604221100
    H           -1.567791753865    -1.486614940111     0.626759787513
    C           -3.405875576529     0.576302632782     0.407601347489
    H           -1.911040580278     1.016081988146    -1.082725653172
    H           -1.313503079277     1.007117555485     0.532843729360
    C           -4.115321734343     1.867101724410     0.011225015044
    H           -3.991273797215    -0.261565463522     0.038531420937
    H           -3.389442871798     0.477544602215     1.488470776522
    H           -4.215231670089     1.936041776787    -1.066472004801
    H           -5.109150447874     1.918114499890     0.441251109951
    H           -3.565727359804     2.740911080348     0.347057926305

  Mulliken Charges: (a.u.)
   Center  Symbol    Alpha    Beta     Spin     Total
       1     H     0.39228  0.39228  0.00000  0.21543
       2     O     4.20550  4.20550  0.00000 -0.41101
       3     C     2.98003  2.98003  0.00000  0.03994
       4     C     3.08909  3.08909  0.00000 -0.17817
       5     H     0.44855  0.44855  0.00000  0.10289
       6     H     0.46966  0.46966  0.00000  0.06067
       7     C     3.10239  3.10239  0.00000 -0.20479
       8     H     0.45074  0.45074  0.00000  0.09852
       9     H     0.45525  0.45525  0.00000  0.08949
      10     C     3.09869  3.09869  0.00000 -0.19739
      11     H     0.45594  0.45594  0.00000  0.08811
      12     H     0.45383  0.45383  0.00000  0.09235
      13     C     3.09704  3.09704  0.00000 -0.19408
      14     H     0.45170  0.45170  0.00000  0.09661
      15     H     0.44793  0.44793  0.00000  0.10413
      16     C     3.09080  3.09080  0.00000 -0.18160
      17     H     0.44770  0.44770  0.00000  0.10460
      18     H     0.45353  0.45353  0.00000  0.09293
      19     C     3.08424  3.08424  0.00000 -0.16848
      20     H     0.45421  0.45421  0.00000  0.09158
      21     H     0.45435  0.45435  0.00000  0.09131
      22     C     3.14835  3.14835  0.00000 -0.29669
      23     H     0.45635  0.45635  0.00000  0.08730
      24     H     0.45267  0.45267  0.00000  0.09466
      25     H     0.45498  0.45498  0.00000  0.09005
      26     H     0.44906  0.44906  0.00000  0.10188
      27     H     0.45513  0.45513  0.00000  0.08975

   Total alpha = 37.00000, Total beta = 37.00000, Total charge = -0.00000

*** Psi4 exiting successfully. Buy a developer a beer!
