                              Psi4 1.0.54 Driver

  ==> Input File <==

--------------------------------------------------------------------------
set {
	reference rhf
	basis cc-pvtz
}

set_num_threads( 4 )
memory 2 gb

molecule MOL {
0 1

H	 -1.835082	 1.385983	 0.000069
C	 -1.300516	 0.441153	 -0.000028
O	 -0.006604	 0.654344	 -0.000106
O	 -1.828920	 -0.612308	 0.000113
C	 0.804085	 -0.191440	 -0.810819
C	 2.239480	 0.247017	 -0.643202
H	 0.478426	 -0.107407	 -1.837874
H	 0.660749	 -1.216184	 -0.498860
H	 2.367358	 1.275621	 -0.955600
H	 2.884448	 -0.378341	 -1.248839
H	 2.550593	 0.161296	 0.390157

	symmetry c1
}
set optking {
	frozen_dihedral = ("
		5 3 2 4
	")
}

ee,wfn = optimize('scf', return_wfn=True)
oeprop( wfn, 'DIPOLE', 'QUADRUPOLE', 'MULLIKEN_CHARGES')
f=open( 'psi4out.xyz', 'w' )
f.write( "11  " )
f.write( str(ee) + "\n" )
f.write( MOL.save_string_xyz() )
f.close()
--------------------------------------------------------------------------

    Molecular point group: c1
  Charge       = 0
  Multiplicity = 1
  Basis Set: CC-PVTZ
  Basis Set:
  @DF-RHF Final Energy:  -266.92335595739428
    Total Energy =                       -266.9233559573942784
    Molecular point group: c1
  Basis Set: CC-PVTZ
  Basis Set:
  Basis Set: CC-PVTZ
  Basis Set:
  @DF-RHF Final Energy:  -266.91289884185267
    Total Energy =                       -266.9128988418527797
  Basis Set: CC-PVTZ
  Basis Set:
  Basis Set: CC-PVTZ
  Basis Set:
  @DF-RHF Final Energy:  -266.92319725137435
    Total Energy =                       -266.9231972513741766
  Basis Set: CC-PVTZ
  Basis Set:
  Basis Set: CC-PVTZ
  Basis Set:
  @DF-RHF Final Energy:  -266.92380119905511
    Total Energy =                       -266.9238011990550490
  Basis Set: CC-PVTZ
  Basis Set:
  Basis Set: CC-PVTZ
  Basis Set:
  @DF-RHF Final Energy:  -266.92396265150592
    Total Energy =                       -266.9239626515059172
  Basis Set: CC-PVTZ
  Basis Set:
  Basis Set: CC-PVTZ
  Basis Set:
  @DF-RHF Final Energy:  -266.92405173915301
    Total Energy =                       -266.9240517391529011
  Basis Set: CC-PVTZ
  Basis Set:
  Basis Set: CC-PVTZ
  Basis Set:
  @DF-RHF Final Energy:  -266.92405298742153
    Total Energy =                       -266.9240529874215326
  Basis Set: CC-PVTZ
  Basis Set:
  Charge       = 0
  Multiplicity = 1
  Basis Set: CC-PVTZ
  Basis Set:

    Orbital Energies (a.u.)
    -----------------------

    Doubly Occupied:

       1A    -20.597298     2A    -20.550615     3A    -11.371465
       4A    -11.293025     5A    -11.225661     6A     -1.474281
       7A     -1.378581     8A     -1.052507     9A     -0.899747
      10A     -0.810754    11A     -0.741660    12A     -0.690271
      13A     -0.675821    14A     -0.610975    15A     -0.565668
      16A     -0.556585    17A     -0.525121    18A     -0.513598
      19A     -0.466171    20A     -0.453573

  @DF-RHF Final Energy:  -266.92405316474560

   => Energetics <=

    Nuclear Repulsion Energy =            178.7479442045135727
    One-Electron Energy =                -718.4372431694766874
    Two-Electron Energy =                 272.7652458002174853
    DFT Exchange-Correlation Energy =       0.0000000000000000
    Empirical Dispersion Energy =           0.0000000000000000
    PCM Polarization Energy =               0.0000000000000000
    EFP Energy =                            0.0000000000000000
    Total Energy =                       -266.9240531647456010
    Molecular point group: c1
  Basis Set: CC-PVTZ
  Basis Set:

  -Total Gradient:
     Atom            X                  Y                   Z
    ------   -----------------  -----------------  -----------------
       1       -0.000008067569    -0.000002578710     0.000003725991
       2        0.000120261481     0.002776695068    -0.018496266922
       3        0.000690943676    -0.007602354228     0.014186122482
       4       -0.000237757998    -0.000154642776     0.010202627948
       5       -0.000561865956     0.004983703870    -0.005903696735
       6       -0.000002318275    -0.000002384040     0.000004953182
       7       -0.000000618623    -0.000001839486    -0.000000406474
       8        0.000001627551     0.000004779041     0.000001418296
       9       -0.000002923815    -0.000002524722    -0.000000534137
      10       -0.000001940212     0.000000811369     0.000001188344
      11        0.000002659741     0.000000334610     0.000000868027

  **** Optimization is complete! (in 8 steps) ****
    Final optimized geometry and variables:
    Molecular point group: c1

    Geometry (in Angstrom), charge = 0, multiplicity = 1:

    H           -1.818081108070     1.290850099109     0.371518811800
    C           -1.290221421501     0.345909443747     0.276760475286
    O            0.016534582022     0.534417642901     0.308579340594
    O           -1.833693244441    -0.696991347723     0.251542874697
    C            0.835478991152    -0.314291581742    -0.492925897335
    C            2.265875187806     0.144764836996    -0.342147669918
    H            0.504383425324    -0.238046638108    -1.520850261717
    H            0.713039960547    -1.338554249222    -0.172651276226
    H            2.376978418657     1.172981413425    -0.661749538973
    H            2.914533590897    -0.476820604100    -0.947866438803
    H            2.583924898307     0.069594071472     0.689791014495

  Mulliken Charges: (a.u.)
   Center  Symbol    Alpha    Beta     Spin     Total
       1     H     0.45445  0.45445  0.00000  0.09110
       2     C     2.84158  2.84158  0.00000  0.31685
       3     O     4.15169  4.15169  0.00000 -0.30338
       4     O     4.18450  4.18450  0.00000 -0.36900
       5     C     2.97161  2.97161  0.00000  0.05679
       6     C     3.13367  3.13367  0.00000 -0.26733
       7     H     0.46047  0.46047  0.00000  0.07906
       8     H     0.44783  0.44783  0.00000  0.10434
       9     H     0.45082  0.45082  0.00000  0.09836
      10     H     0.45488  0.45488  0.00000  0.09024
      11     H     0.44851  0.44851  0.00000  0.10298

   Total alpha = 20.00000, Total beta = 20.00000, Total charge = -0.00000

*** Psi4 exiting successfully. Buy a developer a beer!
