  ==> Input File <==

--------------------------------------------------------------------------
set {
	reference rhf
	basis 6-31G*
}

set_num_threads( 4 )
memory 2 gb

molecule MOL {
0 1

H	 -1.836216	 1.387520	 -0.000064
C	 -1.301823	 0.443321	 -0.000031
O	 -0.003969	 0.658512	 0.000451
O	 -1.829879	 -0.616434	 -0.000857
C	 0.850537	 -0.484732	 0.000380
C	 1.541610	 -0.534891	 -1.345065
H	 0.251710	 -1.367507	 0.177672
H	 1.558271	 -0.391567	 0.812616
H	 0.817137	 -0.620114	 -2.146881
H	 2.203338	 -1.393717	 -1.387100
H	 2.130072	 0.360497	 -1.509019

	symmetry c1
}
set optking {
	frozen_dihedral = ("
		7 5 3 2
	")
}

ee = optimize('scf')
oeprop('DIPOLE', 'QUADRUPOLE', 'MULLIKEN_CHARGES')
f=open( 'psi4out.xyz', 'w' )
f.write( "11  " )
f.write( str(ee) + "\n" )
f.write( MOL.save_string_xyz() )
f.close()
--------------------------------------------------------------------------

    Molecular point group: c1
  Charge       = 0
  Multiplicity = 1
  Basis Set: 6-31G*
  Basis Set:
  @DF-RHF Final Energy:  -266.82615441202449
    Total Energy =                       -266.8261544120247208
    Molecular point group: c1
  Basis Set: 6-31G*
  Basis Set:
  Basis Set: 6-31G*
  Basis Set:
  @DF-RHF Final Energy:  -266.82666813347157
    Total Energy =                       -266.8266681334715713
  Basis Set: 6-31G*
  Basis Set:
  Basis Set: 6-31G*
  Basis Set:
  @DF-RHF Final Energy:  -266.82627812193959
    Total Energy =                       -266.8262781219397084
  Basis Set: 6-31G*
  Basis Set:
  Basis Set: 6-31G*
  Basis Set:
  @DF-RHF Final Energy:  -266.82712669053979
    Total Energy =                       -266.8271266905397852
  Basis Set: 6-31G*
  Basis Set:
  Basis Set: 6-31G*
  Basis Set:
  @DF-RHF Final Energy:  -266.82716096062251
    Total Energy =                       -266.8271609606226207
  Basis Set: 6-31G*
  Basis Set:
  Charge       = 0
  Multiplicity = 1
  Basis Set: 6-31G*
  Basis Set:

    Orbital Energies (a.u.)
    -----------------------

    Doubly Occupied:

       1A    -20.612206     2A    -20.556303     3A    -11.379803
       4A    -11.290598     5A    -11.225877     6A     -1.473961
       7A     -1.374326     8A     -1.050946     9A     -0.908735
      10A     -0.799293    11A     -0.745870    12A     -0.683530
      13A     -0.660865    14A     -0.616119    15A     -0.571820
      16A     -0.547514    17A     -0.535735    18A     -0.502678
      19A     -0.455301    20A     -0.454615

  @DF-RHF Final Energy:  -266.82716969718206

   => Energetics <=

    Nuclear Repulsion Energy =            180.1749512912213902
    One-Electron Energy =                -721.1120537575061462
    Two-Electron Energy =                 274.1099327691027838
    DFT Exchange-Correlation Energy =       0.0000000000000000
    Empirical Dispersion Energy =           0.0000000000000000
    PCM Polarization Energy =               0.0000000000000000
    EFP Energy =                            0.0000000000000000
    Total Energy =                       -266.8271696971819438
    Molecular point group: c1
  Basis Set: 6-31G*
  Basis Set:

  -Total Gradient:
     Atom            X                  Y                   Z
    ------   -----------------  -----------------  -----------------
       1        0.000023126047    -0.000013270896     0.000057818388
       2        0.000011756454    -0.000085842131     0.000622917549
       3       -0.000092999989     0.000064898229    -0.001449525437
       4       -0.000049647289     0.000026944631     0.000040152470
       5        0.000282742606     0.000102794050     0.001559926493
       6       -0.000086920829     0.000026807316     0.000062963581
       7       -0.000124887968    -0.000052947226    -0.000905460746
       8        0.000102360754    -0.000093273214    -0.000012941069
       9       -0.000009236660    -0.000005957358    -0.000030817405
      10       -0.000046652418     0.000022643125     0.000038576658
      11       -0.000009640706     0.000007203473     0.000016389516

  **** Optimization is complete! (in 6 steps) ****
    Final optimized geometry and variables:
    Molecular point group: c1

    Geometry (in Angstrom), charge = 0, multiplicity = 1:

    H           -1.658033924738     1.529566494456     0.332900868330
    C           -1.158860349467     0.567228877072     0.295542177765
    O            0.145531998373     0.747612888262     0.283066000979
    O           -1.730673278595    -0.469134194639     0.269539932493
    C            1.013302646333    -0.387804284362     0.251926336573
    C            1.734586789249    -0.436148088601    -1.080891308507
    H            0.436475121314    -1.282416892116     0.419215057497
    H            1.708145105565    -0.251761213611     1.068845249152
    H            1.030509806539    -0.579854404930    -1.893002565669
    H            2.439021091598    -1.261849562967    -1.090216008229
    H            2.280928123754     0.483419309007    -1.256625955366

  Mulliken Charges: (a.u.)
   Center  Symbol    Alpha    Beta     Spin     Total
       1     H     0.41201  0.41201  0.00000  0.17597
       2     C     2.72639  2.72639  0.00000  0.54722
       3     O     4.29237  4.29237  0.00000 -0.58474
       4     O     4.26374  4.26374  0.00000 -0.52748
       5     C     3.01596  3.01596  0.00000 -0.03192
       6     C     3.24807  3.24807  0.00000 -0.49614
       7     H     0.39397  0.39397  0.00000  0.21205
       8     H     0.40987  0.40987  0.00000  0.18026
       9     H     0.41051  0.41051  0.00000  0.17898
      10     H     0.41623  0.41623  0.00000  0.16755
      11     H     0.41088  0.41088  0.00000  0.17824

   Total alpha = 20.00000, Total beta = 20.00000, Total charge = -0.00000
