  ==> Input File <==

--------------------------------------------------------------------------
set {
	reference rhf
	basis cc-pvtz
}

set_num_threads( 4 )
memory 2 gb

molecule MOL {
0 1

H	 1.128311	 0.207724	 1.465118
C	 1.134565	 0.093781	 0.372499
C	 0.062554	 0.862911	 -0.350953
O	 1.948932	 -0.587720	 -0.146651
C	 -0.778568	 1.729884	 0.591113
H	 -0.552264	 0.162535	 -0.901376
H	 0.568499	 1.503137	 -1.070122
C	 -1.636938	 0.919180	 1.557865
H	 -1.415540	 2.369215	 -0.008967
H	 -0.124356	 2.393450	 1.149802
H	 -2.325204	 0.276496	 1.020460
H	 -2.219637	 1.572521	 2.196025
H	 -1.032000	 0.286596	 2.198117

	symmetry c1
}
set optking {
	frozen_dihedral = ("
		6 3 2 4
	")
}

ee = optimize('scf')
oeprop('DIPOLE', 'QUADRUPOLE', 'MULLIKEN_CHARGES')
f=open( 'psi4out.xyz', 'w' )
f.write( "13  " )
f.write( str(ee) + "\n" )
f.write( MOL.save_string_xyz() )
f.close()
--------------------------------------------------------------------------

    Molecular point group: c1
  Charge       = 0
  Multiplicity = 1
  Basis Set: CC-PVTZ
  Basis Set:
  @DF-RHF Final Energy:  -231.06797074838414
    Total Energy =                       -231.0679707483843970
    Molecular point group: c1
  Basis Set: CC-PVTZ
  Basis Set:
  Basis Set: CC-PVTZ
  Basis Set:
  @DF-RHF Final Energy:  -231.06803105333276
    Total Energy =                       -231.0680310533326747
  Basis Set: CC-PVTZ
  Basis Set:
  Basis Set: CC-PVTZ
  Basis Set:
  @DF-RHF Final Energy:  -231.06787561053238
    Total Energy =                       -231.0678756105325533
  Basis Set: CC-PVTZ
  Basis Set:
  Basis Set: CC-PVTZ
  Basis Set:
  @DF-RHF Final Energy:  -231.06867237940767
    Total Energy =                       -231.0686723794075874
  Basis Set: CC-PVTZ
  Basis Set:
  Basis Set: CC-PVTZ
  Basis Set:
  @DF-RHF Final Energy:  -231.06860764765148
    Total Energy =                       -231.0686076476516178
  Basis Set: CC-PVTZ
  Basis Set:
  Basis Set: CC-PVTZ
  Basis Set:
  @DF-RHF Final Energy:  -231.06872580284755
    Total Energy =                       -231.0687258028475526
  Basis Set: CC-PVTZ
  Basis Set:
  Charge       = 0
  Multiplicity = 1
  Basis Set: CC-PVTZ
  Basis Set:

    Orbital Energies (a.u.)
    -----------------------

    Doubly Occupied:

       1A    -20.551373     2A    -11.322909     3A    -11.235280
       4A    -11.234661     5A    -11.223210     6A     -1.407353
       7A     -1.088263     8A     -0.973381     9A     -0.849555
      10A     -0.793245    11A     -0.665560    12A     -0.652959
      13A     -0.627318    14A     -0.594780    15A     -0.577448
      16A     -0.528738    17A     -0.508937    18A     -0.494114
      19A     -0.484976    20A     -0.412180

  @DF-RHF Final Energy:  -231.06872652272173

   => Energetics <=

    Nuclear Repulsion Energy =            172.4983699551550842
    One-Electron Energy =                -654.6817164424602424
    Two-Electron Energy =                 251.1146199645832837
    DFT Exchange-Correlation Energy =       0.0000000000000000
    Empirical Dispersion Energy =           0.0000000000000000
    PCM Polarization Energy =               0.0000000000000000
    EFP Energy =                            0.0000000000000000
    Total Energy =                       -231.0687265227218461
    Molecular point group: c1
  Basis Set: CC-PVTZ
  Basis Set:

  -Total Gradient:
     Atom            X                  Y                   Z
    ------   -----------------  -----------------  -----------------
       1        0.000014439188    -0.000011501776    -0.000008706682
       2       -0.000751509226    -0.000832289765     0.000214828200
       3        0.000701171717     0.000333120131    -0.000699486269
       4        0.000485255578     0.000550603189    -0.000079301460
       5       -0.000057324460    -0.000017580508    -0.000061527197
       6       -0.000392403086    -0.000052546818     0.000590448126
       7        0.000010885613     0.000009745529     0.000005491724
       8        0.000016147099     0.000011775441     0.000033276717
       9       -0.000006984217     0.000017508006    -0.000007659442
      10       -0.000012262892    -0.000017632414     0.000000814882
      11        0.000000022172     0.000015983929    -0.000000396557
      12       -0.000001915742    -0.000001925511     0.000015882837
      13       -0.000005521741    -0.000005259438    -0.000003664881

  **** Optimization is complete! (in 7 steps) ****
    Final optimized geometry and variables:
    Molecular point group: c1

    Geometry (in Angstrom), charge = 0, multiplicity = 1:

    H            1.116576102401    -0.356232040916     1.046510993477
    C            1.036011149574    -0.487683287170    -0.039603614759
    C           -0.088693427349     0.254223558549    -0.726715300581
    O            1.818730139110    -1.164723932240    -0.610387989418
    C           -0.928398234367     1.126689445399     0.203819237739
    H           -0.709819889726    -0.485408859670    -1.222114265404
    H            0.367391283736     0.848085690230    -1.510984711898
    C           -1.834504289555     0.328603396304     1.138099631192
    H           -1.537236904678     1.791156104525    -0.398361222139
    H           -0.272451661606     1.766632651275     0.787966160023
    H           -2.541987379492    -0.268100988001     0.572591496472
    H           -2.399502188601     0.987341174073     1.786410306318
    H           -1.269679295130    -0.346617265061     1.771711545114

  Mulliken Charges: (a.u.)
   Center  Symbol    Alpha    Beta     Spin     Total
       1     H     0.46082  0.46082  0.00000  0.07836
       2     C     2.91060  2.91060  0.00000  0.17881
       3     C     3.08963  3.08963  0.00000 -0.17925
       4     O     4.16595  4.16595  0.00000 -0.33190
       5     C     3.10393  3.10393  0.00000 -0.20785
       6     H     0.44162  0.44162  0.00000  0.11677
       7     H     0.43400  0.43400  0.00000  0.13201
       8     C     3.14794  3.14794  0.00000 -0.29589
       9     H     0.44410  0.44410  0.00000  0.11181
      10     H     0.45034  0.45034  0.00000  0.09932
      11     H     0.45171  0.45171  0.00000  0.09659
      12     H     0.44493  0.44493  0.00000  0.11013
      13     H     0.45445  0.45445  0.00000  0.09109

   Total alpha = 20.00000, Total beta = 20.00000, Total charge = -0.00000
