  ==> Input File <==

--------------------------------------------------------------------------
set {
	reference rhf
	basis cc-pvtz
}

set_num_threads( 4 )
memory 2 gb

molecule MOL {
0 1

H	 -2.966134	 -0.022628	 -0.573530
O	 -2.346257	 -0.289210	 0.080372
C	 -1.183935	 0.486039	 -0.009831
C	 0.062853	 -0.375310	 0.027457
H	 -1.178881	 1.094526	 -0.908634
H	 -1.184406	 1.155156	 0.838676
O	 1.172093	 0.457955	 -0.054438
H	 0.052476	 -1.081302	 -0.804627
H	 0.076323	 -0.955658	 0.947560
C	 2.395478	 -0.199028	 -0.000366
H	 2.505946	 -0.901710	 -0.823354
H	 3.174616	 0.545641	 -0.071768
H	 2.513730	 -0.742241	 0.934223

	symmetry c1
}
set optking {
	frozen_dihedral = ("
		1 2 3 5
	")
}

ee = optimize('scf')
oeprop('DIPOLE', 'QUADRUPOLE', 'MULLIKEN_CHARGES')
f=open( 'psi4out.xyz', 'w' )
f.write( "13  " )
f.write( str(ee) + "\n" )
f.write( MOL.save_string_xyz() )
f.close()
--------------------------------------------------------------------------

    Molecular point group: c1
  Charge       = 0
  Multiplicity = 1
  Basis Set: CC-PVTZ
  Basis Set:
  @DF-RHF Final Energy:  -268.06083051787601
    Total Energy =                       -268.0608305178761270
    Molecular point group: c1
  Basis Set: CC-PVTZ
  Basis Set:
  Basis Set: CC-PVTZ
  Basis Set:
  @DF-RHF Final Energy:  -268.06140141019631
    Total Energy =                       -268.0614014101963107
  Basis Set: CC-PVTZ
  Basis Set:
  Basis Set: CC-PVTZ
  Basis Set:
  @DF-RHF Final Energy:  -268.06157287077684
    Total Energy =                       -268.0615728707768426
  Basis Set: CC-PVTZ
  Basis Set:
  Basis Set: CC-PVTZ
  Basis Set:
  @DF-RHF Final Energy:  -268.06157859671100
    Total Energy =                       -268.0615785967110014
  Basis Set: CC-PVTZ
  Basis Set:
  Charge       = 0
  Multiplicity = 1
  Basis Set: CC-PVTZ
  Basis Set:

    Orbital Energies (a.u.)
    -----------------------

    Doubly Occupied:

       1A    -20.552829     2A    -20.551274     3A    -11.267780
       4A    -11.265144     5A    -11.264975     6A     -1.388858
       7A     -1.367478     8A     -1.019370     9A     -0.912220
      10A     -0.834046    11A     -0.715403    12A     -0.680864
      13A     -0.646582    14A     -0.643403    15A     -0.608805
      16A     -0.553632    17A     -0.546157    18A     -0.493995
      19A     -0.477494    20A     -0.441557    21A     -0.421333

  @DF-RHF Final Energy:  -268.06157910883655

   => Energetics <=

    Nuclear Repulsion Energy =            190.5188439149471549
    One-Electron Energy =                -743.8544467403319231
    Two-Electron Energy =                 285.2740237165481858
    DFT Exchange-Correlation Energy =       0.0000000000000000
    Empirical Dispersion Energy =           0.0000000000000000
    PCM Polarization Energy =               0.0000000000000000
    EFP Energy =                            0.0000000000000000
    Total Energy =                       -268.0615791088365540
    Molecular point group: c1
  Basis Set: CC-PVTZ
  Basis Set:

  -Total Gradient:
     Atom            X                  Y                   Z
    ------   -----------------  -----------------  -----------------
       1        0.000260647501    -0.000446270249    -0.000403269735
       2       -0.000380470415     0.000701759272     0.000569347217
       3        0.000396302080    -0.000699050633    -0.000420858452
       4       -0.000012647779    -0.000015339276     0.000001264014
       5       -0.000262817686     0.000422455863     0.000266760135
       6       -0.000000270100    -0.000011419290    -0.000001267528
       7        0.000029952106     0.000017748759    -0.000004138402
       8       -0.000010138311    -0.000001208123    -0.000009769763
       9       -0.000011291049     0.000025801645    -0.000004923424
      10       -0.000007226444     0.000006355838     0.000012297999
      11       -0.000005925764     0.000002422345    -0.000000603301
      12        0.000003331567    -0.000000075514    -0.000003316519
      13        0.000000554293    -0.000003180638    -0.000001522241

  **** Optimization is complete! (in 5 steps) ****
    Final optimized geometry and variables:
    Molecular point group: c1

    Geometry (in Angstrom), charge = 0, multiplicity = 1:

    H           -2.945655346527    -0.106121089120    -0.561059463654
    O           -2.313642757401    -0.319455977452     0.097480446099
    C           -1.179110453282     0.498255907736    -0.021879653514
    C            0.056934474218    -0.373438596932     0.006155579265
    H           -1.196646116847     1.073232451210    -0.941055384201
    H           -1.141681935999     1.200940271202     0.802736329479
    O            1.174136533186     0.453491521776    -0.045312066786
    H            0.042007568690    -1.059799403830    -0.838507221120
    H            0.055929368424    -0.970849497509     0.915538350200
    C            2.390142298099    -0.217190937760    -0.003374666937
    H            2.498181507929    -0.897783544604    -0.844954505516
    H            3.177587889639     0.520885228109    -0.049392776179
    H            2.497610024824    -0.787868820038     0.916150073011

  Mulliken Charges: (a.u.)
   Center  Symbol    Alpha    Beta     Spin     Total
       1     H     0.38880  0.38880  0.00000  0.22239
       2     O     4.20614  4.20614  0.00000 -0.41228
       3     C     2.96940  2.96940  0.00000  0.06121
       4     C     2.95944  2.95944  0.00000  0.08112
       5     H     0.47009  0.47009  0.00000  0.05982
       6     H     0.46472  0.46472  0.00000  0.07055
       7     O     4.17653  4.17653  0.00000 -0.35306
       8     H     0.47516  0.47516  0.00000  0.04968
       9     H     0.47067  0.47067  0.00000  0.05867
      10     C     3.03088  3.03088  0.00000 -0.06176
      11     H     0.47105  0.47105  0.00000  0.05790
      12     H     0.44697  0.44697  0.00000  0.10606
      13     H     0.47016  0.47016  0.00000  0.05969

   Total alpha = 21.00000, Total beta = 21.00000, Total charge = -0.00000
