  ==> Input File <==

--------------------------------------------------------------------------
set {
	reference rhf
	basis cc-pvtz
}

set_num_threads( 4 )
memory 2 gb

molecule MOL {
0 1

H	 2.268895	 -0.209387	 -0.454459
O	 1.583947	 -0.677544	 -0.001533
C	 0.489979	 0.078084	 0.002623
C	 -0.763662	 -0.754014	 0.000816
O	 0.539051	 1.259395	 -0.000088
C	 -2.038001	 0.074705	 -0.000833
H	 -0.712945	 -1.405886	 -0.864342
H	 -0.715137	 -1.405770	 0.866182
H	 -2.087267	 0.710831	 -0.874232
H	 -2.903419	 -0.576199	 -0.001922
H	 -2.089467	 0.710909	 0.872389

	symmetry c1
}
set optking {
	frozen_dihedral = ("
		1 2 3 5
	")
}

ee = optimize('scf')
oeprop('DIPOLE', 'QUADRUPOLE', 'MULLIKEN_CHARGES')
f=open( 'psi4out.xyz', 'w' )
f.write( "11  " )
f.write( str(ee) + "\n" )
f.write( MOL.save_string_xyz() )
f.close()
--------------------------------------------------------------------------

    Molecular point group: c1
  Charge       = 0
  Multiplicity = 1
  Basis Set: CC-PVTZ
  Basis Set:
  @DF-RHF Final Energy:  -266.94822801441211
    Total Energy =                       -266.9482280144118249
    Molecular point group: c1
  Basis Set: CC-PVTZ
  Basis Set:
  Basis Set: CC-PVTZ
  Basis Set:
  @DF-RHF Final Energy:  -266.94496558109040
    Total Energy =                       -266.9449655810906279
  Basis Set: CC-PVTZ
  Basis Set:
  Basis Set: CC-PVTZ
  Basis Set:
  @DF-RHF Final Energy:  -266.94871020467065
    Total Energy =                       -266.9487102046707605
  Basis Set: CC-PVTZ
  Basis Set:
  Basis Set: CC-PVTZ
  Basis Set:
  @DF-RHF Final Energy:  -266.94877134945762
    Total Energy =                       -266.9487713494573313
  Basis Set: CC-PVTZ
  Basis Set:
  Basis Set: CC-PVTZ
  Basis Set:
  @DF-RHF Final Energy:  -266.94878038933041
    Total Energy =                       -266.9487803893305227
  Basis Set: CC-PVTZ
  Basis Set:
  Charge       = 0
  Multiplicity = 1
  Basis Set: CC-PVTZ
  Basis Set:

    Orbital Energies (a.u.)
    -----------------------

    Doubly Occupied:

       1A    -20.601237     2A    -20.543735     3A    -11.374553
       4A    -11.242601     5A    -11.218614     6A     -1.474774
       7A     -1.371036     8A     -1.065906     9A     -0.917551
      10A     -0.804288    11A     -0.707337    12A     -0.691020
      13A     -0.663461    14A     -0.606919    15A     -0.584780
      16A     -0.531667    17A     -0.527133    18A     -0.505812
      19A     -0.486805    20A     -0.448790

  @DF-RHF Final Energy:  -266.94878041152077

   => Energetics <=

    Nuclear Repulsion Energy =            179.9917487876821838
    One-Electron Energy =                -721.1450207744758245
    Two-Electron Energy =                 274.2044915752729821
    DFT Exchange-Correlation Energy =       0.0000000000000000
    Empirical Dispersion Energy =           0.0000000000000000
    PCM Polarization Energy =               0.0000000000000000
    EFP Energy =                            0.0000000000000000
    Total Energy =                       -266.9487804115207155
    Molecular point group: c1
  Basis Set: CC-PVTZ
  Basis Set:

  -Total Gradient:
     Atom            X                  Y                   Z
    ------   -----------------  -----------------  -----------------
       1       -0.002095677269    -0.004104888139    -0.008196384828
       2        0.002291545517     0.005141106690     0.014035384645
       3        0.000449405589    -0.001317934363    -0.014313141332
       4        0.000020511599    -0.000001740978    -0.000093529285
       5       -0.000654738801     0.000253483375     0.008465541808
       6       -0.000002072511    -0.000009532714     0.000015291694
       7        0.000030607619    -0.000026651090     0.000032136277
       8       -0.000039475883     0.000060838817     0.000066821209
       9       -0.000002273909     0.000002439297    -0.000005824972
      10       -0.000000755105     0.000003797178    -0.000004692892
      11        0.000002923156    -0.000000918075    -0.000001602324

  **** Optimization is complete! (in 6 steps) ****
    Final optimized geometry and variables:
    Molecular point group: c1

    Geometry (in Angstrom), charge = 0, multiplicity = 1:

    H            2.314312156873    -0.227667544412    -0.340179120422
    O            1.588930074972    -0.673945855071     0.068261489288
    C            0.490424101144     0.081422786003    -0.029137422010
    C           -0.762310164395    -0.751485806476    -0.002706298907
    O            0.534617584542     1.260630348685    -0.058654965819
    C           -2.038713543293     0.072694815093     0.037322780094
    H           -0.733278737812    -1.396074721651    -0.874890422624
    H           -0.687029588910    -1.411867716138     0.854200312928
    H           -2.112798649595     0.717868719728    -0.827670234929
    H           -2.902434217132    -0.580440258002     0.052536501015
    H           -2.069099668744     0.699833742924     0.918302246323

  Mulliken Charges: (a.u.)
   Center  Symbol    Alpha    Beta     Spin     Total
       1     H     0.38073  0.38073  0.00000  0.23853
       2     O     4.16595  4.16595  0.00000 -0.33190
       3     C     2.80373  2.80373  0.00000  0.39254
       4     C     3.10029  3.10029  0.00000 -0.20058
       5     O     4.18381  4.18381  0.00000 -0.36761
       6     C     3.13911  3.13911  0.00000 -0.27823
       7     H     0.44205  0.44205  0.00000  0.11589
       8     H     0.43888  0.43888  0.00000  0.12225
       9     H     0.44794  0.44794  0.00000  0.10412
      10     H     0.44975  0.44975  0.00000  0.10051
      11     H     0.44776  0.44776  0.00000  0.10447

   Total alpha = 20.00000, Total beta = 20.00000, Total charge =  0.00000
