                              Psi4 1.0.54 Driver

  ==> Input File <==

--------------------------------------------------------------------------
set {
	reference rhf
	basis cc-pvtz
}

set_num_threads( 4 )
memory 2 gb

molecule MOL {
0 1

H	 -3.703978	 1.295996	 -0.297649
C	 -2.986405	 0.720982	 0.250765
C	 -2.105997	 -0.000418	 -0.398703
H	 -3.006974	 0.752869	 1.322380
O	 -1.189946	 -0.765863	 0.237511
H	 -2.071000	 -0.033036	 -1.472406
C	 0.026572	 -0.995256	 -0.379403
C	 1.057223	 0.049888	 -0.004615
H	 -0.054361	 -1.010670	 -1.459674
H	 0.397526	 -1.952058	 -0.044198
F	 2.203233	 -0.234060	 -0.590375
F	 0.698147	 1.254887	 -0.392621
F	 1.266440	 0.094219	 1.288722

	symmetry c1
}
set optking {
	frozen_dihedral = ("
		6 3 5 7
	")
}

ee,wfn = optimize('scf', return_wfn=True)
oeprop( wfn, 'DIPOLE', 'QUADRUPOLE', 'MULLIKEN_CHARGES')
f=open( 'psi4out.xyz', 'w' )
f.write( "13  " )
f.write( str(ee) + "\n" )
f.write( MOL.save_string_xyz() )
f.close()
--------------------------------------------------------------------------

    Molecular point group: c1
  Charge       = 0
  Multiplicity = 1
  Basis Set: CC-PVTZ
  Basis Set:
  @DF-RHF Final Energy:  -527.74147585453773
    Total Energy =                       -527.7414758545380664
    Molecular point group: c1
  Basis Set: CC-PVTZ
  Basis Set:
  Basis Set: CC-PVTZ
  Basis Set:
  @DF-RHF Final Energy:  -527.74147556975913
    Total Energy =                       -527.7414755697590181
  Basis Set: CC-PVTZ
  Basis Set:
  Basis Set: CC-PVTZ
  Basis Set:
  @DF-RHF Final Energy:  -527.74164230271424
    Total Energy =                       -527.7416423027141263
  Basis Set: CC-PVTZ
  Basis Set:
  Basis Set: CC-PVTZ
  Basis Set:
  @DF-RHF Final Energy:  -527.74164572185487
    Total Energy =                       -527.7416457218548658
  Basis Set: CC-PVTZ
  Basis Set:
  Basis Set: CC-PVTZ
  Basis Set:
  @DF-RHF Final Energy:  -527.74164803157896
    Total Energy =                       -527.7416480315788476
  Basis Set: CC-PVTZ
  Basis Set:
  Charge       = 0
  Multiplicity = 1
  Basis Set: CC-PVTZ
  Basis Set:

    Orbital Energies (a.u.)
    -----------------------

    Doubly Occupied:

       1A    -26.340376     2A    -26.338711     3A    -26.336857
       4A    -20.602640     5A    -11.496558     6A    -11.318980
       7A    -11.297497     8A    -11.215740     9A     -1.749043
      10A     -1.645380    11A     -1.644023    12A     -1.442773
      13A     -1.086610    14A     -1.020888    15A     -0.931094
      16A     -0.842795    17A     -0.838108    18A     -0.824879
      19A     -0.798575    20A     -0.724727    21A     -0.718414
      22A     -0.698952    23A     -0.681492    24A     -0.668674
      25A     -0.660481    26A     -0.649479    27A     -0.645906
      28A     -0.585606    29A     -0.567621    30A     -0.529184
      31A     -0.509458    32A     -0.360711

  @DF-RHF Final Energy:  -527.74164836073282

   => Energetics <=

    Nuclear Repulsion Energy =            414.9736016507970930
    One-Electron Energy =               -1553.8860306531735205
    Two-Electron Energy =                 611.1707806416438871
    DFT Exchange-Correlation Energy =       0.0000000000000000
    Empirical Dispersion Energy =           0.0000000000000000
    PCM Polarization Energy =               0.0000000000000000
    EFP Energy =                            0.0000000000000000
    Total Energy =                       -527.7416483607325972
    Molecular point group: c1
  Basis Set: CC-PVTZ
  Basis Set:

  -Total Gradient:
     Atom            X                  Y                   Z
    ------   -----------------  -----------------  -----------------
       1        0.000012107514    -0.000010193730    -0.000019717151
       2       -0.000011935011     0.000028688220     0.000034510407
       3        0.001209889877     0.001651084594     0.000214443730
       4        0.000016123216    -0.000021189566    -0.000004821913
       5       -0.000849786200    -0.001527925749    -0.000666453273
       6       -0.000819198387    -0.000934449391    -0.000020954347
       7        0.000414601131     0.000788148686     0.000471552552
       8       -0.000023448998     0.000121384549    -0.000035029709
       9       -0.000000063625     0.000003664938     0.000001990454
      10        0.000009677589     0.000010236610     0.000006786330
      11        0.000035153979    -0.000056254255    -0.000040411981
      12        0.000027987570    -0.000033667387     0.000017167165
      13       -0.000021108662    -0.000019527524     0.000040937734

  **** Optimization is complete! (in 6 steps) ****
    Final optimized geometry and variables:
    Molecular point group: c1

    Geometry (in Angstrom), charge = 0, multiplicity = 1:

    H           -3.730674755003     1.300470601494    -0.238169465747
    C           -3.010080104631     0.716677004201     0.297312279259
    C           -2.120406852826     0.020526302584    -0.365379689786
    H           -3.041405495777     0.711195390130     1.369120791649
    O           -1.231316377939    -0.795198588749     0.250446183456
    H           -2.078617667011     0.012168968281    -1.440500140080
    C           -0.024366695691    -1.043549150956    -0.378784797064
    C            1.027146576321    -0.008369173991    -0.034486167615
    H           -0.121000576129    -1.071029739572    -1.458154965695
    H            0.339714702536    -2.000035062644    -0.035557438394
    F            2.166098762820    -0.334881748807    -0.613081876933
    F            0.696155790149     1.192413949509    -0.455463485461
    F            1.239501456697     0.066289553846     1.257380546811

  Mulliken Charges: (a.u.)
   Center  Symbol    Alpha    Beta     Spin     Total
       1     H     0.42506  0.42506  0.00000  0.14988
       2     C     3.18827  3.18827  0.00000 -0.37655
       3     C     2.96367  2.96367  0.00000  0.07266
       4     H     0.42344  0.42344  0.00000  0.15311
       5     O     4.14702  4.14702  0.00000 -0.29403
       6     H     0.43610  0.43610  0.00000  0.12780
       7     C     3.01888  3.01888  0.00000 -0.03775
       8     C     2.67616  2.67616  0.00000  0.64769
       9     H     0.45544  0.45544  0.00000  0.08912
      10     H     0.43678  0.43678  0.00000  0.12644
      11     F     4.61280  4.61280  0.00000 -0.22560
      12     F     4.60908  4.60908  0.00000 -0.21816
      13     F     4.60730  4.60730  0.00000 -0.21460

   Total alpha = 32.00000, Total beta = 32.00000, Total charge = -0.00000

*** Psi4 exiting successfully. Buy a developer a beer!
