  ==> Input File <==

--------------------------------------------------------------------------
set {
	reference rhf
	basis 6-31G*
}

set_num_threads( 4 )
memory 2 gb

molecule MOL {
0 1

O	 0.992216	 -0.136409	 0.662742
C	 0.028650	 0.075053	 -0.000277
C	 -1.233602	 -0.752807	 0.000328
O	 -0.062648	 1.091440	 -0.847934
C	 -2.501530	 0.091881	 0.000126
H	 -1.193807	 -1.406641	 -0.865785
H	 -1.193516	 -1.405779	 0.867015
H	 -2.545121	 0.729328	 -0.874513
H	 -3.377167	 -0.548497	 0.000561
H	 -2.544818	 0.730135	 0.874258
C	 1.059803	 1.949414	 -0.945772
H	 1.270162	 2.409847	 0.008776
H	 0.794343	 2.700702	 -1.673068
H	 1.930187	 1.400284	 -1.274953

	symmetry c1
}
set optking {
	frozen_dihedral = ("
		4 2 3 6
	")
}

ee = optimize('scf')
oeprop('DIPOLE', 'QUADRUPOLE', 'MULLIKEN_CHARGES')
f=open( 'psi4out.xyz', 'w' )
f.write( "14  " )
f.write( str(ee) + "\n" )
f.write( MOL.save_string_xyz() )
f.close()
--------------------------------------------------------------------------

    Molecular point group: c1
  Charge       = 0
  Multiplicity = 1
  Basis Set: 6-31G*
  Basis Set:
  @DF-RHF Final Energy:  -305.86994944077878
    Total Energy =                       -305.8699494407788393
    Molecular point group: c1
  Basis Set: 6-31G*
  Basis Set:
  Basis Set: 6-31G*
  Basis Set:
  @DF-RHF Final Energy:  -305.87005750733545
    Total Energy =                       -305.8700575073354457
  Basis Set: 6-31G*
  Basis Set:
  Basis Set: 6-31G*
  Basis Set:
  @DF-RHF Final Energy:  -305.87026687840591
    Total Energy =                       -305.8702668784060279
  Basis Set: 6-31G*
  Basis Set:
  Basis Set: 6-31G*
  Basis Set:
  @DF-RHF Final Energy:  -305.87035284904925
    Total Energy =                       -305.8703528490493682
  Basis Set: 6-31G*
  Basis Set:
  Basis Set: 6-31G*
  Basis Set:
  @DF-RHF Final Energy:  -305.87035367804231
    Total Energy =                       -305.8703536780423633
  Basis Set: 6-31G*
  Basis Set:
  Charge       = 0
  Multiplicity = 1
  Basis Set: 6-31G*
  Basis Set:

    Orbital Energies (a.u.)
    -----------------------

    Doubly Occupied:

       1A    -20.605875     2A    -20.543950     3A    -11.372468
       4A    -11.281925     5A    -11.238461     6A    -11.223430
       7A     -1.470381     8A     -1.362358     9A     -1.066927
      10A     -0.975146    11A     -0.886719    12A     -0.774810
      13A     -0.695664    14A     -0.680548    15A     -0.672838
      16A     -0.620483    17A     -0.586627    18A     -0.565654
      19A     -0.545459    20A     -0.520715    21A     -0.515133
      22A     -0.499368    23A     -0.456159    24A     -0.434112

  @DF-RHF Final Energy:  -305.87035435799680

   => Energetics <=

    Nuclear Repulsion Energy =            248.3740811811112508
    One-Electron Energy =                -909.2984471367637980
    Two-Electron Energy =                 355.0540115976558582
    DFT Exchange-Correlation Energy =       0.0000000000000000
    Empirical Dispersion Energy =           0.0000000000000000
    PCM Polarization Energy =               0.0000000000000000
    EFP Energy =                            0.0000000000000000
    Total Energy =                       -305.8703543579966890
    Molecular point group: c1
  Basis Set: 6-31G*
  Basis Set:

  -Total Gradient:
     Atom            X                  Y                   Z
    ------   -----------------  -----------------  -----------------
       1       -0.000015897459     0.000012282404    -0.000021552966
       2        0.000380097289    -0.000596072466    -0.000434513749
       3       -0.000451303561     0.000701704861    -0.000299390297
       4       -0.000199453416     0.000367065510     0.000384132758
       5       -0.000001605468    -0.000009526273    -0.000003588819
       6        0.000312487431    -0.000472995944     0.000367025026
       7       -0.000005619870    -0.000002407355     0.000001404134
       8        0.000001372174     0.000000098039     0.000003142974
       9       -0.000008720991     0.000001453731    -0.000000361579
      10        0.000003716113    -0.000003776255    -0.000003818943
      11       -0.000026049099    -0.000000646699     0.000017607162
      12        0.000007210788     0.000005101038    -0.000003787076
      13        0.000002845719     0.000001500396    -0.000004138464
      14        0.000000920346    -0.000003780986    -0.000002160160

  **** Optimization is complete! (in 6 steps) ****
    Final optimized geometry and variables:
    Molecular point group: c1

    Geometry (in Angstrom), charge = 0, multiplicity = 1:

    O            1.263179127971    -0.563641067371     0.838610267979
    C            0.293817984028    -0.322121417935     0.193777172677
    C           -0.966866446488    -1.154433298606     0.203389822103
    O            0.217141419357     0.706186786535    -0.640049542521
    C           -2.266116325385    -0.348277178908     0.196196979809
    H           -0.923869953057    -1.799735707664    -0.670624566700
    H           -0.906620398723    -1.795596065559     1.072927225403
    H           -2.350915077312     0.254622195597    -0.698349483954
    H           -3.116888806477    -1.019591804630     0.237641122588
    H           -2.322473462437     0.312388647878     1.055140808365
    C            1.361277218569     1.534440463217    -0.745086448491
    H            1.600692003933     1.973580686098     0.212488204029
    H            1.104217707583     2.303735961929    -1.456413225954
    H            2.209733627753     0.965933115137    -1.097579384553

  Mulliken Charges: (a.u.)
   Center  Symbol    Alpha    Beta     Spin     Total
       1     O     4.28658  4.28658  0.00000 -0.57316
       2     C     2.61076  2.61076  0.00000  0.77848
       3     C     3.20265  3.20265  0.00000 -0.40531
       4     O     4.30250  4.30250  0.00000 -0.60501
       5     C     3.24479  3.24479  0.00000 -0.48958
       6     H     0.40159  0.40159  0.00000  0.19682
       7     H     0.39723  0.39723  0.00000  0.20554
       8     H     0.40634  0.40634  0.00000  0.18732
       9     H     0.41459  0.41459  0.00000  0.17083
      10     H     0.41501  0.41501  0.00000  0.16999
      11     C     3.09235  3.09235  0.00000 -0.18470
      12     H     0.40830  0.40830  0.00000  0.18339
      13     H     0.40870  0.40870  0.00000  0.18260
      14     H     0.40862  0.40862  0.00000  0.18277

   Total alpha = 24.00000, Total beta = 24.00000, Total charge =  0.00000
