  ==> Input File <==

--------------------------------------------------------------------------
set {
	reference rhf
	basis 6-31G*
}

set_num_threads( 1 )
memory 2 gb

molecule MOL {
0 1

O	 -0.829337	 -1.402243	 1.893432
C	 -1.612675	 -1.307321	 1.003496
C	 -2.862351	 -2.142297	 0.892168
O	 -1.481751	 -0.454642	 0.000584
H	 -3.465900	 -1.985085	 1.778099
H	 -3.434234	 -1.896044	 0.009701
H	 -2.580929	 -3.188305	 0.868755
C	 -0.334255	 0.388708	 0.000906
C	 0.891947	 -0.504646	 0.000751
H	 -0.365390	 1.025305	 -0.873475
H	 -0.365484	 1.024911	 0.875569
C	 2.191998	 0.301789	 0.000897
H	 0.855148	 -1.151283	 -0.871571
H	 0.855132	 -1.151660	 0.872805
C	 3.441114	 -0.581407	 0.000108
H	 2.215074	 0.954890	 -0.869742
H	 2.215465	 0.953923	 0.872248
C	 4.739576	 0.224112	 -0.001102
H	 3.419457	 -1.233487	 -0.870178
H	 3.420834	 -1.233096	 0.870717
H	 4.804918	 0.861552	 -0.878265
H	 5.606527	 -0.429058	 -0.001824
H	 4.806469	 0.861674	 0.875853

	symmetry c1
}
set optking {
	frozen_dihedral = ("
		13 9 8 10,
		16 12 9 13,
		19 15 12 16,
		1 2 4 8
	")
}

ee = energy('scf')
oeprop('DIPOLE', 'QUADRUPOLE', 'MULLIKEN_CHARGES')
f=open( 'psi4out.xyz', 'w' )
f.write( "23  " )
f.write( str(ee) + "\n" )
f.write( MOL.save_string_xyz() )
f.close()
--------------------------------------------------------------------------

    Molecular point group: c1

    Geometry (in Angstrom), charge = 0, multiplicity = 1:

       Center              X                  Y                   Z               Mass
    ------------   -----------------  -----------------  -----------------  -----------------
           O         -1.279965046305    -0.788936787232     1.464984080480    15.994914619560
           C         -2.063303046305    -0.694014787232     0.575048080480    12.000000000000
           C         -3.312979046305    -1.528990787232     0.463720080480    12.000000000000
           O         -1.932379046305     0.158664212768    -0.427863919520    15.994914619560
           H         -3.916528046305    -1.371778787232     1.349651080480     1.007825032070
           H         -3.884862046305    -1.282737787232    -0.418746919520     1.007825032070
           H         -3.031557046305    -2.574998787232     0.440307080480     1.007825032070
           C         -0.784883046305     1.002014212768    -0.427541919520    12.000000000000
           C          0.441318953695     0.108660212768    -0.427696919520    12.000000000000
           H         -0.816018046305     1.638611212768    -1.301922919520     1.007825032070
           H         -0.816112046305     1.638217212768     0.447121080480     1.007825032070
           C          1.741369953695     0.915095212768    -0.427550919520    12.000000000000
           H          0.404519953695    -0.537976787232    -1.300018919520     1.007825032070
           H          0.404503953695    -0.538353787232     0.444357080480     1.007825032070
           C          2.990485953695     0.031899212768    -0.428339919520    12.000000000000
           H          1.764445953695     1.568196212768    -1.298189919520     1.007825032070
           H          1.764836953695     1.567229212768     0.443800080480     1.007825032070
           C          4.288947953695     0.837418212768    -0.429549919520    12.000000000000
           H          2.968828953695    -0.620180787232    -1.298625919520     1.007825032070
           H          2.970205953695    -0.619789787232     0.442269080480     1.007825032070
           H          4.354289953695     1.474858212768    -1.306712919520     1.007825032070
           H          5.155898953695     0.184248212768    -0.430271919520     1.007825032070
           H          4.355840953695     1.474980212768     0.447405080480     1.007825032070

  Charge       = 0
  Multiplicity = 1
  Basis Set: 6-31G*
  Basis Set:

    Orbital Energies (a.u.)
    -----------------------

    Doubly Occupied:

       1A    -20.604136     2A    -20.541857     3A    -11.378018
       4A    -11.282564     5A    -11.234109     6A    -11.214871
       7A    -11.214137     8A    -11.207422     9A    -11.205758
      10A     -1.471957    11A     -1.364535    12A     -1.085902
      13A     -1.039981    14A     -0.998923    15A     -0.928926
      16A     -0.849817    17A     -0.794638    18A     -0.762654
      19A     -0.704222    20A     -0.682717    21A     -0.657598
      22A     -0.642512    23A     -0.603468    24A     -0.589210
      25A     -0.580926    26A     -0.569194    27A     -0.554196
      28A     -0.533709    29A     -0.521492    30A     -0.518511
      31A     -0.485157    32A     -0.473210    33A     -0.466729
      34A     -0.464011    35A     -0.435138    36A     -0.423887

  @DF-RHF Final Energy:  -422.96767082321543

   => Energetics <=

    Nuclear Repulsion Energy =            464.8449403120488910
    One-Electron Energy =               -1497.4534764653722050
    Two-Electron Energy =                 609.6408653301109553
    DFT Exchange-Correlation Energy =       0.0000000000000000
    Empirical Dispersion Energy =           0.0000000000000000
    PCM Polarization Energy =               0.0000000000000000
    EFP Energy =                            0.0000000000000000
    Total Energy =                       -422.9676708232123019

  Mulliken Charges: (a.u.)
   Center  Symbol    Alpha    Beta     Spin     Total
       1     O     4.28657  4.28657  0.00000 -0.57313
       2     C     2.61251  2.61251  0.00000  0.77499
       3     C     3.28780  3.28780  0.00000 -0.57560
       4     O     4.31177  4.31177  0.00000 -0.62354
       5     H     0.39707  0.39707  0.00000  0.20586
       6     H     0.39870  0.39870  0.00000  0.20261
       7     H     0.39777  0.39777  0.00000  0.20446
       8     C     2.99992  2.99992  0.00000  0.00015
       9     C     3.18775  3.18775  0.00000 -0.37549
      10     H     0.40733  0.40733  0.00000  0.18534
      11     H     0.41060  0.41060  0.00000  0.17880
      12     C     3.15792  3.15792  0.00000 -0.31585
      13     H     0.42123  0.42123  0.00000  0.15753
      14     H     0.37819  0.37819  0.00000  0.24361
      15     C     3.15100  3.15100  0.00000 -0.30200
      16     H     0.42711  0.42711  0.00000  0.14579
      17     H     0.42178  0.42178  0.00000  0.15645
      18     C     3.23952  3.23952  0.00000 -0.47905
      19     H     0.42316  0.42316  0.00000  0.15369
      20     H     0.41934  0.41934  0.00000  0.16131
      21     H     0.42249  0.42249  0.00000  0.15501
      22     H     0.41911  0.41911  0.00000  0.16179
      23     H     0.42136  0.42136  0.00000  0.15727

   Total alpha = 36.00000, Total beta = 36.00000, Total charge =  0.00000
