  ==> Input File <==

--------------------------------------------------------------------------
set {
	reference rhf
	basis 6-31G*
}

set_num_threads( 4 )
memory 2 gb

molecule MOL {
0 1

H	 -4.236494	 0.538104	 0.039757
O	 -3.517110	 -0.026191	 -0.205115
C	 -2.306886	 0.532354	 0.237577
C	 -1.177863	 -0.397191	 -0.171080
H	 -2.156308	 1.517575	 -0.201710
H	 -2.315015	 0.655684	 1.319734
C	 0.198102	 0.111031	 0.262842
H	 -1.208843	 -0.518759	 -1.250427
H	 -1.368741	 -1.376554	 0.258909
C	 1.331804	 -0.827780	 -0.158768
H	 0.361943	 1.100838	 -0.156218
H	 0.217265	 0.229072	 1.345532
C	 2.723619	 -0.410569	 0.329459
H	 1.342964	 -0.912588	 -1.244120
H	 1.116806	 -1.824343	 0.220779
C	 2.724765	 0.416881	 1.616184
H	 3.204402	 0.166944	 -0.456298
H	 3.336441	 -1.298692	 0.470353
H	 2.109069	 1.305940	 1.508807
H	 2.346900	 -0.146906	 2.462670
H	 3.730688	 0.740938	 1.864899

	symmetry c1
}
set optking {
	frozen_dihedral = ("
		16 13 10 14
	")
}

ee = optimize('scf')
oeprop('DIPOLE', 'QUADRUPOLE', 'MULLIKEN_CHARGES')
f=open( 'psi4out.xyz', 'w' )
f.write( "21  " )
f.write( str(ee) + "\n" )
f.write( MOL.save_string_xyz() )
f.close()
--------------------------------------------------------------------------

    Molecular point group: c1
  Charge       = 0
  Multiplicity = 1
  Basis Set: 6-31G*
  Basis Set:
  @DF-RHF Final Energy:  -310.20635213931632
    Total Energy =                       -310.2063521393167207
    Molecular point group: c1
  Basis Set: 6-31G*
  Basis Set:
  Basis Set: 6-31G*
  Basis Set:
  @DF-RHF Final Energy:  -310.20707618521283
    Total Energy =                       -310.2070761852127134
  Basis Set: 6-31G*
  Basis Set:
  Basis Set: 6-31G*
  Basis Set:
  @DF-RHF Final Energy:  -310.20814109598501
    Total Energy =                       -310.2081410959848427
  Basis Set: 6-31G*
  Basis Set:
  Basis Set: 6-31G*
  Basis Set:
  @DF-RHF Final Energy:  -310.20817825904885
    Total Energy =                       -310.2081782590491343
  Basis Set: 6-31G*
  Basis Set:
  Basis Set: 6-31G*
  Basis Set:
  @DF-RHF Final Energy:  -310.20820550971331
    Total Energy =                       -310.2082055097130251
  Basis Set: 6-31G*
  Basis Set:
  Basis Set: 6-31G*
  Basis Set:
  @DF-RHF Final Energy:  -310.20820844896849
    Total Energy =                       -310.2082084489686054
  Basis Set: 6-31G*
  Basis Set:
  Charge       = 0
  Multiplicity = 1
  Basis Set: 6-31G*
  Basis Set:

    Orbital Energies (a.u.)
    -----------------------

    Doubly Occupied:

       1A    -20.551755     2A    -11.266943     3A    -11.215495
       4A    -11.215380     5A    -11.213886     6A    -11.210462
       7A    -11.208329     8A     -1.358556     9A     -1.085027
      10A     -1.031607    11A     -0.953731    12A     -0.878542
      13A     -0.809011    14A     -0.772707    15A     -0.691841
      16A     -0.663000    17A     -0.628724    18A     -0.599025
      19A     -0.584014    20A     -0.573690    21A     -0.533904
      22A     -0.525555    23A     -0.506813    24A     -0.485575
      25A     -0.484027    26A     -0.457206    27A     -0.451427
      28A     -0.443496    29A     -0.433852

  @DF-RHF Final Energy:  -310.20820919015722

   => Energetics <=

    Nuclear Repulsion Energy =            313.3628133438318741
    One-Electron Energy =               -1041.4748835065456660
    Two-Electron Energy =                 417.9038609725567994
    DFT Exchange-Correlation Energy =       0.0000000000000000
    Empirical Dispersion Energy =           0.0000000000000000
    PCM Polarization Energy =               0.0000000000000000
    EFP Energy =                            0.0000000000000000
    Total Energy =                       -310.2082091901569356
    Molecular point group: c1
  Basis Set: 6-31G*
  Basis Set:

  -Total Gradient:
     Atom            X                  Y                   Z
    ------   -----------------  -----------------  -----------------
       1       -0.000011989241     0.000000285812     0.000001489463
       2       -0.000005501529     0.000000973807     0.000007046250
       3        0.000007192375    -0.000014645419    -0.000009540023
       4        0.000013282185     0.000016866418    -0.000015850853
       5        0.000005428812    -0.000004896385    -0.000001075934
       6       -0.000008509556     0.000007694379     0.000013759903
       7       -0.000026070079    -0.000007535493     0.000018014153
       8       -0.000007696997    -0.000004637845    -0.000012279518
       9       -0.000005206824     0.000000145025     0.000002944038
      10        0.001963799460    -0.005257723852    -0.000625784334
      11        0.000015583651     0.000013255198     0.000010778239
      12       -0.000018592967    -0.000039123286    -0.000004972845
      13        0.000361795725    -0.004215142355     0.003457694709
      14       -0.001782561511     0.005748922968    -0.000364759975
      15        0.000038190658    -0.000014006725    -0.000012394176
      16       -0.000558820687     0.003832370069    -0.002463565193
      17        0.000004538158    -0.000023740647    -0.000009065244
      18       -0.000006815230    -0.000031146976     0.000022985239
      19        0.000017791214     0.000006427855    -0.000005182519
      20       -0.000003187888    -0.000012197574    -0.000004610748
      21        0.000007350272    -0.000002144976    -0.000005630631

  **** Optimization is complete! (in 7 steps) ****
    Final optimized geometry and variables:
    Molecular point group: c1

    Geometry (in Angstrom), charge = 0, multiplicity = 1:

    H           -4.178977569530     0.613278643123    -0.343616905556
    O           -3.450232909356     0.059249138789    -0.584266205254
    C           -2.260729470718     0.587592795636    -0.056367713029
    C           -1.116002090917    -0.324693959709    -0.460410752668
    H           -2.087127273765     1.593840166384    -0.435413356923
    H           -2.319680358323     0.653812421445     1.029189941396
    C            0.239551359209     0.155285749136     0.061394775884
    H           -1.099496410697    -0.392268204192    -1.544719901824
    H           -1.327923645001    -1.323702116385    -0.088996737611
    C            1.381242911701    -0.784174524472    -0.346461212735
    H            0.438890951087     1.155633477888    -0.320075478613
    H            0.195497278310     0.242412780345     1.143871554915
    C            2.800556933062    -0.322087455734     0.049703783179
    H            1.341983031889    -0.864521583778    -1.429676963400
    H            1.182980299931    -1.772239096986     0.060399910247
    C            2.911780299130     0.511530997436     1.328549263248
    H            3.210549540335     0.271764707884    -0.764148569301
    H            3.443106572724    -1.194071807526     0.131683116262
    H            2.380769546426     1.452789097674     1.243137153335
    H            2.516345564815    -0.016078155331     2.192447614347
    H            3.952606208361     0.741130553054     1.535454270579

  Mulliken Charges: (a.u.)
   Center  Symbol    Alpha    Beta     Spin     Total
       1     H     0.28119  0.28119  0.00000  0.43762
       2     O     4.37186  4.37186  0.00000 -0.74371
       3     C     2.98951  2.98951  0.00000  0.02099
       4     C     3.15898  3.15898  0.00000 -0.31797
       5     H     0.43300  0.43300  0.00000  0.13400
       6     H     0.43288  0.43288  0.00000  0.13424
       7     C     3.16393  3.16393  0.00000 -0.32787
       8     H     0.41500  0.41500  0.00000  0.17001
       9     H     0.41495  0.41495  0.00000  0.17010
      10     C     3.15251  3.15251  0.00000 -0.30503
      11     H     0.42398  0.42398  0.00000  0.15205
      12     H     0.42096  0.42096  0.00000  0.15809
      13     C     3.15318  3.15318  0.00000 -0.30635
      14     H     0.42056  0.42056  0.00000  0.15887
      15     H     0.42123  0.42123  0.00000  0.15754
      16     C     3.24249  3.24249  0.00000 -0.48497
      17     H     0.42269  0.42269  0.00000  0.15463
      18     H     0.41989  0.41989  0.00000  0.16023
      19     H     0.41976  0.41976  0.00000  0.16049
      20     H     0.42226  0.42226  0.00000  0.15549
      21     H     0.41921  0.41921  0.00000  0.16157

   Total alpha = 29.00000, Total beta = 29.00000, Total charge = -0.00000
