  ==> Input File <==

--------------------------------------------------------------------------
set {
	reference rhf
	basis 6-31G*
}

set_num_threads( 4 )
memory 2 gb

molecule MOL {
0 1

H	 2.736905	 -1.450830	 1.024357
O	 2.826016	 -1.159218	 0.122261
C	 2.077727	 -0.067559	 -0.035091
C	 0.624473	 -0.343591	 0.253101
O	 2.542965	 0.974826	 -0.363729
C	 -0.265902	 0.883932	 0.072916
H	 0.324016	 -1.163849	 -0.390541
H	 0.565024	 -0.726111	 1.268924
C	 -1.728698	 0.646073	 0.462102
H	 -0.209144	 1.219470	 -0.958188
H	 0.135059	 1.692851	 0.673903
C	 -2.482460	 -0.343073	 -0.431425
H	 -2.245265	 1.602650	 0.432430
H	 -1.779332	 0.308348	 1.496285
C	 -3.960546	 -0.461025	 -0.060175
H	 -2.395034	 -0.026811	 -1.468912
H	 -2.024850	 -1.327147	 -0.371646
H	 -4.472726	 -1.168004	 -0.705284
H	 -4.465146	 0.496508	 -0.151489
H	 -4.081218	 -0.800940	 0.964585

	symmetry c1
}
set optking {
	frozen_dihedral = ("
		1 2 3 5
	")
}

ee = optimize('scf')
oeprop('DIPOLE', 'QUADRUPOLE', 'MULLIKEN_CHARGES')
f=open( 'psi4out.xyz', 'w' )
f.write( "20  " )
f.write( str(ee) + "\n" )
f.write( MOL.save_string_xyz() )
f.close()
--------------------------------------------------------------------------

    Molecular point group: c1
  Charge       = 0
  Multiplicity = 1
  Basis Set: 6-31G*
  Basis Set:
  @DF-RHF Final Energy:  -383.92734442919846
    Total Energy =                       -383.9273444291983424
    Molecular point group: c1
  Basis Set: 6-31G*
  Basis Set:
  Basis Set: 6-31G*
  Basis Set:
  @DF-RHF Final Energy:  -383.92883449854992
    Total Energy =                       -383.9288344985499180
  Basis Set: 6-31G*
  Basis Set:
  Basis Set: 6-31G*
  Basis Set:
  @DF-RHF Final Energy:  -383.92877218049426
    Total Energy =                       -383.9287721804940929
  Basis Set: 6-31G*
  Basis Set:
  Basis Set: 6-31G*
  Basis Set:
  @DF-RHF Final Energy:  -383.92896455648497
    Total Energy =                       -383.9289645564849707
  Basis Set: 6-31G*
  Basis Set:
  Basis Set: 6-31G*
  Basis Set:
  @DF-RHF Final Energy:  -383.92898144713229
    Total Energy =                       -383.9289814471321733
  Basis Set: 6-31G*
  Basis Set:
  Basis Set: 6-31G*
  Basis Set:
  @DF-RHF Final Energy:  -383.92897763009182
    Total Energy =                       -383.9289776300918788
  Basis Set: 6-31G*
  Basis Set:
  Basis Set: 6-31G*
  Basis Set:
  @DF-RHF Final Energy:  -383.92898323285158
    Total Energy =                       -383.9289832328519196
  Basis Set: 6-31G*
  Basis Set:
  Charge       = 0
  Multiplicity = 1
  Basis Set: 6-31G*
  Basis Set:

    Orbital Energies (a.u.)
    -----------------------

    Doubly Occupied:

       1A    -20.598516     2A    -20.558818     3A    -11.381038
       4A    -11.246667     5A    -11.226546     6A    -11.223969
       7A    -11.223154     8A    -11.214880     9A     -1.461282
      10A     -1.368880    11A     -1.099012    12A     -1.042006
      13A     -0.959499    14A     -0.865426    15A     -0.820938
      16A     -0.788119    17A     -0.716234    18A     -0.671627
      19A     -0.659233    20A     -0.637062    21A     -0.617745
      22A     -0.591596    23A     -0.562889    24A     -0.550892
      25A     -0.542723    26A     -0.510404    27A     -0.501854
      28A     -0.488205    29A     -0.472375    30A     -0.468361
      31A     -0.461043    32A     -0.442264

  @DF-RHF Final Energy:  -383.92898335596607

   => Energetics <=

    Nuclear Repulsion Energy =            375.3118490150284856
    One-Electron Energy =               -1266.5351498997601993
    Two-Electron Energy =                 507.2943175287657596
    DFT Exchange-Correlation Energy =       0.0000000000000000
    Empirical Dispersion Energy =           0.0000000000000000
    PCM Polarization Energy =               0.0000000000000000
    EFP Energy =                            0.0000000000000000
    Total Energy =                       -383.9289833559660110
    Molecular point group: c1
  Basis Set: 6-31G*
  Basis Set:

  -Total Gradient:
     Atom            X                  Y                   Z
    ------   -----------------  -----------------  -----------------
       1        0.004235000702     0.003378923212     0.001199535228
       2       -0.004930839267    -0.003690710643     0.000557066283
       3       -0.000068649847    -0.001045091355    -0.006374501840
       4       -0.000019536848     0.000005840558    -0.000010970015
       5        0.000764619021     0.001348225957     0.004606607993
       6       -0.000008776639     0.000007062577     0.000005216394
       7        0.000004453532     0.000002756106     0.000005229679
       8        0.000003714892     0.000006024496     0.000016903190
       9        0.000002603596    -0.000004521691    -0.000010174949
      10        0.000002675218     0.000005668710    -0.000009446495
      11        0.000004148117    -0.000004219831     0.000000818108
      12        0.000005586617    -0.000010282833     0.000013949912
      13        0.000001391063    -0.000003007818     0.000000812367
      14        0.000004124695    -0.000003826089    -0.000000895982
      15       -0.000004162474     0.000007439779    -0.000005699987
      16        0.000008665088    -0.000001126080     0.000007004971
      17       -0.000001202131    -0.000002239093     0.000000253247
      18       -0.000002043053     0.000003104745    -0.000002099745
      19       -0.000003012005     0.000001393360     0.000002626578
      20        0.000001239713    -0.000001414068    -0.000002234935

  **** Optimization is complete! (in 8 steps) ****
    Final optimized geometry and variables:
    Molecular point group: c1

    Geometry (in Angstrom), charge = 0, multiplicity = 1:

    H            2.877176946064    -1.442882704477     1.042589501093
    O            2.892854522116    -1.145461768699     0.141587138166
    C            2.085203646082    -0.071715945554    -0.046069725521
    C            0.626672382812    -0.337803940824     0.251942674718
    O            2.521378739832     0.954273168469    -0.430707945132
    C           -0.264182149870     0.890171947981     0.077725296970
    H            0.322271043421    -1.156381405465    -0.392916348475
    H            0.554743574892    -0.722467730400     1.268889231059
    C           -1.728114934082     0.652379944352     0.462624337817
    H           -0.203223732730     1.228955846635    -0.951604193489
    H            0.136549880604     1.696552500791     0.682744555285
    C           -2.481646508266    -0.330394640770    -0.438120764524
    H           -2.242713805976     1.610009638677     0.436832749530
    H           -1.782502701781     0.309604161010     1.495174518802
    C           -3.961540105056    -0.444964277315    -0.073120131464
    H           -2.388917280864    -0.009836979947    -1.473665042173
    H           -2.027646366427    -1.316434877278    -0.381304291522
    H           -4.473439842951    -1.147197573253    -0.723501548940
    H           -4.462432954701     0.514662407470    -0.162208726128
    H           -4.087659678860    -0.789033637994     0.949639908524

  Mulliken Charges: (a.u.)
   Center  Symbol    Alpha    Beta     Spin     Total
       1     H     0.26866  0.26866  0.00000  0.46269
       2     O     4.36486  4.36486  0.00000 -0.72971
       3     C     2.62180  2.62180  0.00000  0.75639
       4     C     3.21998  3.21998  0.00000 -0.43997
       5     O     4.24818  4.24818  0.00000 -0.49635
       6     C     3.15368  3.15368  0.00000 -0.30737
       7     H     0.39494  0.39494  0.00000  0.21013
       8     H     0.41417  0.41417  0.00000  0.17167
       9     C     3.15577  3.15577  0.00000 -0.31155
      10     H     0.40918  0.40918  0.00000  0.18165
      11     H     0.40916  0.40916  0.00000  0.18167
      12     C     3.15483  3.15483  0.00000 -0.30967
      13     H     0.41698  0.41698  0.00000  0.16605
      14     H     0.42491  0.42491  0.00000  0.15018
      15     C     3.23930  3.23930  0.00000 -0.47861
      16     H     0.42029  0.42029  0.00000  0.15942
      17     H     0.42365  0.42365  0.00000  0.15270
      18     H     0.41781  0.41781  0.00000  0.16438
      19     H     0.42014  0.42014  0.00000  0.15972
      20     H     0.42171  0.42171  0.00000  0.15658

   Total alpha = 32.00000, Total beta = 32.00000, Total charge = -0.00000
