                              Psi4 1.0.54 Driver

  ==> Input File <==

--------------------------------------------------------------------------
set {
	reference rhf
	basis cc-pvtz
}

set_num_threads( 4 )
memory 2 gb

molecule MOL {
0 1

H	 -4.029765	 0.243969	 -1.094284
C	 -3.346082	 -0.389238	 -0.567089
C	 -2.105997	 -0.000418	 -0.398703
H	 -3.697443	 -1.328622	 -0.187744
O	 -1.189946	 -0.765863	 0.237511
H	 -1.745479	 0.942611	 -0.767283
C	 0.026572	 -0.995256	 -0.379403
C	 1.057223	 0.049888	 -0.004615
H	 -0.054361	 -1.010670	 -1.459674
H	 0.397526	 -1.952058	 -0.044198
F	 2.203233	 -0.234060	 -0.590375
F	 0.698147	 1.254887	 -0.392621
F	 1.266440	 0.094219	 1.288722

	symmetry c1
}
set optking {
	frozen_dihedral = ("
		6 3 5 7
	")
}

ee,wfn = optimize('scf', return_wfn=True)
oeprop( wfn, 'DIPOLE', 'QUADRUPOLE', 'MULLIKEN_CHARGES')
f=open( 'psi4out.xyz', 'w' )
f.write( "13  " )
f.write( str(ee) + "\n" )
f.write( MOL.save_string_xyz() )
f.close()
--------------------------------------------------------------------------

    Molecular point group: c1
  Charge       = 0
  Multiplicity = 1
  Basis Set: CC-PVTZ
  Basis Set:
  @DF-RHF Final Energy:  -527.74000735786058
    Total Energy =                       -527.7400073578604633
    Molecular point group: c1
  Basis Set: CC-PVTZ
  Basis Set:
  Basis Set: CC-PVTZ
  Basis Set:
  @DF-RHF Final Energy:  -527.74025183249239
    Total Energy =                       -527.7402518324920493
  Basis Set: CC-PVTZ
  Basis Set:
  Basis Set: CC-PVTZ
  Basis Set:
  @DF-RHF Final Energy:  -527.74063386617058
    Total Energy =                       -527.7406338661704694
  Basis Set: CC-PVTZ
  Basis Set:
  Basis Set: CC-PVTZ
  Basis Set:
  @DF-RHF Final Energy:  -527.74066180415821
    Total Energy =                       -527.7406618041577531
  Basis Set: CC-PVTZ
  Basis Set:
  Basis Set: CC-PVTZ
  Basis Set:
  @DF-RHF Final Energy:  -527.74067300284651
    Total Energy =                       -527.7406730028466200
  Basis Set: CC-PVTZ
  Basis Set:
  Basis Set: CC-PVTZ
  Basis Set:
  @DF-RHF Final Energy:  -527.74067522447638
    Total Energy =                       -527.7406752244762629
  Basis Set: CC-PVTZ
  Basis Set:
  Charge       = 0
  Multiplicity = 1
  Basis Set: CC-PVTZ
  Basis Set:

    Orbital Energies (a.u.)
    -----------------------

    Doubly Occupied:

       1A    -26.340988     2A    -26.340395     3A    -26.337094
       4A    -20.597665     5A    -11.496852     6A    -11.316916
       7A    -11.295864     8A    -11.222205     9A     -1.749618
      10A     -1.646281    11A     -1.644468    12A     -1.437136
      13A     -1.086107    14A     -1.021386    15A     -0.931525
      16A     -0.842107    17A     -0.838829    18A     -0.828925
      19A     -0.786552    20A     -0.729970    21A     -0.718915
      22A     -0.707765    23A     -0.681468    24A     -0.665774
      25A     -0.660625    26A     -0.650343    27A     -0.634743
      28A     -0.599741    29A     -0.571172    30A     -0.532737
      31A     -0.485814    32A     -0.370811

  @DF-RHF Final Energy:  -527.74067567539896

   => Energetics <=

    Nuclear Repulsion Energy =            411.7089496075003012
    One-Electron Energy =               -1547.3576619684413345
    Two-Electron Energy =                 607.9080366855422426
    DFT Exchange-Correlation Energy =       0.0000000000000000
    Empirical Dispersion Energy =           0.0000000000000000
    PCM Polarization Energy =               0.0000000000000000
    EFP Energy =                            0.0000000000000000
    Total Energy =                       -527.7406756753988475
    Molecular point group: c1
  Basis Set: CC-PVTZ
  Basis Set:

  -Total Gradient:
     Atom            X                  Y                   Z
    ------   -----------------  -----------------  -----------------
       1       -0.000000130033     0.000004506080    -0.000000756352
       2        0.000016734063    -0.000019688187     0.000004600743
       3        0.000372329424    -0.001710304210    -0.002197654978
       4        0.000013089470     0.000014004479    -0.000001169473
       5        0.000552145657     0.002044473193     0.001236511821
       6       -0.000463258299     0.000875382352     0.001462910710
       7       -0.000492241746    -0.001188780009    -0.000485894189
       8        0.000072011407    -0.000033902309    -0.000013396907
       9        0.000005771099     0.000000650822    -0.000000217337
      10       -0.000001896143     0.000012101774     0.000003892078
      11        0.000015570790    -0.000006208731    -0.000024071245
      12       -0.000049277383    -0.000010246730     0.000021471291
      13       -0.000040848294     0.000018011473    -0.000006226160

  **** Optimization is complete! (in 7 steps) ****
    Final optimized geometry and variables:
    Molecular point group: c1

    Geometry (in Angstrom), charge = 0, multiplicity = 1:

    H           -4.086698876571     0.243991244094    -1.014927994312
    C           -3.365774371586    -0.351348511171    -0.491814960279
    C           -2.118285195301     0.043783168808    -0.428613390917
    H           -3.692202504203    -1.252881433296    -0.011079239809
    O           -1.185353503593    -0.637694057750     0.286796189063
    H           -1.777062664203     0.956580812873    -0.881749160690
    C            0.037329745344    -0.879451092007    -0.324626734536
    C            1.079273022387     0.134589456130     0.097426494459
    H           -0.030392336018    -0.863208383598    -1.404956848752
    H            0.386799978662    -1.852522657574    -0.012075667902
    F            2.226846769138    -0.139453033881    -0.489098942450
    F            0.739644449375     1.360913063393    -0.244508998166
    F            1.278110390857     0.127005200248     1.393403813013

  Mulliken Charges: (a.u.)
   Center  Symbol    Alpha    Beta     Spin     Total
       1     H     0.42448  0.42448  0.00000  0.15104
       2     C     3.18097  3.18097  0.00000 -0.36194
       3     C     2.97937  2.97937  0.00000  0.04126
       4     H     0.42207  0.42207  0.00000  0.15586
       5     O     4.15494  4.15494  0.00000 -0.30987
       6     H     0.42452  0.42452  0.00000  0.15096
       7     C     3.01257  3.01257  0.00000 -0.02515
       8     C     2.67535  2.67535  0.00000  0.64929
       9     H     0.45639  0.45639  0.00000  0.08722
      10     H     0.43777  0.43777  0.00000  0.12446
      11     F     4.61232  4.61232  0.00000 -0.22464
      12     F     4.61245  4.61245  0.00000 -0.22489
      13     F     4.60680  4.60680  0.00000 -0.21360

   Total alpha = 32.00000, Total beta = 32.00000, Total charge = -0.00000

*** Psi4 exiting successfully. Buy a developer a beer!
