  ==> Input File <==

--------------------------------------------------------------------------
set {
	reference rhf
	basis 6-31G*
}

set_num_threads( 1 )
memory 2 gb

molecule MOL {
0 1

H	 -2.374533	 1.139376	 1.659825
C	 -1.702312	 1.412031	 2.470947
O	 -0.399046	 0.999879	 2.212168
H	 -1.690462	 2.488801	 2.568762
H	 -2.083406	 0.979342	 3.395055
C	 -0.254816	 -0.377562	 2.066902
C	 1.171873	 -0.692552	 1.682787
H	 -0.494049	 -0.883588	 3.003065
H	 -0.925260	 -0.758118	 1.298992
O	 1.392611	 -0.295398	 0.366430
H	 1.848156	 -0.176603	 2.361348
H	 1.343072	 -1.764610	 1.788036
C	 2.706965	 -0.449871	 -0.062409
H	 2.756559	 -0.644779	 -1.131878
H	 3.305899	 0.433456	 0.155466
H	 3.125548	 -1.294566	 0.467107

	symmetry c1
}
set optking {
	frozen_dihedral = ("
		3 6 7 11,
		2 3 6 7
	")
}

ee = energy('scf')
oeprop('DIPOLE', 'QUADRUPOLE', 'MULLIKEN_CHARGES')
f=open( 'psi4out.xyz', 'w' )
f.write( "16  " )
f.write( str(ee) + "\n" )
f.write( MOL.save_string_xyz() )
f.close()
--------------------------------------------------------------------------

    Molecular point group: c1

    Geometry (in Angstrom), charge = 0, multiplicity = 1:

       Center              X                  Y                   Z               Mass
    ------------   -----------------  -----------------  -----------------  -----------------
           H         -2.860850482150     1.034037789275     0.207248679958     1.007825032070
           C         -2.188629482150     1.306692789275     1.018370679958    12.000000000000
           O         -0.885363482150     0.894540789275     0.759591679958    15.994914619560
           H         -2.176779482150     2.383462789275     1.116185679958     1.007825032070
           H         -2.569723482150     0.874003789275     1.942478679958     1.007825032070
           C         -0.741133482150    -0.482900210725     0.614325679958    12.000000000000
           C          0.685555517850    -0.797890210725     0.230210679958    12.000000000000
           H         -0.980366482150    -0.988926210725     1.550488679958     1.007825032070
           H         -1.411577482150    -0.863456210725    -0.153584320042     1.007825032070
           O          0.906293517850    -0.400736210725    -1.086146320042    15.994914619560
           H          1.361838517850    -0.281941210725     0.908771679958     1.007825032070
           H          0.856754517850    -1.869948210725     0.335459679958     1.007825032070
           C          2.220647517850    -0.555209210725    -1.514985320042    12.000000000000
           H          2.270241517850    -0.750117210725    -2.584454320042     1.007825032070
           H          2.819581517850     0.328117789275    -1.297110320042     1.007825032070
           H          2.639230517850    -1.399904210725    -0.985469320042     1.007825032070

  Charge       = 0
  Multiplicity = 1
  Basis Set: 6-31G*
  Basis Set:

    Orbital Energies (a.u.)
    -----------------------

    Doubly Occupied:

       1A    -20.553543     2A    -20.551173     3A    -11.269716
       4A    -11.268701     5A    -11.263484     6A    -11.263476
       7A     -1.387917     8A     -1.370270     9A     -1.030498
      10A     -0.935307    11A     -0.892507    12A     -0.825027
      13A     -0.683625    14A     -0.680288    15A     -0.657803
      16A     -0.634176    17A     -0.628688    18A     -0.598811
      19A     -0.551296    20A     -0.537440    21A     -0.508300
      22A     -0.476806    23A     -0.462488    24A     -0.418288
      25A     -0.409052

  @DF-RHF Final Energy:  -306.97460409327238

   => Energetics <=

    Nuclear Repulsion Energy =            258.9066875720922667
    One-Electron Energy =                -932.0451235798866492
    Two-Electron Energy =                 366.1638319145216656
    DFT Exchange-Correlation Energy =       0.0000000000000000
    Empirical Dispersion Energy =           0.0000000000000000
    PCM Polarization Energy =               0.0000000000000000
    EFP Energy =                            0.0000000000000000
    Total Energy =                       -306.9746040932726601

  Mulliken Charges: (a.u.)
   Center  Symbol    Alpha    Beta     Spin     Total
       1     H     0.42803  0.42803  0.00000  0.14394
       2     C     3.07953  3.07953  0.00000 -0.15906
       3     O     4.30081  4.30081  0.00000 -0.60162
       4     H     0.41128  0.41128  0.00000  0.17744
       5     H     0.43192  0.43192  0.00000  0.13615
       6     C     2.99305  2.99305  0.00000  0.01391
       7     C     2.99508  2.99508  0.00000  0.00984
       8     H     0.43232  0.43232  0.00000  0.13537
       9     H     0.42263  0.42263  0.00000  0.15474
      10     O     4.30255  4.30255  0.00000 -0.60509
      11     H     0.42241  0.42241  0.00000  0.15518
      12     H     0.43153  0.43153  0.00000  0.13694
      13     C     3.07632  3.07632  0.00000 -0.15264
      14     H     0.41522  0.41522  0.00000  0.16956
      15     H     0.42447  0.42447  0.00000  0.15106
      16     H     0.43286  0.43286  0.00000  0.13428

   Total alpha = 25.00000, Total beta = 25.00000, Total charge =  0.00000
