                              Psi4 1.0.54 Driver

  ==> Input File <==

--------------------------------------------------------------------------
set {
	reference rhf
	basis cc-pvtz
}

set_num_threads( 4 )
memory 2 gb

molecule MOL {
0 1

O	 3.219313	 0.959291	 -0.614106
C	 2.698710	 0.058177	 -0.050237
C	 1.246364	 -0.005813	 0.348416
O	 3.344101	 -1.038700	 0.312317
C	 0.453207	 1.232821	 -0.049003
H	 0.839270	 -0.907818	 -0.092281
H	 1.216683	 -0.160521	 1.422434
C	 -0.998367	 1.217982	 0.432195
H	 0.481498	 1.345443	 -1.127236
H	 0.951413	 2.105557	 0.354893
C	 -1.882951	 0.151251	 -0.211235
H	 -1.429490	 2.193659	 0.228843
H	 -1.019755	 1.099323	 1.513279
C	 -3.342450	 0.243269	 0.226009
H	 -1.826223	 0.246578	 -1.293162
H	 -1.508033	 -0.839650	 0.027695
C	 -4.049730	 -1.108207	 0.271191
H	 -3.878557	 0.904999	 -0.450041
H	 -3.394478	 0.706872	 1.208470
C	 -5.507714	 -1.007844	 0.707066
H	 -3.998749	 -1.572581	 -0.709869
H	 -3.516726	 -1.769901	 0.948631
H	 -5.979631	 -1.983452	 0.728679
H	 -6.076558	 -0.380502	 0.028857
H	 -5.590705	 -0.578457	 1.700015
C	 4.720529	 -1.114346	 0.001449
H	 4.874321	 -1.055557	 -1.065852
H	 5.057824	 -2.067950	 0.373977
H	 5.264321	 -0.313596	 0.480350

	symmetry c1
}
set optking {
	frozen_dihedral = ("
		17 14 11 15
	")
}

ee,wfn = optimize('scf', return_wfn=True)
oeprop( wfn, 'DIPOLE', 'QUADRUPOLE', 'MULLIKEN_CHARGES')
f=open( 'psi4out.xyz', 'w' )
f.write( "29  " )
f.write( str(ee) + "\n" )
f.write( MOL.save_string_xyz() )
f.close()
--------------------------------------------------------------------------

    Molecular point group: c1
  Charge       = 0
  Multiplicity = 1
  Basis Set: CC-PVTZ
  Basis Set:
  @DF-RHF Final Energy:  -501.22195426526002
    Total Energy =                       -501.2219542652605924
    Molecular point group: c1
  Basis Set: CC-PVTZ
  Basis Set:
  Basis Set: CC-PVTZ
  Basis Set:
  @DF-RHF Final Energy:  -501.22050952769234
    Total Energy =                       -501.2205095276930251
  Basis Set: CC-PVTZ
  Basis Set:
  Basis Set: CC-PVTZ
  Basis Set:
  @DF-RHF Final Energy:  -501.22218115253202
    Total Energy =                       -501.2221811525316753
  Basis Set: CC-PVTZ
  Basis Set:
  Basis Set: CC-PVTZ
  Basis Set:
  @DF-RHF Final Energy:  -501.22221080194674
    Total Energy =                       -501.2222108019470852
  Basis Set: CC-PVTZ
  Basis Set:
  Basis Set: CC-PVTZ
  Basis Set:
  @DF-RHF Final Energy:  -501.22220992929340
    Total Energy =                       -501.2222099292928306
  Basis Set: CC-PVTZ
  Basis Set:
  Basis Set: CC-PVTZ
  Basis Set:
  @DF-RHF Final Energy:  -501.22220486217589
    Total Energy =                       -501.2222048621759996
  Basis Set: CC-PVTZ
  Basis Set:
  Basis Set: CC-PVTZ
  Basis Set:
  @DF-RHF Final Energy:  -501.22223428341465
    Total Energy =                       -501.2222342834139681
  Basis Set: CC-PVTZ
  Basis Set:
  Charge       = 0
  Multiplicity = 1
  Basis Set: CC-PVTZ
  Basis Set:

    Orbital Energies (a.u.)
    -----------------------

    Doubly Occupied:

       1A    -20.595977     2A    -20.533834     3A    -11.364248
       4A    -11.278240     5A    -11.232963     6A    -11.216854
       7A    -11.215586     8A    -11.214324     9A    -11.213737
      10A    -11.212283    11A    -11.207154    12A     -1.471855
      13A     -1.365443    14A     -1.098851    15A     -1.067555
      16A     -1.020521    17A     -0.977752    18A     -0.928743
      19A     -0.862605    20A     -0.800784    21A     -0.790751
      22A     -0.765640    23A     -0.702641    24A     -0.685419
      25A     -0.676024    26A     -0.647574    27A     -0.630703
      28A     -0.608471    29A     -0.595503    30A     -0.581900
      31A     -0.566906    32A     -0.552259    33A     -0.534459
      34A     -0.529234    35A     -0.519606    36A     -0.510637
      37A     -0.496785    38A     -0.477871    39A     -0.472795
      40A     -0.460699    41A     -0.459909    42A     -0.457601
      43A     -0.443404    44A     -0.436820

  @DF-RHF Final Energy:  -501.22223447456565

   => Energetics <=

    Nuclear Repulsion Energy =            611.7445991482103409
    One-Electron Energy =               -1894.9678328736822550
    Two-Electron Energy =                 782.0009992509058065
    DFT Exchange-Correlation Energy =       0.0000000000000000
    Empirical Dispersion Energy =           0.0000000000000000
    PCM Polarization Energy =               0.0000000000000000
    EFP Energy =                            0.0000000000000000
    Total Energy =                       -501.2222344745659939
    Molecular point group: c1
  Basis Set: CC-PVTZ
  Basis Set:

  -Total Gradient:
     Atom            X                  Y                   Z
    ------   -----------------  -----------------  -----------------
       1        0.000041480489     0.000035876717    -0.000003974321
       2       -0.000056786676    -0.000020777480    -0.000045740156
       3        0.000002711652     0.000010644448     0.000012972669
       4       -0.000003668163    -0.000025665817     0.000034960061
       5        0.000017501056     0.000003567177    -0.000001154699
       6       -0.000007640157    -0.000006070914    -0.000002819398
       7       -0.000004515738    -0.000001277930     0.000021152655
       8        0.000028450248    -0.000053764397    -0.000088264446
       9       -0.000003339005    -0.000005374157    -0.000011884200
      10        0.000016137003     0.000013251958     0.000004781347
      11        0.000022550801    -0.005132949100     0.001505209305
      12       -0.000005713342     0.000017781950    -0.000009563600
      13       -0.000026151042    -0.000032136136     0.000003002698
      14       -0.001112765252     0.000912872337    -0.004262808743
      15        0.000348682510     0.004192211681    -0.000159175669
      16        0.000088454646    -0.000023040528    -0.000001846675
      17        0.000767745092     0.000124326001     0.002945450824
      18       -0.000065636196     0.000023820534     0.000019143994
      19       -0.000051647612    -0.000039553396    -0.000001985916
      20       -0.000035306729    -0.000021985185     0.000065343546
      21        0.000041042937     0.000015224842    -0.000057813899
      22        0.000040380411    -0.000034489092     0.000032496397
      23       -0.000010348460    -0.000006733822     0.000017816280
      24       -0.000020476969     0.000013051818    -0.000038633212
      25       -0.000029902406     0.000025856726     0.000033282817
      26        0.000000394676     0.000020803452    -0.000011195453
      27        0.000003243663    -0.000003915073    -0.000012847630
      28        0.000000921726    -0.000010681868     0.000007649507
      29        0.000014200845     0.000009125255     0.000006445916

  **** Optimization is complete! (in 8 steps) ****
    Final optimized geometry and variables:
    Molecular point group: c1

    Geometry (in Angstrom), charge = 0, multiplicity = 1:

    O            3.151422199138     1.021992532439    -0.875284031612
    C            2.671729976901     0.181849408743    -0.193311655533
    C            1.224889810507     0.110024139025     0.223685401197
    O            3.364812951349    -0.829922295112     0.303860981466
    C            0.378388751381     1.252739043222    -0.323120088524
    H            0.854359727269    -0.857406272131    -0.093404107046
    H            1.205646023625     0.094182324142     1.308939554042
    C           -1.068562331659     1.238935515928     0.170577286460
    H            0.397094777116     1.224954401610    -1.407119843175
    H            0.840693676291     2.190751065588    -0.041025497618
    C           -1.906997217202     0.052071139900    -0.307955086848
    H           -1.546716946325     2.155649677836    -0.162603524503
    H           -1.081232536678     1.271750707099     1.257772838769
    C           -3.386413222559     0.180862344387     0.078631122149
    H           -1.819832756283     0.002028889994    -1.390013321966
    H           -1.505189514130    -0.873064098258     0.090840645381
    C           -4.084864803138    -1.160027982663     0.289083879727
    H           -3.913210091867     0.758285222321    -0.675393887762
    H           -3.465921559828     0.750667463661     1.001350744904
    C           -5.562788097096    -1.019551777782     0.637432067505
    H           -3.982227954103    -1.767982044877    -0.606466133714
    H           -3.576450061499    -1.700626592136     1.082597120284
    H           -6.023473127751    -1.987971331826     0.795519551115
    H           -6.106678410218    -0.520612337520    -0.157813970208
    H           -5.697553710772    -0.437506685303     1.543321902517
    C            4.742001432735    -0.888049527150    -0.007561708564
    H            4.888898983776    -0.963523075261    -1.074804553506
    H            5.121263197857    -1.769553721821     0.483431615542
    H            5.253026922318    -0.009310782934     0.357105842010

  Mulliken Charges: (a.u.)
   Center  Symbol    Alpha    Beta     Spin     Total
       1     O     4.19700  4.19700  0.00000 -0.39401
       2     C     2.80511  2.80511  0.00000  0.38978
       3     C     3.10129  3.10129  0.00000 -0.20259
       4     O     4.14723  4.14723  0.00000 -0.29446
       5     C     3.09287  3.09287  0.00000 -0.18575
       6     H     0.43898  0.43898  0.00000  0.12203
       7     H     0.43986  0.43986  0.00000  0.12029
       8     C     3.10332  3.10332  0.00000 -0.20663
       9     H     0.44630  0.44630  0.00000  0.10740
      10     H     0.43958  0.43958  0.00000  0.12085
      11     C     3.09560  3.09560  0.00000 -0.19121
      12     H     0.44479  0.44479  0.00000  0.11043
      13     H     0.45434  0.45434  0.00000  0.09133
      14     C     3.08784  3.08784  0.00000 -0.17568
      15     H     0.45178  0.45178  0.00000  0.09644
      16     H     0.45320  0.45320  0.00000  0.09360
      17     C     3.08396  3.08396  0.00000 -0.16792
      18     H     0.45110  0.45110  0.00000  0.09781
      19     H     0.45570  0.45570  0.00000  0.08860
      20     C     3.15035  3.15035  0.00000 -0.30069
      21     H     0.45404  0.45404  0.00000  0.09191
      22     H     0.45536  0.45536  0.00000  0.08929
      23     H     0.44845  0.44845  0.00000  0.10310
      24     H     0.45481  0.45481  0.00000  0.09037
      25     H     0.45515  0.45515  0.00000  0.08971
      26     C     3.03814  3.03814  0.00000 -0.07629
      27     H     0.45435  0.45435  0.00000  0.09129
      28     H     0.44528  0.44528  0.00000  0.10945
      29     H     0.45422  0.45422  0.00000  0.09155

   Total alpha = 44.00000, Total beta = 44.00000, Total charge =  0.00000

*** Psi4 exiting successfully. Buy a developer a beer!
