                              Psi4 1.0.54 Driver

  ==> Input File <==

--------------------------------------------------------------------------
set {
	reference rhf
	basis cc-pvtz
}

set_num_threads( 4 )
memory 2 gb

molecule MOL {
0 1

O	 1.847685	 1.294399	 -0.000190
C	 1.704209	 0.119472	 -0.000093
C	 0.380337	 -0.600947	 -0.000234
O	 2.715427	 -0.733672	 0.000025
C	 -0.824290	 0.329213	 -0.000115
H	 0.371455	 -1.255476	 -0.865660
H	 0.371410	 -1.255787	 0.864952
C	 -2.146151	 -0.432825	 -0.000068
H	 -0.773936	 0.979158	 -0.866319
H	 -0.773838	 0.979034	 0.866186
C	 -3.366283	 0.483552	 0.000557
H	 -2.189286	 -1.084450	 -0.869996
H	 -2.188867	 -1.085083	 0.869399
C	 -3.929050	 0.730816	 1.396109
H	 -4.139109	 0.050890	 -0.628491
H	 -3.100653	 1.433462	 -0.454713
H	 -4.236226	 -0.198224	 1.864897
H	 -4.793182	 1.384078	 1.360614
H	 -3.189691	 1.195642	 2.039940
C	 4.020999	 -0.192556	 0.000019
H	 4.182809	 0.412891	 -0.879449
H	 4.692590	 -1.035653	 0.000152
H	 4.182726	 0.413087	 0.879368

	symmetry c1
}
set optking {
	frozen_dihedral = ("
		15 11 8 12
	")
}

ee,wfn = optimize('scf', return_wfn=True)
oeprop( wfn, 'DIPOLE', 'QUADRUPOLE', 'MULLIKEN_CHARGES')
f=open( 'psi4out.xyz', 'w' )
f.write( "23  " )
f.write( str(ee) + "\n" )
f.write( MOL.save_string_xyz() )
f.close()
--------------------------------------------------------------------------

    Molecular point group: c1
  Charge       = 0
  Multiplicity = 1
  Basis Set: CC-PVTZ
  Basis Set:
  @DF-RHF Final Energy:  -423.12697548478019
    Total Energy =                       -423.1269754847796776
    Molecular point group: c1
  Basis Set: CC-PVTZ
  Basis Set:
  Basis Set: CC-PVTZ
  Basis Set:
  @DF-RHF Final Energy:  -423.12721887913921
    Total Energy =                       -423.1272188791390363
  Basis Set: CC-PVTZ
  Basis Set:
  Basis Set: CC-PVTZ
  Basis Set:
  @DF-RHF Final Energy:  -423.12730593287074
    Total Energy =                       -423.1273059328703994
  Basis Set: CC-PVTZ
  Basis Set:
  Basis Set: CC-PVTZ
  Basis Set:
  @DF-RHF Final Energy:  -423.12720935289093
    Total Energy =                       -423.1272093528908727
  Basis Set: CC-PVTZ
  Basis Set:
  Basis Set: CC-PVTZ
  Basis Set:
  @DF-RHF Final Energy:  -423.12730861742483
    Total Energy =                       -423.1273086174246600
  Basis Set: CC-PVTZ
  Basis Set:
  Charge       = 0
  Multiplicity = 1
  Basis Set: CC-PVTZ
  Basis Set:

    Orbital Energies (a.u.)
    -----------------------

    Doubly Occupied:

       1A    -20.596370     2A    -20.534197     3A    -11.364652
       4A    -11.278520     5A    -11.233712     6A    -11.217559
       7A    -11.215612     8A    -11.214317     9A    -11.207611
      10A     -1.472257    11A     -1.365848    12A     -1.093806
      13A     -1.043297    14A     -0.987127    15A     -0.932160
      16A     -0.850473    17A     -0.791191    18A     -0.769688
      19A     -0.698985    20A     -0.686578    21A     -0.676017
      22A     -0.643271    23A     -0.615884    24A     -0.598389
      25A     -0.585892    26A     -0.564329    27A     -0.536841
      28A     -0.530841    29A     -0.523147    30A     -0.506408
      31A     -0.495337    32A     -0.467851    33A     -0.463183
      34A     -0.461632    35A     -0.456053    36A     -0.438461

  @DF-RHF Final Energy:  -423.12730875972261

   => Energetics <=

    Nuclear Repulsion Energy =            456.0381622418741472
    One-Electron Energy =               -1480.0959489221747845
    Two-Electron Energy =                 600.9304779205779141
    DFT Exchange-Correlation Energy =       0.0000000000000000
    Empirical Dispersion Energy =           0.0000000000000000
    PCM Polarization Energy =               0.0000000000000000
    EFP Energy =                            0.0000000000000000
    Total Energy =                       -423.1273087597226095
    Molecular point group: c1
  Basis Set: CC-PVTZ
  Basis Set:

  -Total Gradient:
     Atom            X                  Y                   Z
    ------   -----------------  -----------------  -----------------
       1       -0.000031232417     0.000016486529    -0.000010872345
       2        0.000010241070     0.000010246333     0.000012064866
       3        0.000009940203    -0.000002764975     0.000023742520
       4        0.000009752104    -0.000038801403     0.000004164619
       5        0.000006116861     0.000015391084    -0.000026340193
       6        0.000002391245     0.000005403184    -0.000007595024
       7        0.000005460039    -0.000001357678    -0.000010477906
       8        0.002241557952     0.003275128161    -0.002901138857
       9       -0.000003708340    -0.000004146061     0.000005139834
      10       -0.000008324885    -0.000003805008    -0.000000142734
      11       -0.001758162057    -0.002650096203     0.003760000989
      12       -0.001597415233    -0.002316444453     0.001835309161
      13        0.000000166906     0.000003453696    -0.000001845366
      14       -0.000003019717     0.000003343116     0.000020628750
      15        0.001115897467     0.001692394462    -0.002688809938
      16        0.000001401356    -0.000003193216     0.000006389124
      17        0.000003618149     0.000003378593    -0.000007536887
      18        0.000003937370    -0.000002503944    -0.000002645879
      19       -0.000003796331    -0.000003880426    -0.000007753814
      20       -0.000001773319     0.000010461586    -0.000002217491
      21        0.000001818789    -0.000002357383     0.000002439488
      22       -0.000006054342    -0.000003642793    -0.000000017173
      23        0.000001187136    -0.000002693199    -0.000002485745

  **** Optimization is complete! (in 6 steps) ****
    Final optimized geometry and variables:
    Molecular point group: c1

    Geometry (in Angstrom), charge = 0, multiplicity = 1:

    O            1.743825458034     1.194219062627    -0.199571753419
    C            1.613127025581     0.018016636073    -0.174750722201
    C            0.297086031194    -0.716293107698    -0.158650429648
    O            2.633495629164    -0.823990456772    -0.156875699316
    C           -0.916961301806     0.200820440540    -0.183994535291
    H            0.296055287586    -1.392525062071    -1.007336653591
    H            0.293786389351    -1.349053012928     0.722798594809
    C           -2.231066666729    -0.574968221091    -0.177284809402
    H           -0.870132618271     0.832127771206    -1.063762016821
    H           -0.876444737815     0.869898068226     0.668018890740
    C           -3.476315665771     0.323969033799    -0.124540063405
    H           -2.282800229094    -1.225147409549    -1.045559400039
    H           -2.244931447414    -1.246329769794     0.678703712285
    C           -3.982979996734     0.591303298844     1.288938930010
    H           -4.267722718234    -0.111358451886    -0.725120227633
    H           -3.246881027302     1.271842778427    -0.603592076117
    H           -4.297683916865    -0.328556380269     1.770183978723
    H           -4.830008722274     1.267642768945     1.280438110055
    H           -3.211363415387     1.039064466428     1.906146130642
    C            3.933131839585    -0.269053824119    -0.168306505485
    H            4.088645265560     0.319608196815    -1.060226606104
    H            4.613721340396    -1.104734874980    -0.150673281368
    H            4.088376998884     0.356483041893     0.698201152088

  Mulliken Charges: (a.u.)
   Center  Symbol    Alpha    Beta     Spin     Total
       1     O     4.19706  4.19706  0.00000 -0.39412
       2     C     2.80611  2.80611  0.00000  0.38778
       3     C     3.10270  3.10270  0.00000 -0.20539
       4     O     4.14645  4.14645  0.00000 -0.29291
       5     C     3.08369  3.08369  0.00000 -0.16738
       6     H     0.43972  0.43972  0.00000  0.12056
       7     H     0.43958  0.43958  0.00000  0.12083
       8     C     3.09817  3.09817  0.00000 -0.19633
       9     H     0.44594  0.44594  0.00000  0.10812
      10     H     0.44557  0.44557  0.00000  0.10887
      11     C     3.09100  3.09100  0.00000 -0.18199
      12     H     0.44792  0.44792  0.00000  0.10417
      13     H     0.45733  0.45733  0.00000  0.08533
      14     C     3.14733  3.14733  0.00000 -0.29465
      15     H     0.44769  0.44769  0.00000  0.10461
      16     H     0.45410  0.45410  0.00000  0.09180
      17     H     0.45553  0.45553  0.00000  0.08894
      18     H     0.44816  0.44816  0.00000  0.10367
      19     H     0.45420  0.45420  0.00000  0.09161
      20     C     3.03774  3.03774  0.00000 -0.07548
      21     H     0.45434  0.45434  0.00000  0.09131
      22     H     0.44533  0.44533  0.00000  0.10934
      23     H     0.45435  0.45435  0.00000  0.09130

   Total alpha = 36.00000, Total beta = 36.00000, Total charge = -0.00000

*** Psi4 exiting successfully. Buy a developer a beer!
