  ==> Input File <==

--------------------------------------------------------------------------
set {
	reference rhf
	basis 6-31G*
}

set_num_threads( 4 )
memory 2 gb

molecule MOL {
0 1

O	 1.743241	 0.431600	 -0.965176
C	 1.122059	 0.121804	 -0.000188
C	 -0.170150	 -0.657997	 -0.000612
O	 1.496287	 0.431159	 1.234813
C	 -1.412532	 0.227344	 -0.000452
H	 -0.153702	 -1.313099	 -0.867402
H	 -0.153924	 -1.313811	 0.865644
C	 -2.706999	 -0.587347	 -0.000541
H	 -1.388000	 0.879466	 -0.868000
H	 -1.387972	 0.879138	 0.867341
C	 -3.956778	 0.291888	 0.000910
H	 -2.726114	 -1.239230	 -0.871609
H	 -2.725217	 -1.240844	 0.869333
H	 -3.985213	 0.933254	 -0.875158
H	 -4.860123	 -0.309979	 0.000519
H	 -3.984618	 0.931166	 0.878514
C	 2.698331	 1.166012	 1.377023
H	 3.532796	 0.611621	 0.972293
H	 2.828463	 1.316607	 2.437370
H	 2.624450	 2.117274	 0.869924

	symmetry c1
}
set optking {
	frozen_dihedral = ("
		1 2 3 6
	")
}

ee = optimize('scf')
oeprop('DIPOLE', 'QUADRUPOLE', 'MULLIKEN_CHARGES')
f=open( 'psi4out.xyz', 'w' )
f.write( "20  " )
f.write( str(ee) + "\n" )
f.write( MOL.save_string_xyz() )
f.close()
--------------------------------------------------------------------------

    Molecular point group: c1
  Charge       = 0
  Multiplicity = 1
  Basis Set: 6-31G*
  Basis Set:
  @DF-RHF Final Energy:  -383.93956333411342
    Total Energy =                       -383.9395633341134726
    Molecular point group: c1
  Basis Set: 6-31G*
  Basis Set:
  Basis Set: 6-31G*
  Basis Set:
  @DF-RHF Final Energy:  -383.93898377333079
    Total Energy =                       -383.9389837733308468
  Basis Set: 6-31G*
  Basis Set:
  Basis Set: 6-31G*
  Basis Set:
  @DF-RHF Final Energy:  -383.94007635161273
    Total Energy =                       -383.9400763516126744
  Basis Set: 6-31G*
  Basis Set:
  Basis Set: 6-31G*
  Basis Set:
  @DF-RHF Final Energy:  -383.94021338108098
    Total Energy =                       -383.9402133810809801
  Basis Set: 6-31G*
  Basis Set:
  Basis Set: 6-31G*
  Basis Set:
  @DF-RHF Final Energy:  -383.94021458803689
    Total Energy =                       -383.9402145880371791
  Basis Set: 6-31G*
  Basis Set:
  Basis Set: 6-31G*
  Basis Set:
  @DF-RHF Final Energy:  -383.94021561927383
    Total Energy =                       -383.9402156192738857
  Basis Set: 6-31G*
  Basis Set:
  Charge       = 0
  Multiplicity = 1
  Basis Set: 6-31G*
  Basis Set:

    Orbital Energies (a.u.)
    -----------------------

    Doubly Occupied:

       1A    -20.604561     2A    -20.542708     3A    -11.370667
       4A    -11.280550     5A    -11.233653     6A    -11.230059
       7A    -11.224423     8A    -11.214425     9A     -1.468595
      10A     -1.361001    11A     -1.092850    12A     -1.025171
      13A     -0.967803    14A     -0.889814    15A     -0.807241
      16A     -0.773455    17A     -0.694015    18A     -0.679610
      19A     -0.673236    20A     -0.647152    21A     -0.598556
      22A     -0.591841    23A     -0.574399    24A     -0.553695
      25A     -0.534059    26A     -0.519913    27A     -0.511393
      28A     -0.483151    29A     -0.479760    30A     -0.475884
      31A     -0.453439    32A     -0.429765

  @DF-RHF Final Energy:  -383.94021589821602

   => Energetics <=

    Nuclear Repulsion Energy =            383.1069328829963752
    One-Electron Energy =               -1282.1206130346477039
    Two-Electron Energy =                 515.0734642534350769
    DFT Exchange-Correlation Energy =       0.0000000000000000
    Empirical Dispersion Energy =           0.0000000000000000
    PCM Polarization Energy =               0.0000000000000000
    EFP Energy =                            0.0000000000000000
    Total Energy =                       -383.9402158982162518
    Molecular point group: c1
  Basis Set: 6-31G*
  Basis Set:

  -Total Gradient:
     Atom            X                  Y                   Z
    ------   -----------------  -----------------  -----------------
       1       -0.000238050809     0.000385331790     0.000013395472
       2        0.000376460338    -0.000627319109     0.000037267309
       3       -0.000336949078     0.000529797763    -0.000264975864
       4       -0.000010629552     0.000028060087    -0.000016418848
       5       -0.000019558943     0.000000975698     0.000012717747
       6        0.000191390111    -0.000309247412     0.000207457895
       7       -0.000002250578     0.000004918826    -0.000003952539
       8        0.000014104756    -0.000000225766     0.000008500497
       9        0.000005284885    -0.000011326193    -0.000002670781
      10       -0.000007892825     0.000000061723     0.000007802058
      11        0.000002411636     0.000009184521    -0.000005427336
      12        0.000011046880     0.000001284166     0.000002002415
      13        0.000008564517     0.000003529917     0.000000116615
      14       -0.000003048644     0.000004198484    -0.000000321366
      15        0.000001711832    -0.000000248334    -0.000002377469
      16       -0.000001774554    -0.000000445681     0.000000875435
      17        0.000020130395    -0.000036543476     0.000005133312
      18        0.000002933000     0.000009573306     0.000003641268
      19       -0.000002585249     0.000006741448     0.000001256302
      20       -0.000011298125     0.000001698242    -0.000004022121

  **** Optimization is complete! (in 7 steps) ****
    Final optimized geometry and variables:
    Molecular point group: c1

    Geometry (in Angstrom), charge = 0, multiplicity = 1:

    O            1.812433887417     0.254656155987    -1.183191159133
    C            1.236407383487    -0.103208316258    -0.206101073193
    C           -0.038226385272    -0.908499991160    -0.207092139875
    O            1.629446201334     0.205894260569     1.022850505699
    C           -1.268124842649     0.012146768290    -0.199584842078
    H           -0.035006357197    -1.522791798237    -1.098967204376
    H           -0.053430846675    -1.555635694127     0.662030781557
    C           -2.581303372044    -0.770917300067    -0.226749456104
    H           -1.219588963792     0.673696499613    -1.060327350685
    H           -1.238200376477     0.642030162482     0.685670199731
    C           -3.809943255631     0.137623979492    -0.223707276988
    H           -2.602871874984    -1.405934885411    -1.109397416313
    H           -2.621275363689    -1.436977901123     0.632220174771
    H           -3.814517469805     0.793465034650    -1.089420671783
    H           -4.726254828460    -0.443696674998    -0.244008602657
    H           -3.833662005803     0.762195771007     0.664648673785
    C            2.790078261809     1.008280928252     1.142502913196
    H            3.642219645127     0.510708331885     0.702520665763
    H            2.944124322124     1.148860724288     2.201030986138
    H            2.644633566986     1.961505908107     0.654890306452

  Mulliken Charges: (a.u.)
   Center  Symbol    Alpha    Beta     Spin     Total
       1     O     4.28552  4.28552  0.00000 -0.57103
       2     C     2.61715  2.61715  0.00000  0.76571
       3     C     3.19355  3.19355  0.00000 -0.38710
       4     O     4.30285  4.30285  0.00000 -0.60571
       5     C     3.16500  3.16500  0.00000 -0.33001
       6     H     0.40034  0.40034  0.00000  0.19932
       7     H     0.40400  0.40400  0.00000  0.19200
       8     C     3.15283  3.15283  0.00000 -0.30565
       9     H     0.40942  0.40942  0.00000  0.18115
      10     H     0.41230  0.41230  0.00000  0.17540
      11     C     3.24035  3.24035  0.00000 -0.48070
      12     H     0.41970  0.41970  0.00000  0.16060
      13     H     0.42075  0.42075  0.00000  0.15851
      14     H     0.41943  0.41943  0.00000  0.16114
      15     H     0.41735  0.41735  0.00000  0.16530
      16     H     0.42037  0.42037  0.00000  0.15925
      17     C     3.09274  3.09274  0.00000 -0.18548
      18     H     0.40846  0.40846  0.00000  0.18309
      19     H     0.40877  0.40877  0.00000  0.18245
      20     H     0.40911  0.40911  0.00000  0.18177

   Total alpha = 32.00000, Total beta = 32.00000, Total charge = -0.00000
