                              Psi4 1.0.54 Driver

  ==> Input File <==

--------------------------------------------------------------------------
set {
	reference rhf
	basis cc-pvtz
}

set_num_threads( 4 )
memory 2 gb

molecule MOL {
0 1

H	 -3.268214	 -0.875720	 0.463107
C	 -2.806015	 0.000007	 0.024886
N	 -1.391133	 0.000016	 0.301321
H	 -3.029448	 0.000055	 -1.045738
H	 -3.268126	 0.875758	 0.463150
C	 -0.850907	 -1.338119	 0.406800
C	 -1.059104	 0.782966	 1.471910
H	 -1.309375	 -1.889301	 1.233151
H	 -1.069499	 -1.877551	 -0.507156
C	 0.651356	 -1.295301	 0.615093
H	 -1.429679	 1.792007	 1.335531
H	 -1.531761	 0.376374	 2.370869
C	 0.443159	 0.825784	 1.680203
H	 1.021931	 -2.304343	 0.751472
H	 1.124012	 -0.888710	 -0.283866
N	 0.983384	 -0.512352	 1.785682
H	 0.661750	 1.365216	 2.594159
H	 0.901627	 1.376965	 0.853852
C	 2.398266	 -0.512343	 2.062117
H	 2.748955	 -1.528218	 2.194703
H	 2.595857	 0.030994	 2.977707
H	 2.987015	 -0.053184	 1.262926

	symmetry c1
}
set optking {
	frozen_dihedral = ("
		6 3 2 4
	")
}

ee,wfn = optimize('scf', return_wfn=True)
oeprop( wfn, 'DIPOLE', 'QUADRUPOLE', 'MULLIKEN_CHARGES')
f=open( 'psi4out.xyz', 'w' )
f.write( "22  " )
f.write( str(ee) + "\n" )
f.write( MOL.save_string_xyz() )
f.close()
--------------------------------------------------------------------------

    Molecular point group: c1
  Charge       = 0
  Multiplicity = 1
  Basis Set: CC-PVTZ
  Basis Set:
  @DF-RHF Final Energy:  -344.34650385467631
    Total Energy =                       -344.3465038546763708
    Molecular point group: c1
  Basis Set: CC-PVTZ
  Basis Set:
  Basis Set: CC-PVTZ
  Basis Set:
  @DF-RHF Final Energy:  -344.34721562741225
    Total Energy =                       -344.3472156274121971
  Basis Set: CC-PVTZ
  Basis Set:
  Basis Set: CC-PVTZ
  Basis Set:
  @DF-RHF Final Energy:  -344.34730903605822
    Total Energy =                       -344.3473090360587321
  Basis Set: CC-PVTZ
  Basis Set:
  Basis Set: CC-PVTZ
  Basis Set:
  @DF-RHF Final Energy:  -344.34731236789651
    Total Energy =                       -344.3473123678962793
  Basis Set: CC-PVTZ
  Basis Set:
  Charge       = 0
  Multiplicity = 1
  Basis Set: CC-PVTZ
  Basis Set:

    Orbital Energies (a.u.)
    -----------------------

    Doubly Occupied:

       1A    -15.537361     2A    -15.537272     3A    -11.237388
       4A    -11.237296     5A    -11.236643     6A    -11.236605
       7A    -11.234098     8A    -11.233902     9A     -1.256401
      10A     -1.205129    11A     -1.025275    12A     -0.992453
      13A     -0.912407    14A     -0.867250    15A     -0.836644
      16A     -0.756054    17A     -0.666508    18A     -0.636853
      19A     -0.631036    20A     -0.625717    21A     -0.622862
      22A     -0.582283    23A     -0.549763    24A     -0.548684
      25A     -0.541602    26A     -0.520024    27A     -0.497046
      28A     -0.488659    29A     -0.464732    30A     -0.456480
      31A     -0.352516    32A     -0.347954

  @DF-RHF Final Energy:  -344.34731229993139

   => Energetics <=

    Nuclear Repulsion Energy =            421.7648479520805154
    One-Electron Energy =               -1302.4745305311571428
    Two-Electron Energy =                 536.3623702791453525
    DFT Exchange-Correlation Energy =       0.0000000000000000
    Empirical Dispersion Energy =           0.0000000000000000
    PCM Polarization Energy =               0.0000000000000000
    EFP Energy =                            0.0000000000000000
    Total Energy =                       -344.3473122999312181
    Molecular point group: c1
  Basis Set: CC-PVTZ
  Basis Set:

  -Total Gradient:
     Atom            X                  Y                   Z
    ------   -----------------  -----------------  -----------------
       1       -0.000067158230     0.000023568101    -0.000020120476
       2       -0.000274284856    -0.006485274567     0.001474822195
       3        0.001079964352     0.001458466601    -0.005362292230
       4        0.000025135576     0.005066898290     0.000035826039
       5       -0.000028916551    -0.000007794153    -0.000005035993
       6       -0.000732135834     0.000097178889     0.003851794631
       7        0.000002451344    -0.000167189632    -0.000025806915
       8       -0.000027114751    -0.000001454384     0.000014212289
       9       -0.000004305926     0.000015327233     0.000006375006
      10        0.000024287410    -0.000007626130    -0.000012000610
      11        0.000008625552    -0.000015984057    -0.000005369333
      12       -0.000009220735     0.000003473395     0.000022631148
      13        0.000025968038     0.000028914627     0.000013449014
      14        0.000005486776     0.000001087216     0.000007094927
      15       -0.000000284002    -0.000001992061    -0.000000503010
      16       -0.000030633009    -0.000001415669    -0.000000570093
      17        0.000009308755    -0.000004290965     0.000005027806
      18       -0.000006896255    -0.000001966198    -0.000000403354
      19       -0.000004196757     0.000001068118     0.000001985851
      20        0.000002705950     0.000000286076    -0.000000493666
      21        0.000001928659    -0.000000703321    -0.000000803998
      22       -0.000000715505    -0.000000577409     0.000000180775

  **** Optimization is complete! (in 5 steps) ****
    Final optimized geometry and variables:
    Molecular point group: c1

    Geometry (in Angstrom), charge = 0, multiplicity = 1:

    H           -3.136439978604    -0.556469776581    -0.557059325993
    C           -2.612915638387     0.284421309064    -1.010477432166
    N           -1.189951091622     0.281167963025    -0.734982143337
    H           -2.794965641599     0.287332674074    -2.079179408412
    H           -3.059867164582     1.191991759166    -0.624190440605
    C           -0.661847239915    -1.063830332239    -0.635509012785
    C           -0.844342545508     1.036451943641     0.453269914045
    H           -1.120409865397    -1.606672612926     0.195549482412
    H           -0.897472849736    -1.602549480856    -1.546452852661
    C            0.842657096011    -1.042946049359    -0.443472611669
    H           -1.203854126647     2.051848139945     0.340985210864
    H           -1.311098045861     0.616270636863     1.348930614043
    C            0.660254319611     1.065472059739     0.648932275744
    H            1.201290537371    -2.058195516871    -0.320372314668
    H            1.311457774312    -0.634111189793    -1.343463057059
    N            1.194944432650    -0.276132823281     0.731407896843
    H            0.890183039288     1.591763012363     1.567969845468
    H            1.113431318665     1.625677289135    -0.174437375513
    C            2.612796737581    -0.287304180486     0.990269555252
    H            2.959499210543    -1.306750903282     1.105497817448
    H            2.824852731784     0.243216030248     1.910229248660
    H            3.194464550325     0.178792235556     0.189782823854

  Mulliken Charges: (a.u.)
   Center  Symbol    Alpha    Beta     Spin     Total
       1     H     0.46557  0.46557  0.00000  0.06885
       2     C     3.09638  3.09638  0.00000 -0.19276
       3     N     3.61595  3.61595  0.00000 -0.23190
       4     H     0.44936  0.44936  0.00000  0.10127
       5     H     0.45642  0.45642  0.00000  0.08716
       6     C     3.03657  3.03657  0.00000 -0.07314
       7     C     3.03396  3.03396  0.00000 -0.06792
       8     H     0.46709  0.46709  0.00000  0.06582
       9     H     0.45347  0.45347  0.00000  0.09306
      10     C     3.03646  3.03646  0.00000 -0.07292
      11     H     0.45386  0.45386  0.00000  0.09227
      12     H     0.46868  0.46868  0.00000  0.06264
      13     C     3.03660  3.03660  0.00000 -0.07320
      14     H     0.45391  0.45391  0.00000  0.09217
      15     H     0.46810  0.46810  0.00000  0.06381
      16     N     3.61284  3.61284  0.00000 -0.22568
      17     H     0.45393  0.45393  0.00000  0.09214
      18     H     0.46834  0.46834  0.00000  0.06332
      19     C     3.09850  3.09850  0.00000 -0.19701
      20     H     0.45199  0.45199  0.00000  0.09602
      21     H     0.45200  0.45200  0.00000  0.09600
      22     H     0.47000  0.47000  0.00000  0.06001

   Total alpha = 32.00000, Total beta = 32.00000, Total charge = -0.00000

*** Psi4 exiting successfully. Buy a developer a beer!
