                              Psi4 1.0.54 Driver

  ==> Input File <==

--------------------------------------------------------------------------
set {
	reference rhf
	basis cc-pvtz
}

set_num_threads( 4 )
memory 2 gb

molecule MOL {
0 1

H	 -2.618062	 0.292963	 0.758926
O	 -2.041679	 -0.058866	 0.103463
C	 -0.959304	 0.780994	 -0.094939
C	 0.354905	 0.037902	 -0.006215
H	 -0.985899	 1.279578	 -1.057596
H	 -0.969809	 1.529522	 0.682889
F	 0.412060	 -0.931028	 -0.902708
F	 1.359641	 0.856111	 -0.239961
F	 0.545380	 -0.506387	 1.171682

	symmetry c1
}
set optking {
	frozen_dihedral = ("
		1 2 3 5
	")
}

ee,wfn = optimize('scf', return_wfn=True)
oeprop( wfn, 'DIPOLE', 'QUADRUPOLE', 'MULLIKEN_CHARGES')
f=open( 'psi4out.xyz', 'w' )
f.write( "9  " )
f.write( str(ee) + "\n" )
f.write( MOL.save_string_xyz() )
f.close()
--------------------------------------------------------------------------

    Molecular point group: c1
  Charge       = 0
  Multiplicity = 1
  Basis Set: CC-PVTZ
  Basis Set:
  @DF-RHF Final Energy:  -450.84318156296149
    Total Energy =                       -450.8431815629612629
    Molecular point group: c1
  Basis Set: CC-PVTZ
  Basis Set:
  Basis Set: CC-PVTZ
  Basis Set:
  @DF-RHF Final Energy:  -450.82359428013751
    Total Energy =                       -450.8235942801376268
  Basis Set: CC-PVTZ
  Basis Set:
  Basis Set: CC-PVTZ
  Basis Set:
  @DF-RHF Final Energy:  -450.84428547397175
    Total Energy =                       -450.8442854739715244
  Basis Set: CC-PVTZ
  Basis Set:
  Basis Set: CC-PVTZ
  Basis Set:
  @DF-RHF Final Energy:  -450.84452894943263
    Total Energy =                       -450.8445289494330837
  Basis Set: CC-PVTZ
  Basis Set:
  Basis Set: CC-PVTZ
  Basis Set:
  @DF-RHF Final Energy:  -450.84453863255408
    Total Energy =                       -450.8445386325541335
  Basis Set: CC-PVTZ
  Basis Set:
  Charge       = 0
  Multiplicity = 1
  Basis Set: CC-PVTZ
  Basis Set:

    Orbital Energies (a.u.)
    -----------------------

    Doubly Occupied:

       1A    -26.333967     2A    -26.331275     3A    -26.330206
       4A    -20.582431     5A    -11.489674     6A    -11.310262
       7A     -1.741987     8A     -1.638444     9A     -1.636976
      10A     -1.405845    11A     -1.050295    12A     -0.924319
      13A     -0.833005    14A     -0.831534    15A     -0.792060
      16A     -0.742114    17A     -0.713499    18A     -0.703832
      19A     -0.670212    20A     -0.658290    21A     -0.642851
      22A     -0.639340    23A     -0.600955    24A     -0.534368
      25A     -0.482997

  @DF-RHF Final Energy:  -450.84454071098384

   => Energetics <=

    Nuclear Repulsion Energy =            277.5662642377540692
    One-Electron Energy =               -1177.5801326012813206
    Two-Electron Energy =                 449.1693276525433021
    DFT Exchange-Correlation Energy =       0.0000000000000000
    Empirical Dispersion Energy =           0.0000000000000000
    PCM Polarization Energy =               0.0000000000000000
    EFP Energy =                            0.0000000000000000
    Total Energy =                       -450.8445407109840062
    Molecular point group: c1
  Basis Set: CC-PVTZ
  Basis Set:

  -Total Gradient:
     Atom            X                  Y                   Z
    ------   -----------------  -----------------  -----------------
       1       -0.000478419624     0.000400620613    -0.000253476276
       2        0.000518040555    -0.000331714736     0.000463650377
       3        0.000310674141    -0.000387476160    -0.000567248785
       4        0.000149762202     0.000052645643     0.000182054256
       5       -0.000320724499     0.000297659778     0.000371087690
       6       -0.000056732132    -0.000024811367     0.000023901983
       7       -0.000045128661    -0.000116458660    -0.000163616934
       8        0.000029547735     0.000082709801    -0.000016880375
       9       -0.000107019721     0.000026825087    -0.000039471936

  **** Optimization is complete! (in 6 steps) ****
    Final optimized geometry and variables:
    Molecular point group: c1

    Geometry (in Angstrom), charge = 0, multiplicity = 1:

    H           -2.489143305996    -0.280396463328     1.065321084599
    O           -1.963428028338    -0.345141084002     0.291060789071
    C           -1.013503817354     0.665926943218     0.250573179404
    C            0.341555704230     0.073180180590    -0.057920741001
    H           -1.243398335352     1.385567455023    -0.525491718152
    H           -0.921997089890     1.192504831094     1.192209442164
    F            0.349075973063    -0.574950388356    -1.198931780399
    F            1.239261662351     1.037163309088    -0.138307918130
    F            0.736026215475    -0.760366321224     0.878626745839

  Mulliken Charges: (a.u.)
   Center  Symbol    Alpha    Beta     Spin     Total
       1     H     0.38618  0.38618  0.00000  0.22763
       2     O     4.19057  4.19057  0.00000 -0.38113
       3     C     2.98901  2.98901  0.00000  0.02199
       4     C     2.67671  2.67671  0.00000  0.64659
       5     H     0.46004  0.46004  0.00000  0.07991
       6     H     0.46346  0.46346  0.00000  0.07308
       7     F     4.60807  4.60807  0.00000 -0.21613
       8     F     4.61460  4.61460  0.00000 -0.22919
       9     F     4.61137  4.61137  0.00000 -0.22274

   Total alpha = 25.00000, Total beta = 25.00000, Total charge =  0.00000

*** Psi4 exiting successfully. Buy a developer a beer!
