  ==> Input File <==

--------------------------------------------------------------------------
set {
	reference rhf
	basis 6-31G*
}

set_num_threads( 4 )
memory 2 gb

molecule MOL {
0 1

O	 1.846825	 1.296220	 0.000415
C	 1.705091	 0.115954	 0.001797
C	 0.381791	 -0.609817	 0.001258
O	 2.721346	 -0.737485	 -0.000216
C	 -0.823008	 0.326187	 0.001381
H	 0.371250	 -1.265087	 -0.865474
H	 0.370908	 -1.265746	 0.867490
C	 -2.149452	 -0.435131	 -0.000098
H	 -0.770201	 0.977095	 -0.865636
H	 -0.771220	 0.975655	 0.869608
C	 -3.368779	 0.488503	 -0.000883
H	 -2.193746	 -1.087250	 -0.871175
H	 -2.195311	 -1.087803	 0.870418
C	 -3.140986	 1.776538	 -0.791028
H	 -3.632814	 0.735730	 1.024936
H	 -4.222136	 -0.043599	 -0.415355
H	 -2.314647	 2.348792	 -0.378833
H	 -4.022634	 2.409647	 -0.773124
H	 -2.908183	 1.563216	 -1.830550
C	 4.024888	 -0.184556	 -0.001949
H	 4.179030	 0.422472	 -0.882452
H	 4.701782	 -1.024608	 -0.003642
H	 4.181981	 0.421185	 0.878906

	symmetry c1
}
set optking {
	frozen_dihedral = ("
		15 11 8 12
	")
}

ee = optimize('scf')
oeprop('DIPOLE', 'QUADRUPOLE', 'MULLIKEN_CHARGES')
f=open( 'psi4out.xyz', 'w' )
f.write( "23  " )
f.write( str(ee) + "\n" )
f.write( MOL.save_string_xyz() )
f.close()
--------------------------------------------------------------------------

    Molecular point group: c1
  Charge       = 0
  Multiplicity = 1
  Basis Set: 6-31G*
  Basis Set:
  @DF-RHF Final Energy:  -422.96923251428524
    Total Energy =                       -422.9692325142850677
    Molecular point group: c1
  Basis Set: 6-31G*
  Basis Set:
  Basis Set: 6-31G*
  Basis Set:
  @DF-RHF Final Energy:  -422.97036571079957
    Total Energy =                       -422.9703657107993422
  Basis Set: 6-31G*
  Basis Set:
  Basis Set: 6-31G*
  Basis Set:
  @DF-RHF Final Energy:  -422.97171122718595
    Total Energy =                       -422.9717112271860060
  Basis Set: 6-31G*
  Basis Set:
  Basis Set: 6-31G*
  Basis Set:
  @DF-RHF Final Energy:  -422.97064977925447
    Total Energy =                       -422.9706497792544724
  Basis Set: 6-31G*
  Basis Set:
  @DF-RHF Final Energy:  -422.97188500452063
    Total Energy =                       -422.9718850045203453
  Basis Set: 6-31G*
  Basis Set:
  @DF-RHF Final Energy:  -422.97190655462799
    Total Energy =                       -422.9719065546273669
  Basis Set: 6-31G*
  Basis Set:
  Basis Set: 6-31G*
  Basis Set:
  @DF-RHF Final Energy:  -422.97191087852707
    Total Energy =                       -422.9719108785266144
  Basis Set: 6-31G*
  Basis Set:
  Basis Set: 6-31G*
  Basis Set:
  @DF-RHF Final Energy:  -422.97191388739844
    Total Energy =                       -422.9719138873983866
  Basis Set: 6-31G*
  Basis Set:
  Charge       = 0
  Multiplicity = 1
  Basis Set: 6-31G*
  Basis Set:

    Orbital Energies (a.u.)
    -----------------------

    Doubly Occupied:

       1A    -20.603630     2A    -20.545432     3A    -11.372235
       4A    -11.280849     5A    -11.235491     6A    -11.219041
       7A    -11.218010     8A    -11.216696     9A    -11.207763
      10A     -1.469317    11A     -1.362760    12A     -1.092317
      13A     -1.041101    14A     -0.984958    15A     -0.931358
      16A     -0.859309    17A     -0.780311    18A     -0.766197
      19A     -0.696613    20A     -0.683478    21A     -0.672213
      22A     -0.645584    23A     -0.609934    24A     -0.598330
      25A     -0.590681    26A     -0.558525    27A     -0.535962
      28A     -0.525050    29A     -0.519161    30A     -0.517195
      31A     -0.492381    32A     -0.463152    33A     -0.461688
      34A     -0.458633    35A     -0.453318    36A     -0.435558

  @DF-RHF Final Energy:  -422.97191396148793

   => Energetics <=

    Nuclear Repulsion Energy =            457.8491371774036338
    One-Electron Energy =               -1483.4336397621007109
    Two-Electron Energy =                 602.6125886232097173
    DFT Exchange-Correlation Energy =       0.0000000000000000
    Empirical Dispersion Energy =           0.0000000000000000
    PCM Polarization Energy =               0.0000000000000000
    EFP Energy =                            0.0000000000000000
    Total Energy =                       -422.9719139614873029
    Molecular point group: c1
  Basis Set: 6-31G*
  Basis Set:

  -Total Gradient:
     Atom            X                  Y                   Z
    ------   -----------------  -----------------  -----------------
       1       -0.000002138859     0.000008750370     0.000010772239
       2        0.000001894617    -0.000003732260    -0.000021298349
       3       -0.000001777023    -0.000001611579     0.000007386453
       4        0.000009973155    -0.000005320394     0.000004988964
       5       -0.000000039062    -0.000006491571    -0.000000336946
       6       -0.000000406820     0.000001551122     0.000003527310
       7       -0.000000041416    -0.000000624991     0.000002320329
       8        0.002350380962     0.003703670148    -0.003604523154
       9        0.000001190880    -0.000000463643    -0.000002366852
      10       -0.000003545757    -0.000002278009    -0.000005836069
      11        0.003279343890     0.004622893770     0.000341456817
      12       -0.002487171120    -0.003845073315     0.002980077109
      13        0.000008266600    -0.000007576318    -0.000006156113
      14       -0.000012912741     0.000002621305    -0.000003000373
      15       -0.003136243345    -0.004474978262     0.000286223262
      16       -0.000002242252     0.000005276643     0.000005636238
      17        0.000003341696    -0.000002778103     0.000000639142
      18       -0.000002800305     0.000004776563    -0.000002504550
      19       -0.000001780299     0.000001682721     0.000002919708
      20       -0.000000689477     0.000001368393    -0.000000739790
      21       -0.000000228060    -0.000000343079     0.000000109481
      22       -0.000002131173    -0.000001220063     0.000000281476
      23       -0.000000244098    -0.000000099455     0.000000423669

  **** Optimization is complete! (in 9 steps) ****
    Final optimized geometry and variables:
    Molecular point group: c1

    Geometry (in Angstrom), charge = 0, multiplicity = 1:

    O            1.729118675721     1.039729125045     0.077002546054
    C            1.560176182938    -0.136845563952     0.094597136622
    C            0.220617838448    -0.832163831617     0.083192904875
    O            2.556244672483    -1.013119810575     0.127628122192
    C           -0.961629654119     0.131883874463     0.050571274019
    H            0.208016696655    -1.498465739394    -0.775200521448
    H            0.181381847089    -1.476088143040     0.957420347120
    C           -2.298088225170    -0.610434057800     0.026688340951
    H           -0.866600058192     0.775861294770    -0.815844790910
    H           -0.915380174906     0.782730321442     0.918697402586
    C           -3.554232882337     0.274569828522     0.119814950923
    H           -2.367194079617    -1.246771555008    -0.853839068011
    H           -2.324030592491    -1.304352204748     0.865655582319
    C           -3.525180182309     1.563618517967    -0.700519692949
    H           -3.766959556233     0.491534370606     1.163863457418
    H           -4.400223139516    -0.323701525707    -0.211609733632
    H           -2.768358936965     2.255220920967    -0.346921864495
    H           -4.483536819788     2.070364012511    -0.644456387746
    H           -3.323015665411     1.358052477811    -1.748296650235
    C            3.872072939298    -0.490222310452     0.141485104354
    H            4.057154692234     0.096787025256    -0.746591503803
    H            4.529207146760    -1.345460992577     0.168091863839
    H            4.026254907974     0.127823859514     1.014275080000

  Mulliken Charges: (a.u.)
   Center  Symbol    Alpha    Beta     Spin     Total
       1     O     4.28623  4.28623  0.00000 -0.57246
       2     C     2.60503  2.60503  0.00000  0.78995
       3     C     3.20800  3.20800  0.00000 -0.41600
       4     O     4.30724  4.30724  0.00000 -0.61449
       5     C     3.15483  3.15483  0.00000 -0.30966
       6     H     0.40059  0.40059  0.00000  0.19883
       7     H     0.40065  0.40065  0.00000  0.19870
       8     C     3.15651  3.15651  0.00000 -0.31302
       9     H     0.40864  0.40864  0.00000  0.18272
      10     H     0.41223  0.41223  0.00000  0.17554
      11     C     3.15217  3.15217  0.00000 -0.30434
      12     H     0.42301  0.42301  0.00000  0.15399
      13     H     0.42307  0.42307  0.00000  0.15386
      14     C     3.24361  3.24361  0.00000 -0.48721
      15     H     0.42138  0.42138  0.00000  0.15724
      16     H     0.42127  0.42127  0.00000  0.15747
      17     H     0.41585  0.41585  0.00000  0.16829
      18     H     0.41884  0.41884  0.00000  0.16233
      19     H     0.42185  0.42185  0.00000  0.15631
      20     C     3.09244  3.09244  0.00000 -0.18488
      21     H     0.40908  0.40908  0.00000  0.18184
      22     H     0.40842  0.40842  0.00000  0.18316
      23     H     0.40908  0.40908  0.00000  0.18184

   Total alpha = 36.00000, Total beta = 36.00000, Total charge =  0.00000
