                              Psi4 1.0.54 Driver

  ==> Input File <==

--------------------------------------------------------------------------
set {
	reference rhf
	basis cc-pvtz
}

set_num_threads( 4 )
memory 2 gb

molecule MOL {
0 1

O	 -1.278239	 1.034789	 -0.784693
C	 -1.204115	 0.062668	 -0.112312
C	 -2.386398	 -0.667698	 0.460323
O	 -0.068058	 -0.518372	 0.226882
H	 -2.382952	 -1.693172	 0.114333
H	 -3.296656	 -0.175702	 0.158400
H	 -2.312537	 -0.685191	 1.540100
C	 1.169086	 0.037484	 -0.230612
C	 2.151627	 -0.115912	 0.913152
C	 0.962525	 1.482919	 -0.646133
H	 1.497399	 -0.539991	 -1.081389
H	 2.266156	 -1.158207	 1.181956
H	 3.121069	 0.271737	 0.623978
H	 1.811856	 0.427330	 1.786868
H	 1.900899	 1.909061	 -0.981328
H	 0.251600	 1.551350	 -1.457645
H	 0.599911	 2.070368	 0.189749

	symmetry c1
}
set optking {
	frozen_dihedral = ("
		11 8 4 2
	")
}

ee,wfn = optimize('scf', return_wfn=True)
oeprop( wfn, 'DIPOLE', 'QUADRUPOLE', 'MULLIKEN_CHARGES')
f=open( 'psi4out.xyz', 'w' )
f.write( "17  " )
f.write( str(ee) + "\n" )
f.write( MOL.save_string_xyz() )
f.close()
--------------------------------------------------------------------------

    Molecular point group: c1
  Charge       = 0
  Multiplicity = 1
  Basis Set: CC-PVTZ
  Basis Set:
  @DF-RHF Final Energy:  -345.00355456429247
    Total Energy =                       -345.0035545642923580
    Molecular point group: c1
  Basis Set: CC-PVTZ
  Basis Set:
  Basis Set: CC-PVTZ
  Basis Set:
  @DF-RHF Final Energy:  -345.02629072040480
    Total Energy =                       -345.0262907204048588
  Basis Set: CC-PVTZ
  Basis Set:
  Basis Set: CC-PVTZ
  Basis Set:
  @DF-RHF Final Energy:  -345.03077071497285
    Total Energy =                       -345.0307707149726753
  Basis Set: CC-PVTZ
  Basis Set:
  Basis Set: CC-PVTZ
  Basis Set:
  @DF-RHF Final Energy:  -345.02477600352682
    Total Energy =                       -345.0247760035263695
  Basis Set: CC-PVTZ
  Basis Set:
  @DF-RHF Final Energy:  -345.03251386677101
    Total Energy =                       -345.0325138667708984
  @DF-RHF Final Energy:  -345.03273993980548
    Total Energy =                       -345.0327399398057082
  @DF-RHF Final Energy:  -345.03314814089612
    Total Energy =                       -345.0331481408964009
  @DF-RHF Final Energy:  -345.03316027930100
    Total Energy =                       -345.0331602793012280
  @DF-RHF Final Energy:  -345.03316429913934
    Total Energy =                       -345.0331642991390027
  @DF-RHF Final Energy:  -345.03316557248172
    Total Energy =                       -345.0331655724819484
  Basis Set: CC-PVTZ
  Basis Set:
  @DF-RHF Final Energy:  -345.03315980165075
    Total Energy =                       -345.0331598016507542
  Basis Set: CC-PVTZ
  Basis Set:
  Basis Set: CC-PVTZ
  Basis Set:
  @DF-RHF Final Energy:  -345.03316499390093
    Total Energy =                       -345.0331649939013232
  Basis Set: CC-PVTZ
  Basis Set:
  Basis Set: CC-PVTZ
  Basis Set:
  @DF-RHF Final Energy:  -345.03316701945766
    Total Energy =                       -345.0331670194580624
  Basis Set: CC-PVTZ
  Basis Set:
  Charge       = 0
  Multiplicity = 1
  Basis Set: CC-PVTZ
  Basis Set:

    Orbital Energies (a.u.)
    -----------------------

    Doubly Occupied:

       1A    -20.588693     2A    -20.528348     3A    -11.366934
       4A    -11.295301     5A    -11.228226     6A    -11.217815
       7A    -11.211328     8A     -1.462406     9A     -1.364193
      10A     -1.081256    11A     -1.003373    12A     -0.946752
      13A     -0.861940    14A     -0.747475    15A     -0.691026
      16A     -0.681924    17A     -0.659360    18A     -0.614861
      19A     -0.586901    20A     -0.579831    21A     -0.555942
      22A     -0.547141    23A     -0.543332    24A     -0.517382
      25A     -0.504667    26A     -0.486806    27A     -0.444806
      28A     -0.431299

  @DF-RHF Final Energy:  -345.03316729019321

   => Energetics <=

    Nuclear Repulsion Energy =            324.0381710367369124
    One-Electron Energy =               -1112.6440305619832998
    Two-Electron Energy =                 443.5726922350532391
    DFT Exchange-Correlation Energy =       0.0000000000000000
    Empirical Dispersion Energy =           0.0000000000000000
    PCM Polarization Energy =               0.0000000000000000
    EFP Energy =                            0.0000000000000000
    Total Energy =                       -345.0331672901931483
    Molecular point group: c1
  Basis Set: CC-PVTZ
  Basis Set:

  -Total Gradient:
     Atom            X                  Y                   Z
    ------   -----------------  -----------------  -----------------
       1       -0.000016975445     0.000026753399    -0.000021788750
       2       -0.000070052780     0.002967978733     0.003641456962
       3        0.000002205422     0.000029500248     0.000015807403
       4        0.000748884750    -0.005094942296    -0.005019358162
       5        0.000007052724    -0.000025962181    -0.000013044516
       6       -0.000014432100     0.000002438809    -0.000004448242
       7        0.000001531670     0.000000308887     0.000009958967
       8       -0.003643618522     0.004288988432    -0.001636208928
       9        0.000002710542     0.000024304486     0.000001907130
      10       -0.000032776848     0.000003007627     0.000043187204
      11        0.002997582182    -0.002223389467     0.003006732148
      12       -0.000000797634     0.000002543529    -0.000005766437
      13       -0.000004730888    -0.000000298158     0.000001735941
      14        0.000003775441    -0.000000560954    -0.000000555984
      15        0.000015276893     0.000001585672     0.000001247022
      16       -0.000000851506     0.000002219114    -0.000009335306
      17        0.000005216094    -0.000004475877    -0.000011526451

  **** Optimization is complete! (in 14 steps) ****
    Final optimized geometry and variables:
    Molecular point group: c1

    Geometry (in Angstrom), charge = 0, multiplicity = 1:

    O           -1.579732039996     0.329109311272    -0.818751951375
    C           -1.129766203713    -0.379707031051     0.014603639900
    C           -1.967128246591    -1.191201877103     0.966704277302
    O            0.154126568287    -0.593947469087     0.230613297097
    H           -1.699370080401    -2.236746363221     0.889136861028
    H           -3.011074593327    -1.054794083662     0.735362672199
    H           -1.767509735241    -0.875810875343     1.982961467037
    C            1.254263662423     0.131898962076    -0.342172348910
    C            2.317150917064     0.130460700804     0.745411423200
    C            0.955616676481     1.540794102667    -0.825735414320
    H            1.619601053508    -0.480749550572    -1.157392730255
    H            2.498935923276    -0.876426199006     1.097236836164
    H            3.245755974087     0.533325577926     0.359688223514
    H            2.003048383029     0.736175214245     1.587567467739
    H            1.900728444353     2.003735466611    -1.086056202762
    H            0.309534756541     1.556999801624    -1.685666340725
    H            0.497349307315     2.132165034585    -0.042324724696

  Mulliken Charges: (a.u.)
   Center  Symbol    Alpha    Beta     Spin     Total
       1     O     4.19832  4.19832  0.00000 -0.39664
       2     C     2.80861  2.80861  0.00000  0.38278
       3     C     3.13694  3.13694  0.00000 -0.27388
       4     O     4.16135  4.16135  0.00000 -0.32270
       5     H     0.44524  0.44524  0.00000  0.10953
       6     H     0.43883  0.43883  0.00000  0.12234
       7     H     0.44772  0.44772  0.00000  0.10456
       8     C     2.93413  2.93413  0.00000  0.13175
       9     C     3.13777  3.13777  0.00000 -0.27555
      10     C     3.15858  3.15858  0.00000 -0.31715
      11     H     0.44845  0.44845  0.00000  0.10310
      12     H     0.44569  0.44569  0.00000  0.10862
      13     H     0.45500  0.45500  0.00000  0.09000
      14     H     0.45407  0.45407  0.00000  0.09187
      15     H     0.45146  0.45146  0.00000  0.09709
      16     H     0.42846  0.42846  0.00000  0.14307
      17     H     0.44939  0.44939  0.00000  0.10123

   Total alpha = 28.00000, Total beta = 28.00000, Total charge = -0.00000

*** Psi4 exiting successfully. Buy a developer a beer!
