  ==> Input File <==

--------------------------------------------------------------------------
set {
	reference rhf
	basis 6-31G*
}

set_num_threads( 4 )
memory 2 gb

molecule MOL {
0 1

H	 -3.161837	 0.500524	 -0.000234
C	 -2.367097	 -0.232926	 -0.000000
O	 -1.158440	 0.455814	 -0.000122
H	 -2.468853	 -0.861886	 -0.882833
H	 -2.468942	 -0.861421	 0.883154
C	 -0.029776	 -0.365156	 0.000148
C	 1.212217	 0.508981	 0.000007
H	 -0.036772	 -1.013236	 -0.877259
H	 -0.036869	 -1.012778	 0.877897
C	 1.040276	 1.768798	 0.847461
H	 2.047219	 -0.079284	 0.367943
H	 1.445187	 0.776013	 -1.026209
H	 0.830267	 1.523200	 1.884766
H	 1.940632	 2.373667	 0.829099
H	 0.223392	 2.384342	 0.481115

	symmetry c1
}
set optking {
	frozen_dihedral = ("
		11 7 6 8
	")
}

ee = optimize('scf')
oeprop('DIPOLE', 'QUADRUPOLE', 'MULLIKEN_CHARGES')
f=open( 'psi4out.xyz', 'w' )
f.write( "15  " )
f.write( str(ee) + "\n" )
f.write( MOL.save_string_xyz() )
f.close()
--------------------------------------------------------------------------

    Molecular point group: c1
  Charge       = 0
  Multiplicity = 1
  Basis Set: 6-31G*
  Basis Set:
  @DF-RHF Final Energy:  -232.13605016197306
    Total Energy =                       -232.1360501619730030
    Molecular point group: c1
  Basis Set: 6-31G*
  Basis Set:
  Basis Set: 6-31G*
  Basis Set:
  @DF-RHF Final Energy:  -232.13655372491590
    Total Energy =                       -232.1365537249158137
  Basis Set: 6-31G*
  Basis Set:
  Basis Set: 6-31G*
  Basis Set:
  @DF-RHF Final Energy:  -232.13696893485493
    Total Energy =                       -232.1369689348548491
  Basis Set: 6-31G*
  Basis Set:
  Basis Set: 6-31G*
  Basis Set:
  @DF-RHF Final Energy:  -232.13697817592291
    Total Energy =                       -232.1369781759227635
  Basis Set: 6-31G*
  Basis Set:
  Basis Set: 6-31G*
  Basis Set:
  @DF-RHF Final Energy:  -232.13698173207675
    Total Energy =                       -232.1369817320766629
  Basis Set: 6-31G*
  Basis Set:
  Charge       = 0
  Multiplicity = 1
  Basis Set: 6-31G*
  Basis Set:

    Orbital Energies (a.u.)
    -----------------------

    Doubly Occupied:

       1A    -20.553306     2A    -11.267222     3A    -11.264400
       4A    -11.215517     5A    -11.200899     6A     -1.378163
       7A     -1.051628     8A     -0.948368     9A     -0.888048
      10A     -0.794996    11A     -0.672962    12A     -0.657714
      13A     -0.633526    14A     -0.598864    15A     -0.555470
      16A     -0.544800    17A     -0.502017    18A     -0.482820
      19A     -0.474823    20A     -0.458204    21A     -0.412936

  @DF-RHF Final Energy:  -232.13698209922768

   => Energetics <=

    Nuclear Repulsion Energy =            193.4715214975176423
    One-Electron Energy =                -698.1036429644935879
    Two-Electron Energy =                 272.4951393677482656
    DFT Exchange-Correlation Energy =       0.0000000000000000
    Empirical Dispersion Energy =           0.0000000000000000
    PCM Polarization Energy =               0.0000000000000000
    EFP Energy =                            0.0000000000000000
    Total Energy =                       -232.1369820992276800
    Molecular point group: c1
  Basis Set: 6-31G*
  Basis Set:

  -Total Gradient:
     Atom            X                  Y                   Z
    ------   -----------------  -----------------  -----------------
       1        0.000013166709     0.000007529952    -0.000000920200
       2        0.000003003513    -0.000014801324     0.000006658225
       3        0.000020068789     0.000019887241    -0.000001930829
       4        0.000006543742     0.000003581048    -0.000001886608
       5        0.000001069977     0.000000513352     0.000001165857
       6        0.003303587609    -0.004499127315     0.004810057216
       7        0.000598694304    -0.001163954291    -0.007115584104
       8       -0.002867658900     0.003909517736    -0.002943289122
       9        0.000004597119    -0.000011403022    -0.000000711174
      10        0.000005547353    -0.000011922585     0.000013857327
      11       -0.001088899182     0.001753418794     0.005235669507
      12        0.000008794768     0.000000849897    -0.000008531527
      13       -0.000000914189     0.000007311869     0.000008484774
      14       -0.000005376978     0.000004016698     0.000001894752
      15       -0.000002224634    -0.000005418050    -0.000004934092

  **** Optimization is complete! (in 6 steps) ****
    Final optimized geometry and variables:
    Molecular point group: c1

    Geometry (in Angstrom), charge = 0, multiplicity = 1:

    H           -2.892588465350     0.027395442566    -0.216290559027
    C           -2.081555116580    -0.687426414625    -0.184774780721
    O           -0.888763257995     0.027265814408    -0.190065330899
    H           -2.158002065685    -1.344264280736    -1.049815249721
    H           -2.180746393485    -1.292332366876     0.715098727974
    C            0.257896702999    -0.773618945229    -0.146139945962
    C            1.501631962106     0.110168100518    -0.187211084515
    H            0.244431763369    -1.435650662619    -1.011299032494
    H            0.248693126294    -1.382446503065     0.757276569728
    C            1.388311045421     1.356273463337     0.693925269973
    H            2.338378362179    -0.479379369135     0.179695000237
    H            1.716559671634     0.400657231503    -1.210326172245
    H            1.169348240170     1.087525724668     1.723496060822
    H            2.322721834010     1.909284395680     0.686653537594
    H            0.600453802676     2.012230450465     0.348771807197

  Mulliken Charges: (a.u.)
   Center  Symbol    Alpha    Beta     Spin     Total
       1     H     0.41229  0.41229  0.00000  0.17542
       2     C     3.07876  3.07876  0.00000 -0.15752
       3     O     4.30468  4.30468  0.00000 -0.60935
       4     H     0.43072  0.43072  0.00000  0.13856
       5     H     0.43044  0.43044  0.00000  0.13911
       6     C     2.98722  2.98722  0.00000  0.02557
       7     C     3.16452  3.16452  0.00000 -0.32905
       8     H     0.42977  0.42977  0.00000  0.14046
       9     H     0.43158  0.43158  0.00000  0.13684
      10     C     3.23640  3.23640  0.00000 -0.47280
      11     H     0.42243  0.42243  0.00000  0.15514
      12     H     0.41693  0.41693  0.00000  0.16615
      13     H     0.42375  0.42375  0.00000  0.15249
      14     H     0.42359  0.42359  0.00000  0.15283
      15     H     0.40693  0.40693  0.00000  0.18615

   Total alpha = 21.00000, Total beta = 21.00000, Total charge = -0.00000
