                              Psi4 1.0.54 Driver

  ==> Input File <==

--------------------------------------------------------------------------
set {
	reference rhf
	basis cc-pvtz
}

set_num_threads( 4 )
memory 2 gb

molecule MOL {
0 1

H	 -3.162190	 0.493205	 -0.000107
C	 -2.363908	 -0.234727	 0.000005
O	 -1.158738	 0.454634	 -0.000087
H	 -2.464314	 -0.863616	 -0.882153
H	 -2.464327	 -0.863359	 0.882345
C	 -0.116610	 -0.205937	 -0.646563
C	 1.134427	 0.646334	 -0.576325
H	 -0.383080	 -0.397150	 -1.686308
H	 0.061126	 -1.173622	 -0.176841
C	 2.325775	 -0.010325	 -1.264685
H	 0.923402	 1.607768	 -1.031340
H	 1.364098	 0.837418	 0.466119
H	 2.126013	 -0.188568	 -2.316070
H	 3.204666	 0.619230	 -1.199645
H	 2.569841	 -0.963910	 -0.808423

	symmetry c1
}
set optking {
	frozen_dihedral = ("
		6 3 2 4
	")
}

ee,wfn = optimize('scf', return_wfn=True)
oeprop( wfn, 'DIPOLE', 'QUADRUPOLE', 'MULLIKEN_CHARGES')
f=open( 'psi4out.xyz', 'w' )
f.write( "15  " )
f.write( str(ee) + "\n" )
f.write( MOL.save_string_xyz() )
f.close()
--------------------------------------------------------------------------

    Molecular point group: c1
  Charge       = 0
  Multiplicity = 1
  Basis Set: CC-PVTZ
  Basis Set:
  @DF-RHF Final Energy:  -232.22624356004349
    Total Energy =                       -232.2262435600434287
    Molecular point group: c1
  Basis Set: CC-PVTZ
  Basis Set:
  Basis Set: CC-PVTZ
  Basis Set:
  @DF-RHF Final Energy:  -232.22634022477314
    Total Energy =                       -232.2263402247730255
  Basis Set: CC-PVTZ
  Basis Set:
  Basis Set: CC-PVTZ
  Basis Set:
  @DF-RHF Final Energy:  -232.22637512404586
    Total Energy =                       -232.2263751240458305
  Basis Set: CC-PVTZ
  Basis Set:
  Charge       = 0
  Multiplicity = 1
  Basis Set: CC-PVTZ
  Basis Set:

    Orbital Energies (a.u.)
    -----------------------

    Doubly Occupied:

       1A    -20.545744     2A    -11.264745     3A    -11.261557
       4A    -11.212522     5A    -11.210624     6A     -1.379343
       7A     -1.058258     8A     -0.956119     9A     -0.877459
      10A     -0.809466    11A     -0.674885    12A     -0.655116
      13A     -0.632313    14A     -0.607998    15A     -0.564805
      16A     -0.542848    17A     -0.503306    18A     -0.490590
      19A     -0.478723    20A     -0.462586    21A     -0.413497

  @DF-RHF Final Energy:  -232.22637536243948

   => Energetics <=

    Nuclear Repulsion Energy =            189.8350580318220580
    One-Electron Energy =                -690.9178631377312740
    Two-Electron Energy =                 268.8564297434697892
    DFT Exchange-Correlation Energy =       0.0000000000000000
    Empirical Dispersion Energy =           0.0000000000000000
    PCM Polarization Energy =               0.0000000000000000
    EFP Energy =                            0.0000000000000000
    Total Energy =                       -232.2263753624393985
    Molecular point group: c1
  Basis Set: CC-PVTZ
  Basis Set:

  -Total Gradient:
     Atom            X                  Y                   Z
    ------   -----------------  -----------------  -----------------
       1       -0.000017901719     0.000002192613    -0.000005483996
       2       -0.001826298168     0.003221595849    -0.002639938048
       3        0.001102642286    -0.002067673202     0.003225596674
       4        0.001242185014    -0.002141725938     0.001408903742
       5        0.000012439188     0.000002808569    -0.000006198704
       6       -0.000538571112     0.000980791338    -0.001956565369
       7       -0.000003072417    -0.000014567745    -0.000013886109
       8       -0.000003108888     0.000008268182     0.000014756514
       9       -0.000006320166     0.000006492358    -0.000007382740
      10        0.000031113185     0.000012795472    -0.000006265297
      11        0.000003299575    -0.000001013704     0.000001580332
      12       -0.000010107862    -0.000007121497    -0.000007292008
      13        0.000001348549    -0.000000418176     0.000000991788
      14        0.000015348525    -0.000006119204    -0.000008380522
      15       -0.000002995989     0.000003695084    -0.000000436256

  **** Optimization is complete! (in 4 steps) ****
    Final optimized geometry and variables:
    Molecular point group: c1

    Geometry (in Angstrom), charge = 0, multiplicity = 1:

    H           -3.105571329102     0.384452743889     0.524237065946
    C           -2.305347777729    -0.342100403673     0.505004421430
    O           -1.090299321363     0.335447391859     0.487475523317
    H           -2.422789101797    -0.980895975051    -0.365989744277
    H           -2.385999163657    -0.972911262595     1.387282176251
    C           -0.046480492531    -0.328005626390    -0.154431227184
    C            1.204141529679     0.524569523318    -0.080331175157
    H           -0.310342202402    -0.518091011142    -1.194355530187
    H            0.133412792330    -1.295761316711     0.314839424484
    C            2.395594750451    -0.127965290380    -0.772749450756
    H            0.991857132567     1.488075472065    -0.530570885123
    H            1.434577214185     0.711036116425     0.962792850293
    H            2.195334376157    -0.300896707574    -1.824981992496
    H            3.274407567345     0.501570798298    -0.705043450386
    H            2.640327268582    -1.083833351524    -0.321530320682

  Mulliken Charges: (a.u.)
   Center  Symbol    Alpha    Beta     Spin     Total
       1     H     0.45041  0.45041  0.00000  0.09919
       2     C     3.03130  3.03130  0.00000 -0.06259
       3     O     4.17418  4.17418  0.00000 -0.34835
       4     H     0.47424  0.47424  0.00000  0.05152
       5     H     0.46535  0.46535  0.00000  0.06930
       6     C     2.95580  2.95580  0.00000  0.08840
       7     C     3.08127  3.08127  0.00000 -0.16253
       8     H     0.47463  0.47463  0.00000  0.05074
       9     H     0.47679  0.47679  0.00000  0.04641
      10     C     3.15582  3.15582  0.00000 -0.31165
      11     H     0.45120  0.45120  0.00000  0.09759
      12     H     0.45100  0.45100  0.00000  0.09800
      13     H     0.45593  0.45593  0.00000  0.08814
      14     H     0.44626  0.44626  0.00000  0.10749
      15     H     0.45583  0.45583  0.00000  0.08834

   Total alpha = 21.00000, Total beta = 21.00000, Total charge = -0.00000

*** Psi4 exiting successfully. Buy a developer a beer!
