  ==> Input File <==

--------------------------------------------------------------------------
set {
	reference rhf
	basis cc-pvtz
}

set_num_threads( 4 )
memory 2 gb

molecule MOL {
0 1

H	 -2.362939	 -1.309000	 -0.383250
C	 -1.359344	 -1.272457	 0.020748
C	 -0.684082	 0.000127	 -0.464918
H	 -0.825835	 -2.151141	 -0.318537
H	 -1.416276	 -1.292399	 1.099455
C	 -1.359089	 1.272668	 0.021259
N	 0.742439	 -0.000109	 0.007333
H	 -0.596914	 0.000345	 -1.538146
H	 -2.362696	 1.309620	 -0.382686
H	 -0.825392	 2.151374	 -0.317674
H	 -1.415983	 1.292181	 1.099973
O	 1.584864	 0.182717	 -0.805402
O	 0.935709	 -0.182941	 1.162975

	symmetry c1
}
set optking {
	frozen_dihedral = ("
		12 7 3 8
	")
}

ee = optimize('scf')
oeprop('DIPOLE', 'QUADRUPOLE', 'MULLIKEN_CHARGES')
f=open( 'psi4out.xyz', 'w' )
f.write( "13  " )
f.write( str(ee) + "\n" )
f.write( MOL.save_string_xyz() )
f.close()
--------------------------------------------------------------------------

    Molecular point group: c1
  Charge       = 0
  Multiplicity = 1
  Basis Set: CC-PVTZ
  Basis Set:
  @DF-RHF Final Energy:  -321.86450715791017
    Total Energy =                       -321.8645071579102250
    Molecular point group: c1
  Basis Set: CC-PVTZ
  Basis Set:
  Basis Set: CC-PVTZ
  Basis Set:
  @DF-RHF Final Energy:  -321.85856317841751
    Total Energy =                       -321.8585631784173984
  Basis Set: CC-PVTZ
  Basis Set:
  Basis Set: CC-PVTZ
  Basis Set:
  @DF-RHF Final Energy:  -321.86439706384255
    Total Energy =                       -321.8643970638424889
  Basis Set: CC-PVTZ
  Basis Set:
  Basis Set: CC-PVTZ
  Basis Set:
  @DF-RHF Final Energy:  -321.86458268564598
    Total Energy =                       -321.8645826856458143
  Basis Set: CC-PVTZ
  Basis Set:
  Charge       = 0
  Multiplicity = 1
  Basis Set: CC-PVTZ
  Basis Set:

    Orbital Energies (a.u.)
    -----------------------

    Doubly Occupied:

       1A    -20.590281     2A    -20.587789     3A    -15.832566
       4A    -11.304223     5A    -11.244450     6A    -11.241841
       7A     -1.633900     8A     -1.418105     9A     -1.142661
      10A     -0.974258    11A     -0.957240    12A     -0.816610
      13A     -0.751708    14A     -0.732945    15A     -0.726574
      16A     -0.650532    17A     -0.595217    18A     -0.588650
      19A     -0.570895    20A     -0.529864    21A     -0.522792
      22A     -0.485605    23A     -0.469701    24A     -0.452244

  @DF-RHF Final Energy:  -321.86458471557825

   => Energetics <=

    Nuclear Repulsion Energy =            257.3364218950889040
    One-Electron Energy =                -948.7607071697175343
    Two-Electron Energy =                 369.5597005590503272
    DFT Exchange-Correlation Energy =       0.0000000000000000
    Empirical Dispersion Energy =           0.0000000000000000
    PCM Polarization Energy =               0.0000000000000000
    EFP Energy =                            0.0000000000000000
    Total Energy =                       -321.8645847155782462
    Molecular point group: c1
  Basis Set: CC-PVTZ
  Basis Set:

  -Total Gradient:
     Atom            X                  Y                   Z
    ------   -----------------  -----------------  -----------------
       1        0.000029069057     0.000052156012    -0.000014240438
       2        0.000050299150    -0.000037740882     0.000044561801
       3       -0.000035367739     0.000552277213    -0.000044205921
       4        0.000018170739     0.000011388411    -0.000016147765
       5        0.000006382364     0.000010390619     0.000025160378
       6       -0.000036423517    -0.000099866047    -0.000028542451
       7       -0.000115185158    -0.000549871015    -0.000147641305
       8       -0.000025874015    -0.000300283438     0.000001861757
       9       -0.000036233148     0.000052231952     0.000015103113
      10       -0.000016568966     0.000001229910     0.000011424892
      11       -0.000006803641     0.000025440852    -0.000005312579
      12        0.000048207123     0.000256787681     0.000215652965
      13        0.000120327752     0.000025858734    -0.000057674448

  **** Optimization is complete! (in 5 steps) ****
    Final optimized geometry and variables:
    Molecular point group: c1

    Geometry (in Angstrom), charge = 0, multiplicity = 1:

    H           -2.365881640248    -1.314581630028    -0.395884301705
    C           -1.366053678399    -1.281810631610     0.018113159438
    C           -0.684091597498    -0.013579311465    -0.464932046217
    H           -0.833116279282    -2.163304201269    -0.314616832304
    H           -1.432742276474    -1.301624645660     1.095812159510
    C           -1.352838046684     1.263188084572     0.022915496687
    N            0.742675792665    -0.000554934379     0.007261519084
    H           -0.596935557735    -0.009671895175    -1.538247080102
    H           -2.359913789530     1.303188379377    -0.371625679173
    H           -0.818402699338     2.138785647809    -0.322117588629
    H           -1.401467064702     1.283618730810     1.102622536229
    O            1.581844477615     0.193099847126    -0.806491170733
    O            0.939035912165    -0.164448222218     1.165044891261

  Mulliken Charges: (a.u.)
   Center  Symbol    Alpha    Beta     Spin     Total
       1     H     0.44956  0.44956  0.00000  0.10088
       2     C     3.14472  3.14472  0.00000 -0.28943
       3     C     3.00761  3.00761  0.00000 -0.01522
       4     H     0.44128  0.44128  0.00000  0.11743
       5     H     0.43811  0.43811  0.00000  0.12378
       6     C     3.14368  3.14368  0.00000 -0.28736
       7     N     3.27531  3.27531  0.00000  0.44938
       8     H     0.42478  0.42478  0.00000  0.15045
       9     H     0.44869  0.44869  0.00000  0.10261
      10     H     0.43976  0.43976  0.00000  0.12048
      11     H     0.43982  0.43982  0.00000  0.12037
      12     O     4.16911  4.16911  0.00000 -0.33822
      13     O     4.17757  4.17757  0.00000 -0.35514

   Total alpha = 24.00000, Total beta = 24.00000, Total charge = -0.00000
