  ==> Input File <==

--------------------------------------------------------------------------
set {
	reference rhf
	basis 6-31G*
}

set_num_threads( 4 )
memory 2 gb

molecule MOL {
0 1

H	 1.136379	 0.211822	 1.465562
C	 1.135357	 0.094285	 0.374742
C	 0.065331	 0.871482	 -0.349150
O	 1.941633	 -0.601957	 -0.151457
C	 0.617402	 2.129896	 -1.034053
H	 -0.717571	 1.116782	 0.359233
H	 -0.359354	 0.209801	 -1.102795
C	 1.113065	 3.187278	 -0.046791
H	 -0.164135	 2.553959	 -1.656453
H	 1.423737	 1.849936	 -1.708654
H	 0.313350	 3.506510	 0.614324
H	 1.481688	 4.062599	 -0.571431
H	 1.920492	 2.811181	 0.574500

	symmetry c1
}
set optking {
	frozen_dihedral = ("
		6 3 2 4
	")
}

ee = optimize('scf')
oeprop('DIPOLE', 'QUADRUPOLE', 'MULLIKEN_CHARGES')
f=open( 'psi4out.xyz', 'w' )
f.write( "13  " )
f.write( str(ee) + "\n" )
f.write( MOL.save_string_xyz() )
f.close()
--------------------------------------------------------------------------

    Molecular point group: c1
  Charge       = 0
  Multiplicity = 1
  Basis Set: 6-31G*
  Basis Set:
  @DF-RHF Final Energy:  -230.98249080311768
    Total Energy =                       -230.9824908031177699
    Molecular point group: c1
  Basis Set: 6-31G*
  Basis Set:
  Basis Set: 6-31G*
  Basis Set:
  @DF-RHF Final Energy:  -230.98279034974439
    Total Energy =                       -230.9827903497443913
  Basis Set: 6-31G*
  Basis Set:
  Basis Set: 6-31G*
  Basis Set:
  @DF-RHF Final Energy:  -230.98275130389393
    Total Energy =                       -230.9827513038940197
  Basis Set: 6-31G*
  Basis Set:
  Basis Set: 6-31G*
  Basis Set:
  @DF-RHF Final Energy:  -230.98288069048834
    Total Energy =                       -230.9828806904883152
  Basis Set: 6-31G*
  Basis Set:
  Basis Set: 6-31G*
  Basis Set:
  @DF-RHF Final Energy:  -230.98288349552666
    Total Energy =                       -230.9828834955265791
  Basis Set: 6-31G*
  Basis Set:
  Basis Set: 6-31G*
  Basis Set:
  @DF-RHF Final Energy:  -230.98288444272890
    Total Energy =                       -230.9828844427290733
  Basis Set: 6-31G*
  Basis Set:
  Basis Set: 6-31G*
  Basis Set:
  @DF-RHF Final Energy:  -230.98288666540347
    Total Energy =                       -230.9828866654034130
  Basis Set: 6-31G*
  Basis Set:
  Charge       = 0
  Multiplicity = 1
  Basis Set: 6-31G*
  Basis Set:

    Orbital Energies (a.u.)
    -----------------------

    Doubly Occupied:

       1A    -20.562857     2A    -11.326968     3A    -11.235809
       4A    -11.234863     5A    -11.222695     6A     -1.402884
       7A     -1.082801     8A     -0.971719     9A     -0.854010
      10A     -0.774618    11A     -0.684096    12A     -0.642083
      13A     -0.614928    14A     -0.598144    15A     -0.560164
      16A     -0.534720    17A     -0.505704    18A     -0.490892
      19A     -0.478618    20A     -0.409502

  @DF-RHF Final Energy:  -230.98288683632308

   => Energetics <=

    Nuclear Repulsion Energy =            174.4484615267903678
    One-Electron Energy =                -658.4865427863521745
    Two-Electron Energy =                 253.0551944232389019
    DFT Exchange-Correlation Energy =       0.0000000000000000
    Empirical Dispersion Energy =           0.0000000000000000
    PCM Polarization Energy =               0.0000000000000000
    EFP Energy =                            0.0000000000000000
    Total Energy =                       -230.9828868363229049
    Molecular point group: c1
  Basis Set: 6-31G*
  Basis Set:

  -Total Gradient:
     Atom            X                  Y                   Z
    ------   -----------------  -----------------  -----------------
       1        0.000004990097    -0.000000179966     0.000003821507
       2        0.000027301713     0.000017617879    -0.000015283277
       3        0.000017864218     0.000030958773    -0.000000146547
       4       -0.000019157431    -0.000024451856     0.000011475276
       5        0.000002769016    -0.000009398285     0.000000133508
       6       -0.000016774225    -0.000028015986    -0.000004570347
       7       -0.000009855862     0.000004731923     0.000001544167
       8       -0.000012818976     0.000014031017     0.000000621744
       9        0.000005558214    -0.000003201721     0.000001787987
      10       -0.000001445995    -0.000003736819    -0.000005556037
      11        0.000001677637     0.000004432246     0.000003824654
      12        0.000003003033    -0.000001889182     0.000003886608
      13       -0.000003111442    -0.000000898020    -0.000001539244

  **** Optimization is complete! (in 8 steps) ****
    Final optimized geometry and variables:
    Molecular point group: c1

    Geometry (in Angstrom), charge = 0, multiplicity = 1:

    H            0.163695247873    -0.915109765043     1.714133538295
    C            0.141811632811    -1.038649440273     0.626451109486
    C           -0.929883624441    -0.281728733888    -0.125787315132
    O            0.948208777062    -1.728622593510     0.090144728428
    C           -0.372071624687     0.985448200104    -0.797045392247
    H           -1.738145448280    -0.020813366890     0.551736200523
    H           -1.325282052748    -0.946823625772    -0.886057963536
    C            0.134255758622     2.037485503153     0.191002704634
    H           -1.156834475372     1.416644759601    -1.410969162389
    H            0.428403707148     0.694520199862    -1.469471515664
    H           -0.650504086468     2.342905396721     0.877435359226
    H            0.476944723927     2.922929681208    -0.333876531072
    H            0.968031964039     1.668204700384     0.781136246957

  Mulliken Charges: (a.u.)
   Center  Symbol    Alpha    Beta     Spin     Total
       1     H     0.42737  0.42737  0.00000  0.14526
       2     C     2.84303  2.84303  0.00000  0.31395
       3     C     3.20097  3.20097  0.00000 -0.40195
       4     O     4.23679  4.23679  0.00000 -0.47357
       5     C     3.15954  3.15954  0.00000 -0.31907
       6     H     0.41680  0.41680  0.00000  0.16641
       7     H     0.39887  0.39887  0.00000  0.20227
       8     C     3.24565  3.24565  0.00000 -0.49130
       9     H     0.41387  0.41387  0.00000  0.17226
      10     H     0.40618  0.40618  0.00000  0.18764
      11     H     0.42018  0.42018  0.00000  0.15965
      12     H     0.41319  0.41319  0.00000  0.17363
      13     H     0.41758  0.41758  0.00000  0.16484

   Total alpha = 20.00000, Total beta = 20.00000, Total charge = -0.00000
