  ==> Input File <==

--------------------------------------------------------------------------
set {
	reference rhf
	basis 6-31G*
}

set_num_threads( 4 )
memory 2 gb

molecule MOL {
0 1

O	 -1.756524	 -0.779996	 -0.238678
C	 -1.083277	 0.139568	 0.115197
C	 0.323299	 -0.082943	 0.642902
C	 -1.599016	 1.561081	 0.081414
C	 1.355627	 -0.005344	 -0.493127
H	 0.396251	 -1.044647	 1.143147
H	 0.528637	 0.693580	 1.371677
C	 2.786168	 -0.195604	 0.007473
H	 1.132807	 -0.760304	 -1.243899
H	 1.259610	 0.958506	 -0.981915
H	 3.495561	 -0.130713	 -0.811210
H	 2.912696	 -1.165395	 0.480041
H	 3.049284	 0.565503	 0.735850
H	 -1.457587	 2.045170	 1.043352
H	 -2.647278	 1.568054	 -0.182845
H	 -1.038496	 2.135251	 -0.651628

	symmetry c1
}
set optking {
	frozen_dihedral = ("
		4 2 3 5
	")
}

ee = optimize('scf')
oeprop('DIPOLE', 'QUADRUPOLE', 'MULLIKEN_CHARGES')
f=open( 'psi4out.xyz', 'w' )
f.write( "16  " )
f.write( str(ee) + "\n" )
f.write( MOL.save_string_xyz() )
f.close()
--------------------------------------------------------------------------

    Molecular point group: c1
  Charge       = 0
  Multiplicity = 1
  Basis Set: 6-31G*
  Basis Set:
  @DF-RHF Final Energy:  -270.02920212574475
    Total Energy =                       -270.0292021257447459
    Molecular point group: c1
  Basis Set: 6-31G*
  Basis Set:
  Basis Set: 6-31G*
  Basis Set:
  @DF-RHF Final Energy:  -270.02833906992083
    Total Energy =                       -270.0283390699207757
  Basis Set: 6-31G*
  Basis Set:
  Basis Set: 6-31G*
  Basis Set:
  @DF-RHF Final Energy:  -270.02984123104716
    Total Energy =                       -270.0298412310470439
  Basis Set: 6-31G*
  Basis Set:
  Basis Set: 6-31G*
  Basis Set:
  @DF-RHF Final Energy:  -270.03020920336110
    Total Energy =                       -270.0302092033610393
  Basis Set: 6-31G*
  Basis Set:
  Basis Set: 6-31G*
  Basis Set:
  @DF-RHF Final Energy:  -270.02979286073605
    Total Energy =                       -270.0297928607360518
  Basis Set: 6-31G*
  Basis Set:
  Basis Set: 6-31G*
  Basis Set:
  @DF-RHF Final Energy:  -270.03030146798966
    Total Energy =                       -270.0303014679896023
  Basis Set: 6-31G*
  Basis Set:
  Basis Set: 6-31G*
  Basis Set:
  @DF-RHF Final Energy:  -270.03033005502380
    Total Energy =                       -270.0303300550235690
  Basis Set: 6-31G*
  Basis Set:
  Charge       = 0
  Multiplicity = 1
  Basis Set: 6-31G*
  Basis Set:

    Orbital Energies (a.u.)
    -----------------------

    Doubly Occupied:

       1A    -20.548133     2A    -11.324854     3A    -11.234316
       4A    -11.230004     5A    -11.228402     6A    -11.220030
       7A     -1.393669     8A     -1.083295     9A     -1.012682
      10A     -0.949817    11A     -0.829901    12A     -0.735455
      13A     -0.659681    14A     -0.648638    15A     -0.611332
      16A     -0.608395    17A     -0.576432    18A     -0.557949
      19A     -0.536299    20A     -0.518830    21A     -0.504563
      22A     -0.484944    23A     -0.471953    24A     -0.398174

  @DF-RHF Final Energy:  -270.03033083756009

   => Energetics <=

    Nuclear Repulsion Energy =            237.0097238389936933
    One-Electron Energy =                -835.3446165749521697
    Two-Electron Energy =                 328.3045618983986174
    DFT Exchange-Correlation Energy =       0.0000000000000000
    Empirical Dispersion Energy =           0.0000000000000000
    PCM Polarization Energy =               0.0000000000000000
    EFP Energy =                            0.0000000000000000
    Total Energy =                       -270.0303308375598021
    Molecular point group: c1
  Basis Set: 6-31G*
  Basis Set:

  -Total Gradient:
     Atom            X                  Y                   Z
    ------   -----------------  -----------------  -----------------
       1        0.000048908442     0.000000053968     0.000017032477
       2       -0.000164794181     0.000063803430     0.000354246506
       3        0.000021400217    -0.000370504977    -0.000140561759
       4        0.000052968888    -0.000006471396    -0.000240202322
       5        0.000013264700     0.000321757020     0.000031065593
       6       -0.000016678717    -0.000015737369     0.000025180556
       7       -0.000003419331    -0.000023086425    -0.000006924193
       8       -0.000000227182    -0.000043205506    -0.000015528936
       9        0.000037205360     0.000006748879     0.000009714341
      10        0.000005275442     0.000017213326    -0.000032378727
      11        0.000003621319    -0.000013789282     0.000000063211
      12        0.000000455153     0.000004944357     0.000019952797
      13       -0.000008772565     0.000008632989    -0.000021404506
      14        0.000001931901     0.000025979727     0.000005142320
      15        0.000010122362     0.000026405189    -0.000001459629
      16       -0.000001261809    -0.000002743928    -0.000003937729

  **** Optimization is complete! (in 8 steps) ****
    Final optimized geometry and variables:
    Molecular point group: c1

    Geometry (in Angstrom), charge = 0, multiplicity = 1:

    O           -1.754556153810    -0.905596793695    -0.200367718643
    C           -1.094100095240     0.031526939448     0.130677597469
    C            0.327578692400    -0.150717248793     0.630549515481
    C           -1.628035549436     1.445302456424     0.049017606596
    C            1.335603478924    -0.111672886973    -0.529715188016
    H            0.381160377012    -1.112790741409     1.127088664471
    H            0.574323238043     0.621133825036     1.355027389221
    C            2.772734201813    -0.320869942295    -0.055720214573
    H            1.069709860173    -0.881359438944    -1.247490658554
    H            1.263367177634     0.839978591556    -1.050823289834
    H            3.464089576632    -0.300323333407    -0.891930279181
    H            2.883603185068    -1.278631247623     0.443520102733
    H            3.073331983950     0.454679958278     0.642773696853
    H           -1.771564559810     1.836900470118     1.052767598276
    H           -2.573918957135     1.452163118441    -0.474446447382
    H           -0.923716005777     2.101150305120    -0.453271701976

  Mulliken Charges: (a.u.)
   Center  Symbol    Alpha    Beta     Spin     Total
       1     O     4.26110  4.26110  0.00000 -0.52221
       2     C     2.73770  2.73770  0.00000  0.52461
       3     C     3.19911  3.19911  0.00000 -0.39821
       4     C     3.28962  3.28962  0.00000 -0.57924
       5     C     3.16253  3.16253  0.00000 -0.32506
       6     H     0.40068  0.40068  0.00000  0.19865
       7     H     0.41692  0.41692  0.00000  0.16615
       8     C     3.23950  3.23950  0.00000 -0.47901
       9     H     0.40683  0.40683  0.00000  0.18634
      10     H     0.41956  0.41956  0.00000  0.16087
      11     H     0.41539  0.41539  0.00000  0.16922
      12     H     0.41724  0.41724  0.00000  0.16551
      13     H     0.42058  0.42058  0.00000  0.15884
      14     H     0.40650  0.40650  0.00000  0.18700
      15     H     0.39679  0.39679  0.00000  0.20642
      16     H     0.40994  0.40994  0.00000  0.18013

   Total alpha = 24.00000, Total beta = 24.00000, Total charge = -0.00000
