  ==> Input File <==

--------------------------------------------------------------------------
set {
	reference rhf
	basis 6-31G*
}

set_num_threads( 4 )
memory 2 gb

molecule MOL {
0 1

O	 -2.327918	 -0.241716	 -1.119571
C	 -1.921153	 0.064240	 -0.045697
C	 -2.784051	 0.402793	 1.139687
O	 -0.632575	 0.154573	 0.251549
H	 -2.567363	 1.410722	 1.474463
H	 -3.825160	 0.319774	 0.865762
H	 -2.560735	 -0.270399	 1.959259
C	 0.160891	 -1.019931	 0.106212
C	 1.589627	 -0.672828	 0.480843
H	 0.089836	 -1.367806	 -0.916050
H	 -0.238459	 -1.792301	 0.749618
C	 2.246377	 0.346236	 -0.452210
H	 2.163194	 -1.597435	 0.473358
H	 1.604769	 -0.303424	 1.502885
C	 3.691736	 0.652107	 -0.061850
H	 2.219579	 -0.032311	 -1.472055
H	 1.666466	 1.263317	 -0.447249
H	 4.134505	 1.377213	 -0.737283
H	 4.305508	 -0.243868	 -0.089969
H	 3.748266	 1.059562	 0.943567

	symmetry c1
}
set optking {
	frozen_dihedral = ("
		1 2 4 8
	")
}

ee = optimize('scf')
oeprop('DIPOLE', 'QUADRUPOLE', 'MULLIKEN_CHARGES')
f=open( 'psi4out.xyz', 'w' )
f.write( "20  " )
f.write( str(ee) + "\n" )
f.write( MOL.save_string_xyz() )
f.close()
--------------------------------------------------------------------------

    Molecular point group: c1
  Charge       = 0
  Multiplicity = 1
  Basis Set: 6-31G*
  Basis Set:
  @DF-RHF Final Energy:  -383.93106487871938
    Total Energy =                       -383.9310648787195532
    Molecular point group: c1
  Basis Set: 6-31G*
  Basis Set:
  Basis Set: 6-31G*
  Basis Set:
  @DF-RHF Final Energy:  -383.92853807829954
    Total Energy =                       -383.9285380782991979
  Basis Set: 6-31G*
  Basis Set:
  Basis Set: 6-31G*
  Basis Set:
  @DF-RHF Final Energy:  -383.93189167067089
    Total Energy =                       -383.9318916706710070
  Basis Set: 6-31G*
  Basis Set:
  Basis Set: 6-31G*
  Basis Set:
  @DF-RHF Final Energy:  -383.93198967796809
    Total Energy =                       -383.9319896779679766
  Basis Set: 6-31G*
  Basis Set:
  Basis Set: 6-31G*
  Basis Set:
  @DF-RHF Final Energy:  -383.93199728917563
    Total Energy =                       -383.9319972891754560
  Basis Set: 6-31G*
  Basis Set:
  Basis Set: 6-31G*
  Basis Set:
  @DF-RHF Final Energy:  -383.93199943682072
    Total Energy =                       -383.9319994368205471
  Basis Set: 6-31G*
  Basis Set:
  Charge       = 0
  Multiplicity = 1
  Basis Set: 6-31G*
  Basis Set:

    Orbital Energies (a.u.)
    -----------------------

    Doubly Occupied:

       1A    -20.587590     2A    -20.552513     3A    -11.376613
       4A    -11.288645     5A    -11.234956     6A    -11.226198
       7A    -11.218025     8A    -11.211725     9A     -1.459551
      10A     -1.364675    11A     -1.083927    12A     -1.024243
      13A     -0.984150    14A     -0.880048    15A     -0.808345
      16A     -0.775372    17A     -0.694829    18A     -0.680397
      19A     -0.656200    20A     -0.630825    21A     -0.609967
      22A     -0.592002    23A     -0.576175    24A     -0.556855
      25A     -0.542140    26A     -0.531335    27A     -0.499478
      28A     -0.483764    29A     -0.478357    30A     -0.473019
      31A     -0.446421    32A     -0.435450

  @DF-RHF Final Energy:  -383.93199992954061

   => Energetics <=

    Nuclear Repulsion Energy =            384.2767708923610712
    One-Electron Energy =               -1284.4899569389540375
    Two-Electron Energy =                 516.2811861170521297
    DFT Exchange-Correlation Energy =       0.0000000000000000
    Empirical Dispersion Energy =           0.0000000000000000
    PCM Polarization Energy =               0.0000000000000000
    EFP Energy =                            0.0000000000000000
    Total Energy =                       -383.9319999295407797
    Molecular point group: c1
  Basis Set: 6-31G*
  Basis Set:

  -Total Gradient:
     Atom            X                  Y                   Z
    ------   -----------------  -----------------  -----------------
       1        0.000076615725     0.008358343844    -0.001409777970
       2       -0.001076754466    -0.013475735998     0.005009901405
       3        0.000105365959     0.000019271795     0.000000000268
       4        0.002636044242     0.007280313325    -0.009571668018
       5       -0.000015539107    -0.000013215749    -0.000032080762
       6       -0.000036645639     0.000010539790     0.000018447264
       7        0.000003541880     0.000017448750    -0.000027104869
       8       -0.001770785311    -0.002253094706     0.006020556392
       9        0.000041204427    -0.000015531634    -0.000043630384
      10        0.000033785534     0.000027140324     0.000008022036
      11        0.000038105684     0.000035716584    -0.000016384225
      12       -0.000007017724     0.000006881759     0.000026158809
      13       -0.000004232328    -0.000003605761     0.000022379017
      14       -0.000008926982     0.000005663405     0.000003780029
      15       -0.000004303529    -0.000012404983    -0.000013394836
      16       -0.000003495919    -0.000000082257    -0.000001614668
      17       -0.000006145533     0.000018733829     0.000011686083
      18        0.000002171240    -0.000006473643    -0.000006763382
      19        0.000003475157    -0.000003220967     0.000006618948
      20       -0.000006463313     0.000003312291    -0.000005131136

  **** Optimization is complete! (in 7 steps) ****
    Final optimized geometry and variables:
    Molecular point group: c1

    Geometry (in Angstrom), charge = 0, multiplicity = 1:

    O           -2.239823069571    -0.108259500881    -1.188245440096
    C           -1.911365411849     0.096579176323    -0.069596682342
    C           -2.853874218232     0.438583100366     1.051263519948
    O           -0.624159203636     0.151484924622     0.315338394011
    H           -2.585982292232     1.405020887717     1.463054213025
    H           -3.871615034178     0.457155179479     0.690354079902
    H           -2.754528298088    -0.291142341529     1.847871128581
    C            0.175339996924    -1.009135949074     0.111714607244
    C            1.616455335756    -0.664739687353     0.437425903180
    H            0.071896964610    -1.338338414216    -0.914088511857
    H           -0.185876288168    -1.795926315009     0.766678339912
    C            2.226845255983     0.375816802861    -0.502654177153
    H            2.193417485154    -1.586325114309     0.391693731301
    H            1.667196419886    -0.312973518119     1.464378757183
    C            3.681886392441     0.692123895603    -0.159292253484
    H            2.166538162783     0.012540389572    -1.526191447429
    H            1.635804930252     1.284427375345    -0.462615262562
    H            4.092367965717     1.430023332800    -0.841131649731
    H            4.304355211059    -0.196394199950    -0.220031790195
    H            3.769938163699     1.088591848803     0.848318592927

  Mulliken Charges: (a.u.)
   Center  Symbol    Alpha    Beta     Spin     Total
       1     O     4.26179  4.26179  0.00000 -0.52357
       2     C     2.62092  2.62092  0.00000  0.75815
       3     C     3.28441  3.28441  0.00000 -0.56882
       4     O     4.31820  4.31820  0.00000 -0.63641
       5     H     0.39819  0.39819  0.00000  0.20361
       6     H     0.39781  0.39781  0.00000  0.20437
       7     H     0.40543  0.40543  0.00000  0.18913
       8     C     3.00401  3.00401  0.00000 -0.00803
       9     C     3.16394  3.16394  0.00000 -0.32789
      10     H     0.40589  0.40589  0.00000  0.18823
      11     H     0.42015  0.42015  0.00000  0.15969
      12     C     3.15497  3.15497  0.00000 -0.30995
      13     H     0.41921  0.41921  0.00000  0.16157
      14     H     0.41447  0.41447  0.00000  0.17106
      15     C     3.24072  3.24072  0.00000 -0.48144
      16     H     0.42087  0.42087  0.00000  0.15826
      17     H     0.40852  0.40852  0.00000  0.18297
      18     H     0.41695  0.41695  0.00000  0.16611
      19     H     0.42248  0.42248  0.00000  0.15505
      20     H     0.42105  0.42105  0.00000  0.15789

   Total alpha = 32.00000, Total beta = 32.00000, Total charge = -0.00000
