                              Psi4 1.0.54 Driver

  ==> Input File <==

--------------------------------------------------------------------------
set {
	reference rhf
	basis cc-pvtz
}

set_num_threads( 4 )
memory 2 gb

molecule MOL {
0 1

H	 2.293064	 -1.682932	 -4.434100
C	 2.502722	 -0.762148	 -3.902060
C	 1.315803	 -0.339255	 -3.043159
H	 3.384564	 -0.925897	 -3.292342
H	 2.745863	 -0.002717	 -4.638230
C	 1.571308	 0.962040	 -2.285981
H	 1.085833	 -1.129025	 -2.337245
H	 0.439520	 -0.219128	 -3.676026
C	 0.397743	 1.413538	 -1.422394
H	 2.447689	 0.850687	 -1.659575
H	 1.791434	 1.749968	 -3.000472
C	 0.166485	 0.574257	 -0.177158
H	 0.565453	 2.429769	 -1.074668
H	 -0.520307	 1.448902	 -2.001576
C	 -1.180025	 0.697761	 0.509157
O	 1.011074	 -0.138615	 0.260744
C	 -2.285431	 -0.137488	 -0.145671
H	 -1.447360	 1.745713	 0.496200
H	 -1.065514	 0.394096	 1.546399
C	 -3.646545	 0.082747	 0.508954
H	 -2.348635	 0.118247	 -1.199806
H	 -2.034895	 -1.192387	 -0.096473
C	 -4.757412	 -0.737227	 -0.138149
H	 -3.900211	 1.137405	 0.459735
H	 -3.580878	 -0.166775	 1.564416
H	 -4.867876	 -0.486707	 -1.187777
H	 -4.549650	 -1.800049	 -0.072540
H	 -5.709585	 -0.556397	 0.346597

	symmetry c1
}
set optking {
	frozen_dihedral = ("
		16 12 15 17
	")
}

ee,wfn = optimize('scf', return_wfn=True)
oeprop( wfn, 'DIPOLE', 'QUADRUPOLE', 'MULLIKEN_CHARGES')
f=open( 'psi4out.xyz', 'w' )
f.write( "28  " )
f.write( str(ee) + "\n" )
f.write( MOL.save_string_xyz() )
f.close()
--------------------------------------------------------------------------

    Molecular point group: c1
  Charge       = 0
  Multiplicity = 1
  Basis Set: CC-PVTZ
  Basis Set:
  @DF-RHF Final Energy:  -426.31992861215156
    Total Energy =                       -426.3199286121514433
    Molecular point group: c1
  Basis Set: CC-PVTZ
  Basis Set:
  Basis Set: CC-PVTZ
  Basis Set:
  @DF-RHF Final Energy:  -426.31976147562398
    Total Energy =                       -426.3197614756238636
  Basis Set: CC-PVTZ
  Basis Set:
  Basis Set: CC-PVTZ
  Basis Set:
  @DF-RHF Final Energy:  -426.31926197602843
    Total Energy =                       -426.3192619760285424
  Basis Set: CC-PVTZ
  Basis Set:
  Basis Set: CC-PVTZ
  Basis Set:
  @DF-RHF Final Energy:  -426.32039828349264
    Total Energy =                       -426.3203982834927501
  Basis Set: CC-PVTZ
  Basis Set:
  Basis Set: CC-PVTZ
  Basis Set:
  @DF-RHF Final Energy:  -426.32042711819895
    Total Energy =                       -426.3204271181990634
  Basis Set: CC-PVTZ
  Basis Set:
  Basis Set: CC-PVTZ
  Basis Set:
  @DF-RHF Final Energy:  -426.32042896864243
    Total Energy =                       -426.3204289686428865
  Basis Set: CC-PVTZ
  Basis Set:
  Charge       = 0
  Multiplicity = 1
  Basis Set: CC-PVTZ
  Basis Set:

    Orbital Energies (a.u.)
    -----------------------

    Doubly Occupied:

       1A    -20.536337     2A    -11.316545     3A    -11.229103
       4A    -11.228688     5A    -11.226735     6A    -11.223305
       7A    -11.214673     8A    -11.213580     9A    -11.211081
      10A    -11.204156    11A     -1.396417    12A     -1.095526
      13A     -1.079181    14A     -1.023887    15A     -0.992200
      16A     -0.909300    17A     -0.871765    18A     -0.808004
      19A     -0.800696    20A     -0.725053    21A     -0.671217
      22A     -0.654266    23A     -0.628275    24A     -0.621422
      25A     -0.611188    26A     -0.590372    27A     -0.577085
      28A     -0.573943    29A     -0.546988    30A     -0.529370
      31A     -0.519328    32A     -0.510761    33A     -0.504778
      34A     -0.484055    35A     -0.477819    36A     -0.474782
      37A     -0.471552    38A     -0.466684    39A     -0.457672
      40A     -0.394045

  @DF-RHF Final Energy:  -426.32042949381866

   => Energetics <=

    Nuclear Repulsion Energy =            536.3618213394502163
    One-Electron Energy =               -1641.2208257452225553
    Two-Electron Energy =                 678.5385749119535603
    DFT Exchange-Correlation Energy =       0.0000000000000000
    Empirical Dispersion Energy =           0.0000000000000000
    PCM Polarization Energy =               0.0000000000000000
    EFP Energy =                            0.0000000000000000
    Total Energy =                       -426.3204294938187786
    Molecular point group: c1
  Basis Set: CC-PVTZ
  Basis Set:

  -Total Gradient:
     Atom            X                  Y                   Z
    ------   -----------------  -----------------  -----------------
       1        0.000001744698     0.000001941268     0.000001846359
       2        0.000001551515    -0.000001133114    -0.000002325062
       3        0.000002935062     0.000002505109    -0.000007850259
       4       -0.000004917775     0.000000769186    -0.000002112440
       5       -0.000002262720    -0.000003564157     0.000003774449
       6       -0.000004995527     0.000001843787    -0.000006787627
       7       -0.000002158443     0.000002973947    -0.000000322951
       8        0.000006464888    -0.000002126106     0.000002141576
       9        0.000009670446     0.000011011757     0.000011860570
      10       -0.000006460589     0.000003573343    -0.000001526210
      11       -0.000004704578    -0.000005499462     0.000004193360
      12       -0.000747444937    -0.001030201650    -0.001204147474
      13       -0.000004626726    -0.000006397467    -0.000002333797
      14        0.000004343141     0.000000248318    -0.000000732306
      15        0.000447662935    -0.000630490875     0.001034023194
      16        0.000492257765     0.000929459770     0.000710517564
      17       -0.000181228679     0.000737930606    -0.000557900982
      18        0.000000476887    -0.000022769828    -0.000016389192
      19       -0.000006295434     0.000008309202     0.000005319238
      20       -0.000016554441    -0.000024140169     0.000013625629
      21        0.000001583003    -0.000021005763     0.000028194110
      22       -0.000006985430     0.000053556765     0.000005467254
      23       -0.000017131640     0.000006597556    -0.000003504268
      24        0.000019225211    -0.000027471897     0.000001758066
      25       -0.000001951833     0.000006813756    -0.000021201383
      26        0.000003396266    -0.000015422709     0.000026151864
      27       -0.000010915792     0.000027707898     0.000000471639
      28        0.000027322733    -0.000005019067    -0.000022210924

  **** Optimization is complete! (in 7 steps) ****
    Final optimized geometry and variables:
    Molecular point group: c1

    Geometry (in Angstrom), charge = 0, multiplicity = 1:

    H            2.794507451589    -1.852844501258    -3.450239670205
    C            3.016174105466    -0.945168700575    -2.900837494223
    C            1.824834165560    -0.507562607381    -2.055640838174
    H            3.883409070982    -1.138400538806    -2.278951209121
    H            3.289272875562    -0.180775383811    -3.621170219323
    C            2.097164234808     0.775911458782    -1.274261549643
    H            1.564680564353    -1.301844231583    -1.365504691182
    H            0.962490426894    -0.357783989241    -2.701169379804
    C            0.920134171927     1.239876430896    -0.423438593891
    H            2.960117277572     0.634570729056    -0.635219733059
    H            2.347525685640     1.569267507175    -1.972577303177
    C            0.649673895434     0.400343992845     0.811853461255
    H            1.100162764915     2.247014029103    -0.051986214794
    H            0.013772103234     1.307688785252    -1.016542335892
    C           -0.686735009246     0.597932197239     1.499230874625
    O            1.457058016848    -0.354492152206     1.249306813606
    C           -1.810687863048    -0.194436643642     0.820854637495
    H           -0.939616244890     1.654192275362     1.498482425339
    H           -0.575142488352     0.275365800740     2.525684637732
    C           -3.154526691256    -0.023692774485     1.523911276965
    H           -1.909893725083     0.113185246171    -0.215649781299
    H           -1.541427624974    -1.246056625359     0.807681322246
    C           -4.276051766170    -0.816908685294     0.862113874875
    H           -3.418848865591     1.029980633745     1.541779037965
    H           -3.056870023473    -0.331962422755     2.560536950103
    H           -4.420354708609    -0.507638707117    -0.167688531210
    H           -4.055269947323    -1.878823029773     0.859805873777
    H           -5.215138805549    -0.675588326387     1.384032712317

  Mulliken Charges: (a.u.)
   Center  Symbol    Alpha    Beta     Spin     Total
       1     H     0.44879  0.44879  0.00000  0.10243
       2     C     3.15140  3.15140  0.00000 -0.30281
       3     C     3.08468  3.08468  0.00000 -0.16936
       4     H     0.45171  0.45171  0.00000  0.09658
       5     H     0.45689  0.45689  0.00000  0.08623
       6     C     3.08839  3.08839  0.00000 -0.17678
       7     H     0.44581  0.44581  0.00000  0.10838
       8     H     0.45857  0.45857  0.00000  0.08287
       9     C     3.12768  3.12768  0.00000 -0.25536
      10     H     0.44450  0.44450  0.00000  0.11099
      11     H     0.44752  0.44752  0.00000  0.10497
      12     C     2.86679  2.86679  0.00000  0.26641
      13     H     0.43368  0.43368  0.00000  0.13263
      14     H     0.44282  0.44282  0.00000  0.11436
      15     C     3.09273  3.09273  0.00000 -0.18546
      16     O     4.18122  4.18122  0.00000 -0.36244
      17     C     3.09897  3.09897  0.00000 -0.19794
      18     H     0.44938  0.44938  0.00000  0.10125
      19     H     0.43757  0.43757  0.00000  0.12486
      20     C     3.08735  3.08735  0.00000 -0.17470
      21     H     0.45113  0.45113  0.00000  0.09774
      22     H     0.44369  0.44369  0.00000  0.11262
      23     C     3.14917  3.14917  0.00000 -0.29834
      24     H     0.45369  0.45369  0.00000  0.09261
      25     H     0.45053  0.45053  0.00000  0.09894
      26     H     0.45517  0.45517  0.00000  0.08965
      27     H     0.45309  0.45309  0.00000  0.09382
      28     H     0.44708  0.44708  0.00000  0.10584

   Total alpha = 40.00000, Total beta = 40.00000, Total charge = -0.00000

*** Psi4 exiting successfully. Buy a developer a beer!
