                              Psi4 1.0.54 Driver

  ==> Input File <==

--------------------------------------------------------------------------
set {
	reference rhf
	basis cc-pvtz
}

set_num_threads( 4 )
memory 2 gb

molecule MOL {
0 1

H	 5.269878	 0.195679	 1.068175
C	 4.673900	 -0.208485	 0.258034
C	 3.190199	 -0.204714	 0.610086
H	 4.865136	 0.391893	 -0.624684
H	 5.027838	 -1.214511	 0.056939
C	 2.319208	 -0.778154	 -0.505491
H	 2.876954	 0.809861	 0.827925
H	 3.035335	 -0.782733	 1.518235
C	 2.518707	 -2.272631	 -0.737065
H	 1.275892	 -0.592108	 -0.282543
H	 2.542290	 -0.257113	 -1.432063
C	 1.949512	 -3.165109	 0.352883
H	 2.027111	 -2.571585	 -1.659412
H	 3.569994	 -2.507866	 -0.874822
C	 2.437596	 -4.599729	 0.407754
O	 1.136736	 -2.767540	 1.123991
C	 2.074294	 -5.423115	 -0.832573
H	 2.005626	 -5.047793	 1.292333
H	 3.517448	 -4.590247	 0.530336
C	 2.495139	 -6.884693	 -0.704717
H	 1.000904	 -5.371485	 -0.993085
H	 2.541096	 -4.995595	 -1.714232
C	 2.132719	 -7.717327	 -1.929665
H	 2.028185	 -7.315207	 0.176013
H	 3.567553	 -6.935258	 -0.537546
H	 1.062074	 -7.711354	 -2.103923
H	 2.614590	 -7.332414	 -2.822246
H	 2.441574	 -8.748694	 -1.806366

	symmetry c1
}
set optking {
	frozen_dihedral = ("
		10 6 3 2
	")
}

ee,wfn = optimize('scf', return_wfn=True)
oeprop( wfn, 'DIPOLE', 'QUADRUPOLE', 'MULLIKEN_CHARGES')
f=open( 'psi4out.xyz', 'w' )
f.write( "28  " )
f.write( str(ee) + "\n" )
f.write( MOL.save_string_xyz() )
f.close()
--------------------------------------------------------------------------

    Molecular point group: c1
  Charge       = 0
  Multiplicity = 1
  Basis Set: CC-PVTZ
  Basis Set:
  @DF-RHF Final Energy:  -426.31739840229875
    Total Energy =                       -426.3173984022987497
    Molecular point group: c1
  Basis Set: CC-PVTZ
  Basis Set:
  Basis Set: CC-PVTZ
  Basis Set:
  @DF-RHF Final Energy:  -426.20974482005283
    Total Energy =                       -426.2097448200532881
  Basis Set: CC-PVTZ
  Basis Set:
  Basis Set: CC-PVTZ
  Basis Set:
  @DF-RHF Final Energy:  -426.30099229154087
    Total Energy =                       -426.3009922915412062
  Basis Set: CC-PVTZ
  Basis Set:
  Basis Set: CC-PVTZ
  Basis Set:
  @DF-RHF Final Energy:  -426.31770142139089
    Total Energy =                       -426.3177014213906659
  Basis Set: CC-PVTZ
  Basis Set:
  @DF-RHF Final Energy:  -426.31760622529407
    Total Energy =                       -426.3176062252942984
  @DF-RHF Final Energy:  -426.31282527177257
    Total Energy =                       -426.3128252717725672
  @DF-RHF Final Energy:  -426.31681849646543
    Total Energy =                       -426.3168184964650891
  @DF-RHF Final Energy:  -426.31797763752479
    Total Energy =                       -426.3179776375246774
  Basis Set: CC-PVTZ
  Basis Set:
  @DF-RHF Final Energy:  -426.31799054756380
    Total Energy =                       -426.3179905475637952
  Basis Set: CC-PVTZ
  Basis Set:
  Basis Set: CC-PVTZ
  Basis Set:
  @DF-RHF Final Energy:  -426.31798671928459
    Total Energy =                       -426.3179867192839083
  Basis Set: CC-PVTZ
  Basis Set:
  Basis Set: CC-PVTZ
  Basis Set:
  @DF-RHF Final Energy:  -426.31799394073482
    Total Energy =                       -426.3179939407348229
  Basis Set: CC-PVTZ
  Basis Set:
  Charge       = 0
  Multiplicity = 1
  Basis Set: CC-PVTZ
  Basis Set:

    Orbital Energies (a.u.)
    -----------------------

    Doubly Occupied:

       1A    -20.536482     2A    -11.316376     3A    -11.229787
       4A    -11.227688     5A    -11.226854     6A    -11.223777
       7A    -11.215239     8A    -11.214201     9A    -11.211075
      10A    -11.207874    11A     -1.396388    12A     -1.096148
      13A     -1.078738    14A     -1.022852    15A     -0.990339
      16A     -0.911451    17A     -0.880477    18A     -0.809143
      19A     -0.796230    20A     -0.720801    21A     -0.667445
      22A     -0.653344    23A     -0.640480    24A     -0.622153
      25A     -0.607605    26A     -0.598306    27A     -0.577559
      28A     -0.562325    29A     -0.542786    30A     -0.540046
      31A     -0.528014    32A     -0.510123    33A     -0.502465
      34A     -0.485696    35A     -0.479979    36A     -0.476582
      37A     -0.469451    38A     -0.462284    39A     -0.458881
      40A     -0.393730

  @DF-RHF Final Energy:  -426.31799443297029

   => Energetics <=

    Nuclear Repulsion Energy =            537.1805970732559672
    One-Electron Energy =               -1642.8148427056614764
    Two-Electron Energy =                 679.3162511994355555
    DFT Exchange-Correlation Energy =       0.0000000000000000
    Empirical Dispersion Energy =           0.0000000000000000
    PCM Polarization Energy =               0.0000000000000000
    EFP Energy =                            0.0000000000000000
    Total Energy =                       -426.3179944329699538
    Molecular point group: c1
  Basis Set: CC-PVTZ
  Basis Set:

  -Total Gradient:
     Atom            X                  Y                   Z
    ------   -----------------  -----------------  -----------------
       1       -0.000001328475    -0.000001129488    -0.000005538780
       2       -0.000063769385     0.000181663768    -0.000029009942
       3        0.000093560620    -0.000170289524     0.000000623805
       4        0.000002630409    -0.000001807907     0.000002922588
       5       -0.000003381785     0.000001847374     0.000001174570
       6        0.000046402599    -0.000206185759     0.000091039029
       7        0.000004765186    -0.000000691614     0.000005252543
       8        0.000008984333    -0.000004615080     0.000014868541
       9        0.000035294140    -0.000008110770    -0.000021729543
      10       -0.000079262325     0.000235074050    -0.000091545268
      11       -0.000002746377    -0.000002330422     0.000001234115
      12        0.000010381976    -0.000021442952     0.000015122353
      13       -0.000017045568    -0.000007980150     0.000006484663
      14       -0.000008724061     0.000013988030    -0.000001482908
      15        0.000004882338     0.000003988358     0.000007634910
      16       -0.000021872668    -0.000018265480     0.000002167814
      17        0.000001386422     0.000003097897     0.000008242560
      18       -0.000000255343    -0.000003507042    -0.000001490801
      19        0.000002821126     0.000003264576     0.000002699863
      20       -0.000005438026    -0.000010137630    -0.000005914503
      21       -0.000008111244    -0.000006215231     0.000001787796
      22       -0.000003957078     0.000004566911    -0.000007799177
      23        0.000001508463     0.000015232656     0.000001387987
      24       -0.000000125119     0.000003354276     0.000007494101
      25        0.000006379219     0.000003604963     0.000000019855
      26       -0.000003530770    -0.000002345063     0.000001553616
      27       -0.000002535849    -0.000000514683    -0.000006441280
      28        0.000003087241    -0.000004114067    -0.000000758512

  **** Optimization is complete! (in 12 steps) ****
    Final optimized geometry and variables:
    Molecular point group: c1

    Geometry (in Angstrom), charge = 0, multiplicity = 1:

    H            2.678645781636     3.976612753992     0.348000086790
    C            1.851103227368     3.483843335288    -0.149132691178
    C            0.718305667120     3.203957986223     0.836051674724
    H            1.518566076402     4.130437111419    -0.954955498286
    H            2.240239715974     2.575519677251    -0.595491996123
    C           -0.531930201462     2.583147311648     0.207598560715
    H            0.427807455980     4.139989207625     1.302217955170
    H            1.075801550177     2.568210129154     1.637886001365
    C           -0.361326862104     1.157946100012    -0.314051369913
    H           -1.330577975691     2.586726110210     0.937616037546
    H           -0.858803725664     3.208995898542    -0.618065827755
    C           -0.193725560382     0.103593951105     0.767151081414
    H           -1.246806264050     0.872410595691    -0.876550316024
    H            0.462625357004     1.082219221811    -1.014757778463
    C            0.367825185451    -1.241808620859     0.350096092035
    O           -0.509719539567     0.309132544355     1.894596581588
    C           -0.529432646464    -2.006091443339    -0.629331802824
    H            0.510832625383    -1.819697925959     1.253107294122
    H            1.342428587239    -1.082197647491    -0.103617439276
    C            0.016846100197    -3.392643577416    -0.958762062653
    H           -1.522745240724    -2.104341895470    -0.200158337494
    H           -0.643021552855    -1.441847604496    -1.549524043348
    C           -0.868802822579    -4.165246286558    -1.930194644676
    H            0.127153277242    -3.960782650185    -0.039994742283
    H            1.014065406433    -3.294121788862    -1.378777210358
    H           -1.864164387604    -4.307872667954    -1.523279433634
    H           -0.970005126593    -3.638091189236    -2.873022091097
    H           -0.455083120910    -5.144174056797    -2.141978721553

  Mulliken Charges: (a.u.)
   Center  Symbol    Alpha    Beta     Spin     Total
       1     H     0.44532  0.44532  0.00000  0.10937
       2     C     3.15162  3.15162  0.00000 -0.30325
       3     C     3.09526  3.09526  0.00000 -0.19053
       4     H     0.45549  0.45549  0.00000  0.08902
       5     H     0.45851  0.45851  0.00000  0.08297
       6     C     3.09412  3.09412  0.00000 -0.18824
       7     H     0.44737  0.44737  0.00000  0.10526
       8     H     0.44378  0.44378  0.00000  0.11244
       9     C     3.13432  3.13432  0.00000 -0.26863
      10     H     0.43939  0.43939  0.00000  0.12123
      11     H     0.44738  0.44738  0.00000  0.10525
      12     C     2.86389  2.86389  0.00000  0.27222
      13     H     0.43229  0.43229  0.00000  0.13542
      14     H     0.44010  0.44010  0.00000  0.11981
      15     C     3.09392  3.09392  0.00000 -0.18784
      16     O     4.17817  4.17817  0.00000 -0.35633
      17     C     3.10051  3.10051  0.00000 -0.20101
      18     H     0.43787  0.43787  0.00000  0.12426
      19     H     0.44926  0.44926  0.00000  0.10147
      20     C     3.08734  3.08734  0.00000 -0.17467
      21     H     0.44560  0.44560  0.00000  0.10880
      22     H     0.45046  0.45046  0.00000  0.09908
      23     C     3.14919  3.14919  0.00000 -0.29838
      24     H     0.44980  0.44980  0.00000  0.10041
      25     H     0.45365  0.45365  0.00000  0.09270
      26     H     0.45342  0.45342  0.00000  0.09316
      27     H     0.45519  0.45519  0.00000  0.08962
      28     H     0.44680  0.44680  0.00000  0.10640

   Total alpha = 40.00000, Total beta = 40.00000, Total charge =  0.00000

*** Psi4 exiting successfully. Buy a developer a beer!
