                              Psi4 1.0.54 Driver

  ==> Input File <==

--------------------------------------------------------------------------
set {
	reference rhf
	basis cc-pvtz
}

set_num_threads( 4 )
memory 2 gb

molecule MOL {
0 1

H	 -0.856392	 -2.399144	 0.715329
N	 -0.101440	 -1.756078	 0.605387
C	 -0.561396	 -0.500007	 0.035200
H	 0.572583	 -2.191729	 0.011050
C	 0.575129	 0.507849	 -0.048832
H	 -1.339318	 -0.106979	 0.681408
H	 -1.006998	 -0.619580	 -0.953514
C	 1.951750	 -0.141983	 0.035101
H	 0.478254	 1.061643	 -0.975981
H	 0.467676	 1.231891	 0.755499
H	 2.101550	 -0.848142	 -0.774949
H	 2.738260	 0.600794	 -0.026526
H	 2.078939	 -0.679792	 0.968824

	symmetry c1
}
set optking {
	frozen_dihedral = ("
		6 3 5 9
	")
}

ee,wfn = optimize('scf', return_wfn=True)
oeprop( wfn, 'DIPOLE', 'QUADRUPOLE', 'MULLIKEN_CHARGES')
f=open( 'psi4out.xyz', 'w' )
f.write( "13  " )
f.write( str(ee) + "\n" )
f.write( MOL.save_string_xyz() )
f.close()
--------------------------------------------------------------------------

    Molecular point group: c1
  Charge       = 0
  Multiplicity = 1
  Basis Set: CC-PVTZ
  Basis Set:
  @DF-RHF Final Energy:  -173.34216197367965
    Total Energy =                       -173.3421619736795947
    Molecular point group: c1
  Basis Set: CC-PVTZ
  Basis Set:
  Basis Set: CC-PVTZ
  Basis Set:
  @DF-RHF Final Energy:  -173.34250143574417
    Total Energy =                       -173.3425014357441682
  Basis Set: CC-PVTZ
  Basis Set:
  Basis Set: CC-PVTZ
  Basis Set:
  @DF-RHF Final Energy:  -173.34464343196666
    Total Energy =                       -173.3446434319666025
  Basis Set: CC-PVTZ
  Basis Set:
  Basis Set: CC-PVTZ
  Basis Set:
  @DF-RHF Final Energy:  -173.34478596777927
    Total Energy =                       -173.3447859677790461
  Basis Set: CC-PVTZ
  Basis Set:
  Basis Set: CC-PVTZ
  Basis Set:
  @DF-RHF Final Energy:  -173.34479597744533
    Total Energy =                       -173.3447959774451874
  Basis Set: CC-PVTZ
  Basis Set:
  Charge       = 0
  Multiplicity = 1
  Basis Set: CC-PVTZ
  Basis Set:

    Orbital Energies (a.u.)
    -----------------------

    Doubly Occupied:

       1A    -15.525982     2A    -11.239336     3A    -11.210876
       4A    -11.202084     5A     -1.177060     6A     -1.027542
       7A     -0.907832     8A     -0.785364     9A     -0.670113
      10A     -0.639594    11A     -0.582388    12A     -0.561323
      13A     -0.543383    14A     -0.485169    15A     -0.477693
      16A     -0.464476    17A     -0.381305

  @DF-RHF Final Energy:  -173.34479690914230

   => Energetics <=

    Nuclear Repulsion Energy =            134.1343630706227827
    One-Electron Energy =                -499.1952749466922796
    Two-Electron Energy =                 191.7161149669273357
    DFT Exchange-Correlation Energy =       0.0000000000000000
    Empirical Dispersion Energy =           0.0000000000000000
    PCM Polarization Energy =               0.0000000000000000
    EFP Energy =                            0.0000000000000000
    Total Energy =                       -173.3447969091421612
    Molecular point group: c1
  Basis Set: CC-PVTZ
  Basis Set:

  -Total Gradient:
     Atom            X                  Y                   Z
    ------   -----------------  -----------------  -----------------
       1        0.000025399590     0.000029518178    -0.000011841187
       2        0.000007163088     0.000019408273    -0.000006700182
       3       -0.002636330377     0.002522227087    -0.006081045323
       4       -0.000024267784     0.000023475022     0.000027433120
       5       -0.003420042668     0.003960988492     0.004729974727
       6        0.002763647821    -0.002799866906     0.004435980796
       7       -0.000006708515     0.000025154401    -0.000002327320
       8       -0.000071248589     0.000019533383    -0.000008337902
       9        0.003319673304    -0.003784422364    -0.003083952249
      10       -0.000010576224     0.000017454011    -0.000002623258
      11        0.000035713719     0.000004715893    -0.000022324176
      12        0.000025588076     0.000031672063     0.000008408780
      13       -0.000008011440    -0.000069857531     0.000017354173

  **** Optimization is complete! (in 6 steps) ****
    Final optimized geometry and variables:
    Molecular point group: c1

    Geometry (in Angstrom), charge = 0, multiplicity = 1:

    H           -1.383263154927    -1.897780443215     0.599532228647
    N           -0.594950613073    -1.307808151979     0.439251977772
    C           -1.026290591545    -0.017652831347    -0.086904739207
    H            0.001908287937    -1.785742200360    -0.201472371355
    C            0.109620773509     1.026370336826    -0.132829693243
    H           -1.784626101065     0.330363233850     0.603380049606
    H           -1.483690355306    -0.102603320390    -1.070630735041
    C            1.524310546906     0.450553253822    -0.204630165571
    H           -0.025554476824     1.633640328789    -1.021847996451
    H            0.042588323766     1.680825160304     0.727810803732
    H            1.658155392460    -0.171313803684    -1.085088307876
    H            2.248375276305     1.254887378049    -0.267755219947
    H            1.757484958166    -0.146418720089     0.665787281525

  Mulliken Charges: (a.u.)
   Center  Symbol    Alpha    Beta     Spin     Total
       1     H     0.42920  0.42920  0.00000  0.14159
       2     N     3.69098  3.69098  0.00000 -0.38195
       3     C     3.03285  3.03285  0.00000 -0.06570
       4     H     0.42793  0.42793  0.00000  0.14414
       5     C     3.07740  3.07740  0.00000 -0.15479
       6     H     0.45645  0.45645  0.00000  0.08709
       7     H     0.46354  0.46354  0.00000  0.07291
       8     C     3.15960  3.15960  0.00000 -0.31920
       9     H     0.45613  0.45613  0.00000  0.08773
      10     H     0.45384  0.45384  0.00000  0.09232
      11     H     0.45945  0.45945  0.00000  0.08110
      12     H     0.44850  0.44850  0.00000  0.10300
      13     H     0.44412  0.44412  0.00000  0.11175

   Total alpha = 17.00000, Total beta = 17.00000, Total charge =  0.00000

*** Psi4 exiting successfully. Buy a developer a beer!
