  ==> Input File <==

--------------------------------------------------------------------------
set {
	reference rhf
	basis cc-pvtz
}

set_num_threads( 4 )
memory 2 gb

molecule MOL {
0 1

H	 -3.982879	 0.333323	 1.183421
O	 -3.272469	 -0.221240	 0.918897
C	 -2.302264	 0.528872	 0.237390
C	 -1.175688	 -0.398187	 -0.171891
H	 -2.734069	 0.998811	 -0.643788
H	 -1.916467	 1.321416	 0.875249
C	 0.196029	 0.106276	 0.266738
H	 -1.201873	 -0.515469	 -1.250677
H	 -1.365975	 -1.378728	 0.252664
C	 1.330220	 -0.826136	 -0.155230
H	 0.359542	 1.097229	 -0.145561
H	 0.212134	 0.218135	 1.348778
C	 2.719700	 -0.407669	 0.328325
H	 1.339388	 -0.911200	 -1.239363
H	 1.119001	 -1.821953	 0.224128
C	 3.241564	 0.893452	 -0.276737
H	 3.418299	 -1.204729	 0.093035
H	 2.711776	 -0.323368	 1.411960
H	 3.254204	 0.841071	 -1.360784
H	 2.634460	 1.745075	 0.005842
H	 4.254264	 1.092401	 0.054971

	symmetry c1
}
set optking {
	frozen_dihedral = ("
		2 3 4 8
	")
}

ee = optimize('scf')
oeprop('DIPOLE', 'QUADRUPOLE', 'MULLIKEN_CHARGES')
f=open( 'psi4out.xyz', 'w' )
f.write( "21  " )
f.write( str(ee) + "\n" )
f.write( MOL.save_string_xyz() )
f.close()
--------------------------------------------------------------------------

    Molecular point group: c1
  Charge       = 0
  Multiplicity = 1
  Basis Set: CC-PVTZ
  Basis Set:
  @DF-RHF Final Energy:  -310.32713643879526
    Total Energy =                       -310.3271364387952644
    Molecular point group: c1
  Basis Set: CC-PVTZ
  Basis Set:
  Basis Set: CC-PVTZ
  Basis Set:
  @DF-RHF Final Energy:  -310.32747329397574
    Total Energy =                       -310.3274732939759701
  Basis Set: CC-PVTZ
  Basis Set:
  Basis Set: CC-PVTZ
  Basis Set:
  @DF-RHF Final Energy:  -310.32757638642767
    Total Energy =                       -310.3275763864275518
  Basis Set: CC-PVTZ
  Basis Set:
  Charge       = 0
  Multiplicity = 1
  Basis Set: CC-PVTZ
  Basis Set:

    Orbital Energies (a.u.)
    -----------------------

    Doubly Occupied:

       1A    -20.545163     2A    -11.265295     3A    -11.212302
       4A    -11.211596     5A    -11.210026     6A    -11.208970
       7A    -11.205578     8A     -1.362213     9A     -1.085694
      10A     -1.032004    11A     -0.954007    12A     -0.876485
      13A     -0.807838    14A     -0.778346    15A     -0.703102
      16A     -0.645735    17A     -0.630495    18A     -0.603105
      19A     -0.586383    20A     -0.573491    21A     -0.536270
      22A     -0.523923    23A     -0.509108    24A     -0.485685
      25A     -0.483233    26A     -0.460419    27A     -0.455045
      28A     -0.447140    29A     -0.428392

  @DF-RHF Final Energy:  -310.32757561822933

   => Energetics <=

    Nuclear Repulsion Energy =            313.1356148156898485
    One-Electron Energy =               -1041.2722960295736812
    Two-Electron Energy =                 417.8091055956545574
    DFT Exchange-Correlation Energy =       0.0000000000000000
    Empirical Dispersion Energy =           0.0000000000000000
    PCM Polarization Energy =               0.0000000000000000
    EFP Energy =                            0.0000000000000000
    Total Energy =                       -310.3275756182292184
    Molecular point group: c1
  Basis Set: CC-PVTZ
  Basis Set:

  -Total Gradient:
     Atom            X                  Y                   Z
    ------   -----------------  -----------------  -----------------
       1       -0.000020035877     0.000011001586     0.000022264595
       2        0.000687506343     0.000302751999     0.001205169569
       3       -0.000688308294    -0.000044489365    -0.001564666526
       4       -0.001119299677    -0.001825838127     0.000601975181
       5       -0.000006304817    -0.000011800819     0.000002623665
       6        0.000016963842     0.000006023802     0.000001181462
       7       -0.000007404019     0.000015937694    -0.000084455302
       8        0.001155221522     0.001521038039    -0.000199332479
       9       -0.000039534277    -0.000009768647    -0.000007104911
      10       -0.000018882219     0.000040448878    -0.000009947291
      11       -0.000031410045    -0.000066522397    -0.000016668028
      12       -0.000004215503     0.000047794948     0.000010880805
      13       -0.000035799192     0.000030716725     0.000081388765
      14       -0.000011223065     0.000039323868    -0.000003388437
      15        0.000014943740    -0.000030928852    -0.000035700626
      16        0.000031720155    -0.000005677337    -0.000012302730
      17        0.000009675423    -0.000003722145     0.000026108523
      18       -0.000003033538     0.000024268980     0.000003045879
      19       -0.000010110674     0.000009972577    -0.000014741511
      20        0.000076356976    -0.000031541142     0.000008490717
      21        0.000003173195    -0.000018990263    -0.000014821318

  **** Optimization is complete! (in 4 steps) ****
    Final optimized geometry and variables:
    Molecular point group: c1

    Geometry (in Angstrom), charge = 0, multiplicity = 1:

    H           -4.053255310683     0.360782701935     0.984839988651
    O           -3.329739438572    -0.190231279159     0.748958398118
    C           -2.358114014104     0.560366654257     0.064361950862
    C           -1.210629731687    -0.367098518927    -0.346322891802
    H           -2.796461216590     1.035957916074    -0.808299985007
    H           -1.983317345419     1.350583099225     0.709796832305
    C            0.164882073029     0.142629863406     0.079964471399
    H           -1.213179753942    -0.502893433021    -1.422872848474
    H           -1.397113053630    -1.336822466058     0.097822723888
    C            1.298075136842    -0.788779763836    -0.343886242344
    H            0.322912757993     1.132792163908    -0.337495687912
    H            0.180997815719     0.259628407239     1.161071746624
    C            2.687228720568    -0.377052849290     0.146826454620
    H            1.311418826332    -0.868306155204    -1.428666627212
    H            1.082801536756    -1.786248197540     0.029128366653
    C            3.218955094888     0.921022228079    -0.456042499241
    H            3.383283507016    -1.177517874490    -0.084407043880
    H            2.673835416354    -0.292213537622     1.230234782266
    H            3.233510233664     0.869514721052    -1.540151187336
    H            2.616975959484     1.776340652456    -0.173841943075
    H            4.232292512042     1.112945838332    -0.122157999990

  Mulliken Charges: (a.u.)
   Center  Symbol    Alpha    Beta     Spin     Total
       1     H     0.39574  0.39574  0.00000  0.20852
       2     O     4.19687  4.19687  0.00000 -0.39373
       3     C     2.96505  2.96505  0.00000  0.06990
       4     C     3.08956  3.08956  0.00000 -0.17912
       5     H     0.47265  0.47265  0.00000  0.05469
       6     H     0.47548  0.47548  0.00000  0.04904
       7     C     3.10091  3.10091  0.00000 -0.20182
       8     H     0.45383  0.45383  0.00000  0.09234
       9     H     0.44384  0.44384  0.00000  0.11233
      10     C     3.09639  3.09639  0.00000 -0.19279
      11     H     0.45360  0.45360  0.00000  0.09279
      12     H     0.45226  0.45226  0.00000  0.09548
      13     C     3.08994  3.08994  0.00000 -0.17987
      14     H     0.45431  0.45431  0.00000  0.09137
      15     H     0.44824  0.44824  0.00000  0.10351
      16     C     3.15225  3.15225  0.00000 -0.30450
      17     H     0.44863  0.44863  0.00000  0.10274
      18     H     0.45451  0.45451  0.00000  0.09099
      19     H     0.45515  0.45515  0.00000  0.08970
      20     H     0.45425  0.45425  0.00000  0.09151
      21     H     0.44655  0.44655  0.00000  0.10691

   Total alpha = 29.00000, Total beta = 29.00000, Total charge = -0.00000
