  ==> Input File <==

--------------------------------------------------------------------------
set {
	reference rhf
	basis cc-pvtz
}

set_num_threads( 4 )
memory 2 gb

molecule MOL {
0 1

H	 -2.698799	 -0.000846	 0.036018
C	 -1.694291	 -0.000483	 0.434279
O	 -0.828718	 -0.000608	 -0.655022
H	 -1.576855	 0.881100	 1.056504
H	 -1.576401	 -0.881658	 1.057001
C	 -0.888406	 -1.067635	 -1.569225
C	 -0.505746	 -2.401635	 -0.938126
C	 -2.222909	 -1.136064	 -2.303165
H	 -0.125324	 -0.814834	 -2.294770
H	 0.426124	 -2.307798	 -0.394185
H	 -0.374564	 -3.149747	 -1.711344
H	 -1.266078	 -2.766086	 -0.257205
H	 -2.481853	 -0.164590	 -2.705942
H	 -2.154207	 -1.838256	 -3.125953
H	 -3.028806	 -1.466823	 -1.658440

	symmetry c1
}
set optking {
	frozen_dihedral = ("
		6 3 2 1
	")
}

ee = optimize('scf')
oeprop('DIPOLE', 'QUADRUPOLE', 'MULLIKEN_CHARGES')
f=open( 'psi4out.xyz', 'w' )
f.write( "15  " )
f.write( str(ee) + "\n" )
f.write( MOL.save_string_xyz() )
f.close()
--------------------------------------------------------------------------

    Molecular point group: c1
  Charge       = 0
  Multiplicity = 1
  Basis Set: CC-PVTZ
  Basis Set:
  @DF-RHF Final Energy:  -232.22383589963724
    Total Energy =                       -232.2238358996372085
    Molecular point group: c1
  Basis Set: CC-PVTZ
  Basis Set:
  Basis Set: CC-PVTZ
  Basis Set:
  @DF-RHF Final Energy:  -232.22573934542936
    Total Energy =                       -232.2257393454294174
  Basis Set: CC-PVTZ
  Basis Set:
  Basis Set: CC-PVTZ
  Basis Set:
  @DF-RHF Final Energy:  -232.22617102082185
    Total Energy =                       -232.2261710208218801
  Basis Set: CC-PVTZ
  Basis Set:
  Basis Set: CC-PVTZ
  Basis Set:
  @DF-RHF Final Energy:  -232.22617321969184
    Total Energy =                       -232.2261732196920434
  Basis Set: CC-PVTZ
  Basis Set:
  Basis Set: CC-PVTZ
  Basis Set:
  @DF-RHF Final Energy:  -232.22617787599174
    Total Energy =                       -232.2261778759917661
  Basis Set: CC-PVTZ
  Basis Set:
  Charge       = 0
  Multiplicity = 1
  Basis Set: CC-PVTZ
  Basis Set:

    Orbital Energies (a.u.)
    -----------------------

    Doubly Occupied:

       1A    -20.541897     2A    -11.272634     3A    -11.258503
       4A    -11.208781     5A    -11.208577     6A     -1.373605
       7A     -1.051634     8A     -0.940190     9A     -0.931675
      10A     -0.781490    11A     -0.675601    12A     -0.642363
      13A     -0.635230    14A     -0.574058    15A     -0.565760
      16A     -0.552830    17A     -0.533747    18A     -0.497845
      19A     -0.497434    20A     -0.444814    21A     -0.409649

  @DF-RHF Final Energy:  -232.22617804324582

   => Energetics <=

    Nuclear Repulsion Energy =            199.0256303776934885
    One-Electron Energy =                -709.3069805810207527
    Two-Electron Energy =                 278.0551721600814403
    DFT Exchange-Correlation Energy =       0.0000000000000000
    Empirical Dispersion Energy =           0.0000000000000000
    PCM Polarization Energy =               0.0000000000000000
    EFP Energy =                            0.0000000000000000
    Total Energy =                       -232.2261780432458522
    Molecular point group: c1
  Basis Set: CC-PVTZ
  Basis Set:

  -Total Gradient:
     Atom            X                  Y                   Z
    ------   -----------------  -----------------  -----------------
       1        0.000015058046    -0.000076431419    -0.000004664605
       2       -0.000015862233     0.000132644061     0.000016447690
       3        0.000048015676    -0.000097045236     0.000055097343
       4       -0.000003387376    -0.000003762789     0.000002667021
       5       -0.000004098648     0.000008176261    -0.000008252054
       6       -0.000035930716     0.000038011679    -0.000068903183
       7       -0.000005473776     0.000003892006     0.000006010425
       8        0.000005923288    -0.000008651531     0.000009478629
       9       -0.000000625002    -0.000006087653    -0.000012049986
      10       -0.000005560788     0.000005513964     0.000005276790
      11        0.000000934640     0.000005378847     0.000003491660
      12       -0.000001130860    -0.000004978058    -0.000002462654
      13       -0.000005927343     0.000002211506     0.000005396204
      14        0.000005424816     0.000005681723     0.000001857505
      15        0.000002640278    -0.000004553363    -0.000009390785

  **** Optimization is complete! (in 6 steps) ****
    Final optimized geometry and variables:
    Molecular point group: c1

    Geometry (in Angstrom), charge = 0, multiplicity = 1:

    H           -1.506879342525     0.891494833576     1.123902861018
    C           -0.463884849024     0.903775131534     1.424190118608
    O            0.402542744911     0.917062901894     0.335743666969
    H           -0.283302280506     1.812822596079     1.979827024566
    H           -0.284740371644     0.061377051960     2.084928334836
    C            0.357054131914    -0.147939796525    -0.581522081343
    C            0.734582994177    -1.483073688879     0.050311761468
    C           -0.968054397471    -0.217275853589    -1.332439959931
    H            1.128355123792     0.108367904349    -1.297080265222
    H            1.659343814364    -1.389255591015     0.606376492067
    H            0.876976976694    -2.228629684033    -0.723411792264
    H           -0.033723126531    -1.850809475213     0.720509727046
    H           -1.224283645173     0.755099018143    -1.734828362224
    H           -0.887205866484    -0.916313929015    -2.156875731202
    H           -1.781267713458    -0.552437616513    -0.699267073917

  Mulliken Charges: (a.u.)
   Center  Symbol    Alpha    Beta     Spin     Total
       1     H     0.47060  0.47060  0.00000  0.05881
       2     C     3.03888  3.03888  0.00000 -0.07775
       3     O     4.18302  4.18302  0.00000 -0.36604
       4     H     0.44078  0.44078  0.00000  0.11844
       5     H     0.47018  0.47018  0.00000  0.05964
       6     C     2.93322  2.93322  0.00000  0.13356
       7     C     3.15914  3.15914  0.00000 -0.31828
       8     C     3.15816  3.15816  0.00000 -0.31631
       9     H     0.44701  0.44701  0.00000  0.10598
      10     H     0.44383  0.44383  0.00000  0.11235
      11     H     0.44947  0.44947  0.00000  0.10106
      12     H     0.45591  0.45591  0.00000  0.08819
      13     H     0.44391  0.44391  0.00000  0.11218
      14     H     0.44985  0.44985  0.00000  0.10031
      15     H     0.45606  0.45606  0.00000  0.08788

   Total alpha = 21.00000, Total beta = 21.00000, Total charge = -0.00000
