  ==> Input File <==

--------------------------------------------------------------------------
set {
	reference rhf
	basis 6-31G*
}

set_num_threads( 4 )
memory 2 gb

molecule MOL {
0 1

H	 -1.836216	 1.387520	 -0.000064
C	 -1.301823	 0.443321	 -0.000031
O	 -0.003969	 0.658512	 0.000451
O	 -1.829879	 -0.616434	 -0.000857
C	 0.850537	 -0.484732	 0.000380
C	 2.265264	 0.005927	 -0.218982
H	 0.532445	 -1.157615	 -0.784071
H	 0.745467	 -0.999097	 0.945728
H	 2.349832	 0.525423	 -1.166614
H	 2.949761	 -0.835884	 -0.226287
H	 2.564040	 0.684733	 0.571488

	symmetry c1
}
set optking {
	frozen_dihedral = ("
		7 5 3 2
	")
}

ee = optimize('scf')
oeprop('DIPOLE', 'QUADRUPOLE', 'MULLIKEN_CHARGES')
f=open( 'psi4out.xyz', 'w' )
f.write( "11  " )
f.write( str(ee) + "\n" )
f.write( MOL.save_string_xyz() )
f.close()
--------------------------------------------------------------------------

    Molecular point group: c1
  Charge       = 0
  Multiplicity = 1
  Basis Set: 6-31G*
  Basis Set:
  @DF-RHF Final Energy:  -266.82886189751684
    Total Energy =                       -266.8288618975167310
    Molecular point group: c1
  Basis Set: 6-31G*
  Basis Set:
  Basis Set: 6-31G*
  Basis Set:
  @DF-RHF Final Energy:  -266.82886180985020
    Total Energy =                       -266.8288618098502525
  Basis Set: 6-31G*
  Basis Set:
  Basis Set: 6-31G*
  Basis Set:
  @DF-RHF Final Energy:  -266.82859442760059
    Total Energy =                       -266.8285944276005921
  Basis Set: 6-31G*
  Basis Set:
  Basis Set: 6-31G*
  Basis Set:
  @DF-RHF Final Energy:  -266.82887907079004
    Total Energy =                       -266.8288790707903217
  Basis Set: 6-31G*
  Basis Set:
  Charge       = 0
  Multiplicity = 1
  Basis Set: 6-31G*
  Basis Set:

    Orbital Energies (a.u.)
    -----------------------

    Doubly Occupied:

       1A    -20.612936     2A    -20.557006     3A    -11.378435
       4A    -11.291796     5A    -11.226895     6A     -1.476302
       7A     -1.374004     8A     -1.052816     9A     -0.902786
      10A     -0.805522    11A     -0.737781    12A     -0.690042
      13A     -0.677769    14A     -0.591270    15A     -0.575932
      16A     -0.557152    17A     -0.519278    18A     -0.513691
      19A     -0.459894    20A     -0.454364

  @DF-RHF Final Energy:  -266.82888058492273

   => Energetics <=

    Nuclear Repulsion Energy =            179.2966369102466047
    One-Electron Energy =                -719.3396968738964006
    Two-Electron Energy =                 273.2141793787270672
    DFT Exchange-Correlation Energy =       0.0000000000000000
    Empirical Dispersion Energy =           0.0000000000000000
    PCM Polarization Energy =               0.0000000000000000
    EFP Energy =                            0.0000000000000000
    Total Energy =                       -266.8288805849226719
    Molecular point group: c1
  Basis Set: 6-31G*
  Basis Set:

  -Total Gradient:
     Atom            X                  Y                   Z
    ------   -----------------  -----------------  -----------------
       1        0.000009468403     0.000002671561     0.000011325253
       2       -0.000019527057     0.000000100325    -0.000713268157
       3       -0.000121564141    -0.000091500032     0.001110481205
       4        0.000018999214     0.000001271327     0.000002691882
       5        0.000600137246     0.000450159994    -0.000905972239
       6        0.000000187506     0.000002842071    -0.000005843484
       7       -0.000486123412    -0.000364864570     0.000505138664
       8        0.000000883054     0.000001346560    -0.000003083042
       9        0.000001523181     0.000001292807    -0.000000771306
      10       -0.000000814322    -0.000001224905     0.000000277895
      11       -0.000003169676    -0.000002095141    -0.000000976670

  **** Optimization is complete! (in 5 steps) ****
    Final optimized geometry and variables:
    Molecular point group: c1

    Geometry (in Angstrom), charge = 0, multiplicity = 1:

    H           -1.832041888804     1.390832164303     0.035764928535
    C           -1.299495449936     0.445671503189     0.045180657925
    O           -0.001267237078     0.658876179962     0.041112201485
    O           -1.829920331483    -0.612848036464     0.058078461729
    C            0.854612939577    -0.483508681326     0.034288153973
    C            2.270037095074     0.008623882370    -0.176281106239
    H            0.537012504304    -1.156274798186    -0.749452964404
    H            0.747363566039    -1.000428175054     0.978826752339
    H            2.359704600254     0.526804681412    -1.124109782016
    H            2.955654740200    -0.832358593425    -0.177783550068
    H            2.562779089681     0.688762389815     0.615254212705

  Mulliken Charges: (a.u.)
   Center  Symbol    Alpha    Beta     Spin     Total
       1     H     0.41035  0.41035  0.00000  0.17931
       2     C     2.72759  2.72759  0.00000  0.54482
       3     O     4.29120  4.29120  0.00000 -0.58239
       4     O     4.26323  4.26323  0.00000 -0.52645
       5     C     3.00682  3.00682  0.00000 -0.01363
       6     C     3.24931  3.24931  0.00000 -0.49862
       7     H     0.40588  0.40588  0.00000  0.18825
       8     H     0.40984  0.40984  0.00000  0.18032
       9     H     0.41061  0.41061  0.00000  0.17878
      10     H     0.41501  0.41501  0.00000  0.16998
      11     H     0.41018  0.41018  0.00000  0.17964

   Total alpha = 20.00000, Total beta = 20.00000, Total charge =  0.00000
