                              Psi4 1.0.54 Driver

  ==> Input File <==

--------------------------------------------------------------------------
set {
	reference rhf
	basis cc-pvtz
}

set_num_threads( 4 )
memory 2 gb

molecule MOL {
0 1

H	 -3.436473	 1.252944	 -1.023892
O	 -3.458596	 0.315260	 -0.960865
C	 -3.176635	 -0.080824	 0.355601
C	 -1.763371	 0.265266	 0.799691
H	 -3.321825	 -1.153438	 0.379502
H	 -3.895468	 0.357385	 1.043382
C	 -0.673390	 -0.426948	 -0.013392
H	 -1.631049	 1.344913	 0.747560
H	 -1.664587	 -0.001624	 1.849167
C	 0.737842	 -0.043159	 0.423759
H	 -0.806103	 -0.190518	 -1.063345
H	 -0.797221	 -1.503753	 0.074146
C	 1.824000	 -0.743224	 -0.390623
H	 0.850588	 1.033777	 0.343840
H	 0.868587	 -0.286314	 1.476203
C	 3.255957	 -0.453067	 0.062319
H	 1.718250	 -0.470599	 -1.438164
H	 1.658105	 -1.815850	 -0.339904
C	 3.467755	 0.936557	 0.658330
H	 3.915802	 -0.568403	 -0.792127
H	 3.562797	 -1.205167	 0.784548
H	 3.163617	 1.709857	 -0.039943
H	 4.513492	 1.098508	 0.893803
H	 2.903714	 1.076417	 1.572607

	symmetry c1
}
set optking {
	frozen_dihedral = ("
		20 16 13 17
	")
}

ee,wfn = optimize('scf', return_wfn=True)
oeprop( wfn, 'DIPOLE', 'QUADRUPOLE', 'MULLIKEN_CHARGES')
f=open( 'psi4out.xyz', 'w' )
f.write( "24  " )
f.write( str(ee) + "\n" )
f.write( MOL.save_string_xyz() )
f.close()
--------------------------------------------------------------------------

    Molecular point group: c1
  Charge       = 0
  Multiplicity = 1
  Basis Set: CC-PVTZ
  Basis Set:
  @DF-RHF Final Energy:  -349.37562719241248
    Total Energy =                       -349.3756271924125372
    Molecular point group: c1
  Basis Set: CC-PVTZ
  Basis Set:
  Basis Set: CC-PVTZ
  Basis Set:
  @DF-RHF Final Energy:  -349.32902865518753
    Total Energy =                       -349.3290286551878694
  Basis Set: CC-PVTZ
  Basis Set:
  Basis Set: CC-PVTZ
  Basis Set:
  @DF-RHF Final Energy:  -349.37459055175378
    Total Energy =                       -349.3745905517542951
  Basis Set: CC-PVTZ
  Basis Set:
  Basis Set: CC-PVTZ
  Basis Set:
  @DF-RHF Final Energy:  -349.37644468495915
    Total Energy =                       -349.3764446849590399
  Basis Set: CC-PVTZ
  Basis Set:
  Basis Set: CC-PVTZ
  Basis Set:
  @DF-RHF Final Energy:  -349.37652013931046
    Total Energy =                       -349.3765201393104007
  Basis Set: CC-PVTZ
  Basis Set:
  Basis Set: CC-PVTZ
  Basis Set:
  @DF-RHF Final Energy:  -349.37653548809357
    Total Energy =                       -349.3765354880935092
  Basis Set: CC-PVTZ
  Basis Set:
  Basis Set: CC-PVTZ
  Basis Set:
  @DF-RHF Final Energy:  -349.37654077288482
    Total Energy =                       -349.3765407728847094
  Basis Set: CC-PVTZ
  Basis Set:
  Charge       = 0
  Multiplicity = 1
  Basis Set: CC-PVTZ
  Basis Set:

    Orbital Energies (a.u.)
    -----------------------

    Doubly Occupied:

       1A    -20.546270     2A    -11.265518     3A    -11.215162
       4A    -11.212391     5A    -11.210477     6A    -11.209398
       7A    -11.208969     8A    -11.204828     9A     -1.364131
      10A     -1.089172    11A     -1.048188    12A     -0.986185
      13A     -0.916102    14A     -0.854211    15A     -0.802619
      16A     -0.770844    17A     -0.681918    18A     -0.655945
      19A     -0.629742    20A     -0.619751    21A     -0.594360
      22A     -0.587375    23A     -0.556091    24A     -0.544728
      25A     -0.514823    26A     -0.507563    27A     -0.503884
      28A     -0.472948    29A     -0.468452    30A     -0.459882
      31A     -0.451946    32A     -0.450587    33A     -0.421637

  @DF-RHF Final Energy:  -349.37654098303210

   => Energetics <=

    Nuclear Repulsion Energy =            385.6056672680855399
    One-Electron Energy =               -1237.9122162210032911
    Two-Electron Energy =                 502.9300079698855370
    DFT Exchange-Correlation Energy =       0.0000000000000000
    Empirical Dispersion Energy =           0.0000000000000000
    PCM Polarization Energy =               0.0000000000000000
    EFP Energy =                            0.0000000000000000
    Total Energy =                       -349.3765409830322142
    Molecular point group: c1
  Basis Set: CC-PVTZ
  Basis Set:

  -Total Gradient:
     Atom            X                  Y                   Z
    ------   -----------------  -----------------  -----------------
       1       -0.000000337415    -0.000004812724     0.000002384877
       2        0.000000354924     0.000006534902     0.000001064230
       3        0.000000637484    -0.000006848823     0.000005462571
       4        0.000001462447    -0.000002885829     0.000004839628
       5       -0.000000240385     0.000003706444    -0.000002810424
       6       -0.000000071286    -0.000000015876    -0.000002943908
       7       -0.000000955266    -0.000004869044     0.000001186904
       8        0.000002721242    -0.000006423477    -0.000000140470
       9       -0.000002162371     0.000001891603    -0.000002028344
      10       -0.000007619732     0.000019913673    -0.000015918242
      11        0.000003210173     0.000002667175     0.000004675165
      12       -0.000005801217     0.000001738560    -0.000001840338
      13       -0.002174552499     0.008252585863    -0.001282404170
      14        0.000000845831    -0.000000106162     0.000002978882
      15        0.000001378759    -0.000006235911    -0.000013246640
      16        0.001160429785    -0.007441614480     0.004135455461
      17        0.001637530065    -0.005807060721     0.000468165033
      18        0.000002423539     0.000004439698    -0.000004962788
      19        0.000001682032    -0.000011570963    -0.000000762608
      20       -0.000629154682     0.004993078173    -0.003299020058
      21        0.000006826906     0.000004446819    -0.000003178571
      22        0.000006804566    -0.000002027156     0.000003253883
      23       -0.000002811058     0.000001033138     0.000000912825
      24       -0.000002601838     0.000002435116    -0.000001122900

  **** Optimization is complete! (in 8 steps) ****
    Final optimized geometry and variables:
    Molecular point group: c1

    Geometry (in Angstrom), charge = 0, multiplicity = 1:

    H           -3.419185346008     0.668522548793    -1.558086078641
    O           -3.405262831998    -0.200375683806    -1.199626780791
    C           -3.167532724654    -0.142034447118     0.182145280504
    C           -1.791465532940     0.402609405087     0.534558545435
    H           -3.269177788519    -1.157803551356     0.542741006604
    H           -3.934580653266     0.452454206243     0.672065484449
    C           -0.637902265262    -0.451182902742     0.016206409851
    H           -1.702329385655     1.415895737350     0.145823272080
    H           -1.729104599483     0.486897487261     1.616880036310
    C            0.734666804500     0.125334422417     0.353614833010
    H           -0.730963696305    -0.563560394153    -1.058363752430
    H           -0.722289885361    -1.450970648187     0.435248095820
    C            1.878342420052    -0.737253736331    -0.170946294344
    H            0.806135167035     1.128445030650    -0.054619630319
    H            0.825826464989     0.228396142176     1.432875984427
    C            3.303483220019    -0.303126949650     0.215203787420
    H            1.812345902310    -0.841154654957    -1.250617755430
    H            1.734100769677    -1.749269719200     0.200313408571
    C            3.541900451590     1.207354548798     0.253300541207
    H            3.988862972251    -0.704998312048    -0.523698553008
    H            3.571745841539    -0.727177113096     1.176876016093
    H            3.290328628620     1.670355599398    -0.695555526449
    H            4.586460488273     1.418186384581     0.453011624933
    H            2.957689249725     1.694960236663     1.024013533439

  Mulliken Charges: (a.u.)
   Center  Symbol    Alpha    Beta     Spin     Total
       1     H     0.39531  0.39531  0.00000  0.20937
       2     O     4.20376  4.20376  0.00000 -0.40752
       3     C     2.97784  2.97784  0.00000  0.04431
       4     C     3.10172  3.10172  0.00000 -0.20343
       5     H     0.45888  0.45888  0.00000  0.08223
       6     H     0.46030  0.46030  0.00000  0.07940
       7     C     3.08838  3.08838  0.00000 -0.17677
       8     H     0.45918  0.45918  0.00000  0.08164
       9     H     0.45354  0.45354  0.00000  0.09292
      10     C     3.09110  3.09110  0.00000 -0.18220
      11     H     0.44650  0.44650  0.00000  0.10700
      12     H     0.45480  0.45480  0.00000  0.09041
      13     C     3.09673  3.09673  0.00000 -0.19346
      14     H     0.45150  0.45150  0.00000  0.09700
      15     H     0.45488  0.45488  0.00000  0.09024
      16     C     3.08832  3.08832  0.00000 -0.17663
      17     H     0.45158  0.45158  0.00000  0.09684
      18     H     0.45260  0.45260  0.00000  0.09480
      19     C     3.15780  3.15780  0.00000 -0.31561
      20     H     0.45082  0.45082  0.00000  0.09836
      21     H     0.45214  0.45214  0.00000  0.09571
      22     H     0.45412  0.45412  0.00000  0.09177
      23     H     0.44549  0.44549  0.00000  0.10903
      24     H     0.45271  0.45271  0.00000  0.09458

   Total alpha = 33.00000, Total beta = 33.00000, Total charge =  0.00000

*** Psi4 exiting successfully. Buy a developer a beer!
