  ==> Input File <==

--------------------------------------------------------------------------
set {
	reference rhf
	basis 6-31G*
}

set_num_threads( 4 )
memory 2 gb

molecule MOL {
0 1

H	 -3.420663	 1.227371	 -1.044276
O	 -3.452007	 0.283848	 -0.965577
C	 -3.181085	 -0.079926	 0.364119
C	 -1.765924	 0.277073	 0.805136
H	 -3.327791	 -1.152017	 0.410903
H	 -3.905698	 0.375695	 1.036898
C	 -0.677594	 -0.417312	 -0.014550
H	 -1.637766	 1.358238	 0.744969
H	 -1.659588	 0.017670	 1.857098
C	 0.738335	 -0.034840	 0.421385
H	 -0.814977	 -0.178223	 -1.064632
H	 -0.802730	 -1.495410	 0.071702
C	 1.822265	 -0.738362	 -0.399735
H	 0.853533	 1.043532	 0.342250
H	 0.871597	 -0.279636	 1.474438
C	 1.294316	 -1.622943	 -1.535051
H	 2.442814	 -1.338946	 0.263524
H	 2.479179	 0.016143	 -0.827524
C	 0.498914	 -2.844872	 -1.071769
H	 2.139848	 -1.962598	 -2.128347
H	 0.678414	 -1.022743	 -2.201854
H	 1.085924	 -3.457840	 -0.392926
H	 0.218703	 -3.465671	 -1.917303
H	 -0.414711	 -2.564398	 -0.558165

	symmetry c1
}
set optking {
	frozen_dihedral = ("
		17 13 10 7
	")
}

ee = optimize('scf')
oeprop('DIPOLE', 'QUADRUPOLE', 'MULLIKEN_CHARGES')
f=open( 'psi4out.xyz', 'w' )
f.write( "24  " )
f.write( str(ee) + "\n" )
f.write( MOL.save_string_xyz() )
f.close()
--------------------------------------------------------------------------

    Molecular point group: c1
  Charge       = 0
  Multiplicity = 1
  Basis Set: 6-31G*
  Basis Set:
  @DF-RHF Final Energy:  -349.20893432485406
    Total Energy =                       -349.2089343248542264
    Molecular point group: c1
  Basis Set: 6-31G*
  Basis Set:
  Basis Set: 6-31G*
  Basis Set:
  @DF-RHF Final Energy:  -349.22899234630950
    Total Energy =                       -349.2289923463099512
  Basis Set: 6-31G*
  Basis Set:
  Basis Set: 6-31G*
  Basis Set:
  @DF-RHF Final Energy:  -349.23356959088545
    Total Energy =                       -349.2335695908852813
  Basis Set: 6-31G*
  Basis Set:
  Basis Set: 6-31G*
  Basis Set:
  @DF-RHF Final Energy:  -349.23452177152660
    Total Energy =                       -349.2345217715268291
  Basis Set: 6-31G*
  Basis Set:
  @DF-RHF Final Energy:  -349.23518301518357
    Total Energy =                       -349.2351830151836793
  Basis Set: 6-31G*
  Basis Set:
  @DF-RHF Final Energy:  -349.23527554534508
    Total Energy =                       -349.2352755453446775
  Basis Set: 6-31G*
  Basis Set:
  Basis Set: 6-31G*
  Basis Set:
  @DF-RHF Final Energy:  -349.23534211428478
    Total Energy =                       -349.2353421142844354
  Basis Set: 6-31G*
  Basis Set:
  Basis Set: 6-31G*
  Basis Set:
  @DF-RHF Final Energy:  -349.23538982078571
    Total Energy =                       -349.2353898207858265
  Basis Set: 6-31G*
  Basis Set:
  Charge       = 0
  Multiplicity = 1
  Basis Set: 6-31G*
  Basis Set:

    Orbital Energies (a.u.)
    -----------------------

    Doubly Occupied:

       1A    -20.553861     2A    -11.267901     3A    -11.217543
       4A    -11.213632     5A    -11.212593     6A    -11.212032
       7A    -11.210880     8A    -11.204952     9A     -1.360414
      10A     -1.084585    11A     -1.044861    12A     -0.982682
      13A     -0.918323    14A     -0.850084    15A     -0.810260
      16A     -0.762515    17A     -0.680203    18A     -0.652474
      19A     -0.618216    20A     -0.616367    21A     -0.608375
      22A     -0.580607    23A     -0.554221    24A     -0.541172
      25A     -0.513965    26A     -0.512648    27A     -0.495056
      28A     -0.481872    29A     -0.468770    30A     -0.456910
      31A     -0.442757    32A     -0.442593    33A     -0.420534

  @DF-RHF Final Energy:  -349.23539073666541

   => Energetics <=

    Nuclear Repulsion Energy =            392.8227449170054797
    One-Electron Energy =               -1252.1285527660761545
    Two-Electron Energy =                 510.0704171124055506
    DFT Exchange-Correlation Energy =       0.0000000000000000
    Empirical Dispersion Energy =           0.0000000000000000
    PCM Polarization Energy =               0.0000000000000000
    EFP Energy =                            0.0000000000000000
    Total Energy =                       -349.2353907366651242
    Molecular point group: c1
  Basis Set: 6-31G*
  Basis Set:

  -Total Gradient:
     Atom            X                  Y                   Z
    ------   -----------------  -----------------  -----------------
       1       -0.000000725247     0.000006899882     0.000003639195
       2       -0.000026286279     0.000012985478     0.000024805397
       3        0.000011120741    -0.000075165245    -0.000006925805
       4        0.000026485660     0.000073262689    -0.000005635331
       5       -0.000010349458    -0.000006045190    -0.000020115624
       6        0.000010551355    -0.000006640426     0.000001462596
       7       -0.000019280330    -0.000491969435     0.000352687157
       8       -0.000013748509     0.000015640055    -0.000022364327
       9        0.000023260448     0.000020530673    -0.000018906154
      10       -0.000042582715     0.000455744784    -0.000548877098
      11        0.000056779048     0.000005051372     0.000001255273
      12       -0.000012045812     0.000063224377     0.000020308520
      13        0.000463453389     0.000493562580     0.000288079429
      14       -0.000015144435     0.000002638983    -0.000013594666
      15        0.000015965388    -0.000024031924     0.000005894558
      16       -0.000037476068     0.000022525729     0.000029892395
      17       -0.000449336500    -0.000558391367    -0.000077659228
      18        0.000009375304     0.000009859326    -0.000006006887
      19       -0.000007194970    -0.000039843124     0.000042157576
      20        0.000011125462     0.000017877908     0.000001018651
      21       -0.000038718115     0.000033799902     0.000002405277
      22       -0.000009224219    -0.000025316249     0.000016910675
      23       -0.000009779439     0.000021143470     0.000007913807
      24        0.000063775302    -0.000027344250    -0.000078345386

  **** Optimization is complete! (in 9 steps) ****
    Final optimized geometry and variables:
    Molecular point group: c1

    Geometry (in Angstrom), charge = 0, multiplicity = 1:

    H           -2.817276770319     2.080734796498    -0.650393871386
    O           -2.922843219380     1.144952381518    -0.547802167962
    C           -2.626305120586     0.787624810108     0.778294427467
    C           -1.168189265416     1.031491060819     1.151386274692
    H           -2.861674918036    -0.266508142350     0.857739557450
    H           -3.279748469084     1.317997744491     1.468858816872
    C           -0.180263994750     0.224609145427     0.305875156291
    H           -0.951273316719     2.095791304851     1.056068771156
    H           -1.039441208600     0.789464336104     2.204969468517
    C            1.272586628136     0.513473776085     0.699800373823
    H           -0.346909338686     0.457905053802    -0.739367575230
    H           -0.405040248785    -0.830478800266     0.427191212094
    C            2.412640183486    -0.197379438339    -0.088989893013
    H            1.424357575769     1.587126721306     0.620431361079
    H            1.386361134542     0.285070366142     1.756564316752
    C            2.045979407575    -1.096266028054    -1.283670996566
    H            2.997878301136    -0.797051925574     0.603357575254
    H            3.089753807771     0.570391468517    -0.450795650836
    C            1.635574558069    -2.522196911870    -0.907825007463
    H            2.920619107861    -1.162076358894    -1.926134347827
    H            1.271182392593    -0.634891734880    -1.887563307314
    H            2.439549040784    -3.024393905121    -0.376480924882
    H            1.412845769139    -3.106456741146    -1.795684727889
    H            0.758230520709    -2.547395799398    -0.272171629641

  Mulliken Charges: (a.u.)
   Center  Symbol    Alpha    Beta     Spin     Total
       1     H     0.28335  0.28335  0.00000  0.43331
       2     O     4.36832  4.36832  0.00000 -0.73665
       3     C     2.99616  2.99616  0.00000  0.00768
       4     C     3.16880  3.16880  0.00000 -0.33761
       5     H     0.41639  0.41639  0.00000  0.16722
       6     H     0.42806  0.42806  0.00000  0.14387
       7     C     3.15642  3.15642  0.00000 -0.31285
       8     H     0.42833  0.42833  0.00000  0.14334
       9     H     0.42243  0.42243  0.00000  0.15513
      10     C     3.15585  3.15585  0.00000 -0.31171
      11     H     0.41064  0.41064  0.00000  0.17873
      12     H     0.42116  0.42116  0.00000  0.15767
      13     C     3.15790  3.15790  0.00000 -0.31581
      14     H     0.42306  0.42306  0.00000  0.15388
      15     H     0.42249  0.42249  0.00000  0.15502
      16     C     3.15597  3.15597  0.00000 -0.31194
      17     H     0.42182  0.42182  0.00000  0.15635
      18     H     0.42009  0.42009  0.00000  0.15982
      19     C     3.23973  3.23973  0.00000 -0.47945
      20     H     0.42127  0.42127  0.00000  0.15747
      21     H     0.41893  0.41893  0.00000  0.16214
      22     H     0.42308  0.42308  0.00000  0.15383
      23     H     0.41982  0.41982  0.00000  0.16036
      24     H     0.41990  0.41990  0.00000  0.16020

   Total alpha = 33.00000, Total beta = 33.00000, Total charge =  0.00000
