  ==> Input File <==

--------------------------------------------------------------------------
set {
	reference rhf
	basis cc-pvtz
}

set_num_threads( 4 )
memory 2 gb

molecule MOL {
0 1

H	 0.401447	 2.659561	 0.882102
C	 0.882231	 1.720998	 0.574232
C	 0.062554	 0.862911	 -0.350953
O	 1.966629	 1.456403	 0.963108
C	 -1.339253	 0.577611	 0.196911
H	 0.607026	 -0.052135	 -0.545204
H	 -0.023773	 1.407903	 -1.288292
C	 -1.813142	 -0.849710	 -0.061612
H	 -2.032833	 1.276441	 -0.256032
H	 -1.357249	 0.782269	 1.263793
H	 -1.839268	 -1.063526	 -1.124230
H	 -2.810118	 -1.001930	 0.334000
H	 -1.159274	 -1.579980	 0.402282

	symmetry c1
}
set optking {
	frozen_dihedral = ("
		6 3 5 9
	")
}

ee = optimize('scf')
oeprop('DIPOLE', 'QUADRUPOLE', 'MULLIKEN_CHARGES')
f=open( 'psi4out.xyz', 'w' )
f.write( "13  " )
f.write( str(ee) + "\n" )
f.write( MOL.save_string_xyz() )
f.close()
--------------------------------------------------------------------------

    Molecular point group: c1
  Charge       = 0
  Multiplicity = 1
  Basis Set: CC-PVTZ
  Basis Set:
  @DF-RHF Final Energy:  -231.06688252655277
    Total Energy =                       -231.0668825265526891
    Molecular point group: c1
  Basis Set: CC-PVTZ
  Basis Set:
  Basis Set: CC-PVTZ
  Basis Set:
  @DF-RHF Final Energy:  -231.06665691476422
    Total Energy =                       -231.0666569147641667
  Basis Set: CC-PVTZ
  Basis Set:
  Basis Set: CC-PVTZ
  Basis Set:
  @DF-RHF Final Energy:  -231.06450894653867
    Total Energy =                       -231.0645089465386377
  Basis Set: CC-PVTZ
  Basis Set:
  Basis Set: CC-PVTZ
  Basis Set:
  @DF-RHF Final Energy:  -231.06725316175240
    Total Energy =                       -231.0672531617522907
  Basis Set: CC-PVTZ
  Basis Set:
  Basis Set: CC-PVTZ
  Basis Set:
  @DF-RHF Final Energy:  -231.06728064605019
    Total Energy =                       -231.0672806460503352
  Basis Set: CC-PVTZ
  Basis Set:
  Basis Set: CC-PVTZ
  Basis Set:
  @DF-RHF Final Energy:  -231.06728473583621
    Total Energy =                       -231.0672847358362105
  Basis Set: CC-PVTZ
  Basis Set:
  Basis Set: CC-PVTZ
  Basis Set:
  @DF-RHF Final Energy:  -231.06728662200911
    Total Energy =                       -231.0672866220089361
  Basis Set: CC-PVTZ
  Basis Set:
  Charge       = 0
  Multiplicity = 1
  Basis Set: CC-PVTZ
  Basis Set:

    Orbital Energies (a.u.)
    -----------------------

    Doubly Occupied:

       1A    -20.551949     2A    -11.322066     3A    -11.237416
       4A    -11.234502     5A    -11.221506     6A     -1.407024
       7A     -1.086102     8A     -0.977364     9A     -0.840138
      10A     -0.796109    11A     -0.675324    12A     -0.645669
      13A     -0.637357    14A     -0.586866    15A     -0.557453
      16A     -0.540923    17A     -0.507496    18A     -0.494920
      19A     -0.481858    20A     -0.413345

  @DF-RHF Final Energy:  -231.06728711305595

   => Energetics <=

    Nuclear Repulsion Energy =            170.9154594280830111
    One-Electron Energy =                -651.5347188240309606
    Two-Electron Energy =                 249.5519722828921090
    DFT Exchange-Correlation Energy =       0.0000000000000000
    Empirical Dispersion Energy =           0.0000000000000000
    PCM Polarization Energy =               0.0000000000000000
    EFP Energy =                            0.0000000000000000
    Total Energy =                       -231.0672871130558406
    Molecular point group: c1
  Basis Set: CC-PVTZ
  Basis Set:

  -Total Gradient:
     Atom            X                  Y                   Z
    ------   -----------------  -----------------  -----------------
       1        0.000005316334     0.000007969172     0.000006049781
       2       -0.000026735777     0.000010962172    -0.000011445428
       3        0.001524087386    -0.000421603420     0.003388288856
       4        0.000008080758    -0.000007855400     0.000022604584
       5        0.000319543434     0.002703766584     0.002328062807
       6       -0.001253091753    -0.000082092056    -0.003237985802
       7       -0.000009847840    -0.000011238951     0.000024354274
       8        0.000002753260     0.000001153146    -0.000002517268
       9       -0.000569507299    -0.002223514460    -0.002528756452
      10       -0.000004723256    -0.000001156798     0.000008292874
      11        0.000000488948     0.000004868348     0.000001973129
      12        0.000002724831     0.000004686890    -0.000003687187
      13        0.000000910978     0.000014054774     0.000004765830

  **** Optimization is complete! (in 8 steps) ****
    Final optimized geometry and variables:
    Molecular point group: c1

    Geometry (in Angstrom), charge = 0, multiplicity = 1:

    H            0.429680287668     1.898301115841     0.635880744453
    C            0.929468013329     0.979203581825     0.302398113604
    C            0.108880186548     0.097402405833    -0.595805974151
    O            2.034256504497     0.746058694138     0.652456737469
    C           -1.306215316523    -0.170319236994    -0.044397968889
    H            0.648792338441    -0.821594662295    -0.779686639531
    H            0.033502167866     0.607248959820    -1.553414397352
    C           -1.778002781141    -1.593191996518    -0.331790231036
    H           -2.010874963653     0.519517949963    -0.493892050068
    H           -1.331817780587     0.001646086430     1.026769898589
    H           -1.780089561852    -1.794981445624    -1.397517004834
    H           -2.784412326319    -1.749962174670     0.037717924137
    H           -1.130084729433    -2.321805622566     0.141945204091

  Mulliken Charges: (a.u.)
   Center  Symbol    Alpha    Beta     Spin     Total
       1     H     0.46471  0.46471  0.00000  0.07059
       2     C     2.90723  2.90723  0.00000  0.18554
       3     C     3.08148  3.08148  0.00000 -0.16297
       4     O     4.16438  4.16438  0.00000 -0.32876
       5     C     3.09335  3.09335  0.00000 -0.18670
       6     H     0.44293  0.44293  0.00000  0.11414
       7     H     0.44795  0.44795  0.00000  0.10411
       8     C     3.14621  3.14621  0.00000 -0.29242
       9     H     0.44966  0.44966  0.00000  0.10069
      10     H     0.45153  0.45153  0.00000  0.09695
      11     H     0.45273  0.45273  0.00000  0.09455
      12     H     0.44714  0.44714  0.00000  0.10572
      13     H     0.45071  0.45071  0.00000  0.09857

   Total alpha = 20.00000, Total beta = 20.00000, Total charge = -0.00000
