                              Psi4 1.0.54 Driver

  ==> Input File <==

--------------------------------------------------------------------------
set {
	reference rhf
	basis cc-pvtz
}

set_num_threads( 4 )
memory 2 gb

molecule MOL {
0 1

O	 -2.440701	 -0.934798	 -0.415053
C	 -1.922978	 0.063265	 -0.045005
C	 -2.632749	 1.372204	 0.158357
O	 -0.637375	 0.157174	 0.243149
H	 -2.187724	 2.129143	 -0.474664
H	 -3.677681	 1.257276	 -0.079438
H	 -2.516788	 1.693160	 1.185542
C	 0.162530	 -1.009518	 0.097799
C	 1.587210	 -0.664190	 0.477086
H	 0.096803	 -1.356267	 -0.924704
H	 -0.233803	 -1.785900	 0.736810
C	 2.645894	 -1.301801	 -0.418684
H	 1.736040	 -0.988643	 1.503397
H	 1.700408	 0.415625	 0.472160
C	 4.067091	 -0.954353	 0.011543
H	 2.518933	 -2.381085	 -0.407536
H	 2.489298	 -0.983658	 -1.442943
H	 4.797594	 -1.422474	 -0.637775
H	 4.264053	 -1.287759	 1.025169
H	 4.234590	 0.117042	 -0.021228

	symmetry c1
}
set optking {
	frozen_dihedral = ("
		12 9 8 10
	")
}

ee,wfn = optimize('scf', return_wfn=True)
oeprop( wfn, 'DIPOLE', 'QUADRUPOLE', 'MULLIKEN_CHARGES')
f=open( 'psi4out.xyz', 'w' )
f.write( "20  " )
f.write( str(ee) + "\n" )
f.write( MOL.save_string_xyz() )
f.close()
--------------------------------------------------------------------------

    Molecular point group: c1
  Charge       = 0
  Multiplicity = 1
  Basis Set: CC-PVTZ
  Basis Set:
  @DF-RHF Final Energy:  -384.08290568723152
    Total Energy =                       -384.0829056872318006
    Molecular point group: c1
  Basis Set: CC-PVTZ
  Basis Set:
  Basis Set: CC-PVTZ
  Basis Set:
  @DF-RHF Final Energy:  -384.08342979361595
    Total Energy =                       -384.0834297936160624
  Basis Set: CC-PVTZ
  Basis Set:
  Basis Set: CC-PVTZ
  Basis Set:
  @DF-RHF Final Energy:  -384.08324357849767
    Total Energy =                       -384.0832435784975587
  Basis Set: CC-PVTZ
  Basis Set:
  Basis Set: CC-PVTZ
  Basis Set:
  @DF-RHF Final Energy:  -384.08351150913222
    Total Energy =                       -384.0835115091318244
  Basis Set: CC-PVTZ
  Basis Set:
  Basis Set: CC-PVTZ
  Basis Set:
  @DF-RHF Final Energy:  -384.08351781858488
    Total Energy =                       -384.0835178185850509
  Basis Set: CC-PVTZ
  Basis Set:
  Basis Set: CC-PVTZ
  Basis Set:
  @DF-RHF Final Energy:  -384.08351961267209
    Total Energy =                       -384.0835196126721485
  Basis Set: CC-PVTZ
  Basis Set:
  Charge       = 0
  Multiplicity = 1
  Basis Set: CC-PVTZ
  Basis Set:

    Orbital Energies (a.u.)
    -----------------------

    Doubly Occupied:

       1A    -20.594762     2A    -20.532614     3A    -11.366404
       4A    -11.279441     5A    -11.231407     6A    -11.223431
       7A    -11.221997     8A    -11.213177     9A     -1.471076
      10A     -1.365192    11A     -1.087153    12A     -1.030472
      13A     -0.980541    14A     -0.882675    15A     -0.808446
      16A     -0.780962    17A     -0.692876    18A     -0.686795
      19A     -0.671738    20A     -0.637360    21A     -0.597663
      22A     -0.594724    23A     -0.571542    24A     -0.558873
      25A     -0.545981    26A     -0.521813    27A     -0.511777
      28A     -0.483189    29A     -0.482553    30A     -0.475388
      31A     -0.452189    32A     -0.440487

  @DF-RHF Final Energy:  -384.08351992146203

   => Energetics <=

    Nuclear Repulsion Energy =            379.7462032442768418
    One-Electron Energy =               -1275.6700645288067335
    Two-Electron Energy =                 511.8403413630674095
    DFT Exchange-Correlation Energy =       0.0000000000000000
    Empirical Dispersion Energy =           0.0000000000000000
    PCM Polarization Energy =               0.0000000000000000
    EFP Energy =                            0.0000000000000000
    Total Energy =                       -384.0835199214625391
    Molecular point group: c1
  Basis Set: CC-PVTZ
  Basis Set:

  -Total Gradient:
     Atom            X                  Y                   Z
    ------   -----------------  -----------------  -----------------
       1       -0.000000712682     0.000031724370    -0.000001735649
       2        0.000054535771     0.000002243252     0.000018924280
       3       -0.000017217205    -0.000005917177     0.000002844581
       4       -0.000085604014     0.000018875366    -0.000023511677
       5       -0.000007488143    -0.000012011300     0.000011552595
       6        0.000022026926     0.000003125119     0.000003897343
       7       -0.000000980194    -0.000002584611    -0.000022903257
       8       -0.000815465804     0.005664607222    -0.002541973542
       9        0.000329589436    -0.004156745662     0.003014007346
      10        0.000619850461    -0.003823093723     0.001435617878
      11        0.000013490779     0.000006514915    -0.000013170608
      12       -0.000110410723     0.002271053191    -0.001873104826
      13        0.000011433437     0.000007014980    -0.000005655250
      14       -0.000000219604    -0.000011495048    -0.000000675173
      15       -0.000001512858     0.000004677715    -0.000002410186
      16        0.000002682597     0.000003033384     0.000002423836
      17       -0.000002090095     0.000000417084     0.000000804044
      18       -0.000005551154     0.000001856085    -0.000000503888
      19       -0.000005410990    -0.000000616852    -0.000004961291
      20       -0.000000945946    -0.000002678310     0.000000533444

  **** Optimization is complete! (in 7 steps) ****
    Final optimized geometry and variables:
    Molecular point group: c1

    Geometry (in Angstrom), charge = 0, multiplicity = 1:

    O           -2.529637115108    -0.583461929644    -0.370937338577
    C           -2.029259866608     0.438558946742    -0.045314276963
    C           -2.766553564220     1.735764974547     0.131269716296
    O           -0.739666646008     0.574390228052     0.207308921100
    H           -2.353745591553     2.481503157065    -0.535799693851
    H           -3.813220009278     1.588068730469    -0.079110973599
    H           -2.636021763109     2.092929519041     1.144570567444
    C            0.083540422834    -0.575978379124     0.084854330756
    C            1.513924571734    -0.199481422549     0.457145512753
    H            0.023400926768    -0.963875765247    -0.922628361025
    H           -0.303387213577    -1.349460685508     0.733472042588
    C            2.554609412277    -0.879873628196    -0.428980263560
    H            1.699788729404    -0.431126530406     1.500174152311
    H            1.617889732888     0.874885633071     0.356163258029
    C            3.985530775528    -0.540002022150    -0.028473751553
    H            2.418801274676    -1.957886743394    -0.394392391644
    H            2.385651507700    -0.584502010372    -1.460108557029
    H            4.700419560236    -1.024685874348    -0.682841378493
    H            4.194958665611    -0.860984583810     0.986284570896
    H            4.161545462194     0.529290337673    -0.079010893251

  Mulliken Charges: (a.u.)
   Center  Symbol    Alpha    Beta     Spin     Total
       1     O     4.19679  4.19679  0.00000 -0.39358
       2     C     2.80694  2.80694  0.00000  0.38612
       3     C     3.13773  3.13773  0.00000 -0.27546
       4     O     4.15046  4.15046  0.00000 -0.30093
       5     H     0.44602  0.44602  0.00000  0.10797
       6     H     0.43813  0.43813  0.00000  0.12373
       7     H     0.44577  0.44577  0.00000  0.10846
       8     C     2.98332  2.98332  0.00000  0.03335
       9     C     3.08766  3.08766  0.00000 -0.17532
      10     H     0.45459  0.45459  0.00000  0.09082
      11     H     0.45273  0.45273  0.00000  0.09454
      12     C     3.09096  3.09096  0.00000 -0.18193
      13     H     0.45088  0.45088  0.00000  0.09824
      14     H     0.44817  0.44817  0.00000  0.10365
      15     C     3.15010  3.15010  0.00000 -0.30020
      16     H     0.45256  0.45256  0.00000  0.09488
      17     H     0.45176  0.45176  0.00000  0.09649
      18     H     0.44714  0.44714  0.00000  0.10573
      19     H     0.45420  0.45420  0.00000  0.09160
      20     H     0.45407  0.45407  0.00000  0.09185

   Total alpha = 32.00000, Total beta = 32.00000, Total charge =  0.00000

*** Psi4 exiting successfully. Buy a developer a beer!
