  ==> Input File <==

--------------------------------------------------------------------------
set {
	reference rhf
	basis 6-31G*
}

set_num_threads( 4 )
memory 2 gb

molecule MOL {
0 1

H	 -2.289360	 -0.609896	 0.181051
O	 -1.422729	 -0.573567	 -0.196946
C	 -0.731407	 0.539437	 0.309156
C	 0.680193	 0.672443	 -0.251532
H	 -1.319765	 1.404033	 0.030086
H	 -0.700012	 0.506517	 1.397677
C	 1.599139	 -0.492137	 0.118598
H	 0.616402	 0.758534	 -1.332349
H	 1.107032	 1.602637	 0.117369
H	 1.239738	 -1.428634	 -0.297334
H	 2.601428	 -0.335055	 -0.265730
H	 1.674954	 -0.608418	 1.197020

	symmetry c1
}
set optking {
	frozen_dihedral = ("
		1 2 3 4
	")
}

ee = optimize('scf')
oeprop('DIPOLE', 'QUADRUPOLE', 'MULLIKEN_CHARGES')
f=open( 'psi4out.xyz', 'w' )
f.write( "12  " )
f.write( str(ee) + "\n" )
f.write( MOL.save_string_xyz() )
f.close()
--------------------------------------------------------------------------

    Molecular point group: c1
  Charge       = 0
  Multiplicity = 1
  Basis Set: 6-31G*
  Basis Set:
  @DF-RHF Final Energy:  -193.10861531731541
    Total Energy =                       -193.1086153173152979
    Molecular point group: c1
  Basis Set: 6-31G*
  Basis Set:
  Basis Set: 6-31G*
  Basis Set:
  @DF-RHF Final Energy:  -193.11014604705818
    Total Energy =                       -193.1101460470580946
  Basis Set: 6-31G*
  Basis Set:
  Basis Set: 6-31G*
  Basis Set:
  @DF-RHF Final Energy:  -193.11057094426093
    Total Energy =                       -193.1105709442608145
  Basis Set: 6-31G*
  Basis Set:
  Basis Set: 6-31G*
  Basis Set:
  @DF-RHF Final Energy:  -193.11057624836084
    Total Energy =                       -193.1105762483608146
  Basis Set: 6-31G*
  Basis Set:
  Basis Set: 6-31G*
  Basis Set:
  @DF-RHF Final Energy:  -193.11057900962854
    Total Energy =                       -193.1105790096285659
  Basis Set: 6-31G*
  Basis Set:
  Charge       = 0
  Multiplicity = 1
  Basis Set: 6-31G*
  Basis Set:

    Orbital Energies (a.u.)
    -----------------------

    Doubly Occupied:

       1A    -20.553265     2A    -11.268189     3A    -11.214305
       4A    -11.202548     5A     -1.360112     6A     -1.046259
       7A     -0.917574     8A     -0.797540     9A     -0.705271
      10A     -0.642094    11A     -0.583318    12A     -0.580652
      13A     -0.534907    14A     -0.497152    15A     -0.481698
      16A     -0.463974    17A     -0.433466

  @DF-RHF Final Energy:  -193.11057909562265

   => Energetics <=

    Nuclear Repulsion Energy =            133.3334220345390690
    One-Electron Energy =                -526.3233534392027195
    Two-Electron Energy =                 199.8793523090409394
    DFT Exchange-Correlation Energy =       0.0000000000000000
    Empirical Dispersion Energy =           0.0000000000000000
    PCM Polarization Energy =               0.0000000000000000
    EFP Energy =                            0.0000000000000000
    Total Energy =                       -193.1105790956227111
    Molecular point group: c1
  Basis Set: 6-31G*
  Basis Set:

  -Total Gradient:
     Atom            X                  Y                   Z
    ------   -----------------  -----------------  -----------------
       1       -0.000084406912     0.000107057062    -0.000174050923
       2        0.000072217298    -0.000115535640     0.000189907342
       3        0.000043453682    -0.000079957714     0.000067953230
       4       -0.000030961339     0.000090219348    -0.000071516329
       5       -0.000003945590    -0.000002806363     0.000003699347
       6       -0.000000173288     0.000003032772    -0.000003087172
       7        0.000003370917    -0.000002031162    -0.000009098948
       8       -0.000015438123    -0.000005784366     0.000011298786
       9        0.000020902932     0.000007400663    -0.000008233900
      10       -0.000001509038    -0.000004930653    -0.000010447022
      11        0.000000639522    -0.000003401897     0.000005667998
      12       -0.000004150057     0.000006737952    -0.000002092408

  **** Optimization is complete! (in 6 steps) ****
    Final optimized geometry and variables:
    Molecular point group: c1

    Geometry (in Angstrom), charge = 0, multiplicity = 1:

    H           -2.213573013966    -0.683769377482     0.125613913439
    O           -1.336867743323    -0.596276119457    -0.220069252744
    C           -0.725417831319     0.546236246857     0.323188034035
    C            0.677998942983     0.663291741826    -0.246884991501
    H           -1.297985057165     1.438210607666     0.075178115647
    H           -0.680391663895     0.475709406295     1.409431775335
    C            1.580968023442    -0.510831901712     0.127671781700
    H            0.602229444744     0.741027030926    -1.327567045839
    H            1.113013994566     1.594541396870     0.108919773245
    H            1.170695539096    -1.444803427742    -0.236076446991
    H            2.572114821172    -0.387094358690    -0.297586638626
    H            1.691250333266    -0.589741164688     1.206052007215

  Mulliken Charges: (a.u.)
   Center  Symbol    Alpha    Beta     Spin     Total
       1     H     0.28053  0.28053  0.00000  0.43894
       2     O     4.36949  4.36949  0.00000 -0.73899
       3     C     2.99637  2.99637  0.00000  0.00725
       4     C     3.15892  3.15892  0.00000 -0.31785
       5     H     0.42979  0.42979  0.00000  0.14042
       6     H     0.43280  0.43280  0.00000  0.13440
       7     C     3.24154  3.24154  0.00000 -0.48308
       8     H     0.41457  0.41457  0.00000  0.17086
       9     H     0.42355  0.42355  0.00000  0.15291
      10     H     0.40621  0.40621  0.00000  0.18758
      11     H     0.42105  0.42105  0.00000  0.15789
      12     H     0.42517  0.42517  0.00000  0.14966

   Total alpha = 17.00000, Total beta = 17.00000, Total charge = -0.00000
