  ==> Input File <==

--------------------------------------------------------------------------
set {
	reference rhf
	basis 6-31G*
}

set_num_threads( 1 )
memory 2 gb

molecule MOL {
0 1

H	 -2.279788	 1.059650	 1.978929
C	 -1.629949	 0.980506	 2.848174
O	 -0.361594	 0.530340	 2.496089
H	 -1.516895	 1.960409	 3.291063
H	 -2.102784	 0.319471	 3.573356
C	 -0.346741	 -0.734534	 1.913746
C	 1.060829	 -1.066877	 1.477282
H	 -0.686571	 -1.484262	 2.629371
H	 -1.007908	 -0.770937	 1.050301
O	 1.392611	 -0.295398	 0.366430
H	 1.746177	 -0.875110	 2.300404
H	 1.118827	 -2.128005	 1.231644
C	 2.706965	 -0.449871	 -0.062409
H	 2.756559	 -0.644779	 -1.131878
H	 3.305899	 0.433456	 0.155466
H	 3.125548	 -1.294566	 0.467107

	symmetry c1
}
set optking {
	frozen_dihedral = ("
		3 6 7 11,
		2 3 6 7
	")
}

ee = energy('scf')
oeprop('DIPOLE', 'QUADRUPOLE', 'MULLIKEN_CHARGES')
f=open( 'psi4out.xyz', 'w' )
f.write( "16  " )
f.write( str(ee) + "\n" )
f.write( MOL.save_string_xyz() )
f.close()
--------------------------------------------------------------------------

    Molecular point group: c1

    Geometry (in Angstrom), charge = 0, multiplicity = 1:

       Center              X                  Y                   Z               Mass
    ------------   -----------------  -----------------  -----------------  -----------------
           H         -2.751411614190     1.225556789825     0.473682382569     1.007825032070
           C         -2.101572614190     1.146412789825     1.342927382569    12.000000000000
           O         -0.833217614190     0.696246789825     0.990842382569    15.994914619560
           H         -1.988518614190     2.126315789825     1.785816382569     1.007825032070
           H         -2.574407614190     0.485377789825     2.068109382569     1.007825032070
           C         -0.818364614190    -0.568627210175     0.408499382569    12.000000000000
           C          0.589205385810    -0.900970210175    -0.027964617431    12.000000000000
           H         -1.158194614190    -1.318355210175     1.124124382569     1.007825032070
           H         -1.479531614190    -0.605030210175    -0.454945617431     1.007825032070
           O          0.920987385810    -0.129491210175    -1.138816617431    15.994914619560
           H          1.274553385810    -0.709203210175     0.795157382569     1.007825032070
           H          0.647203385810    -1.962098210175    -0.273602617431     1.007825032070
           C          2.235341385810    -0.283964210175    -1.567655617431    12.000000000000
           H          2.284935385810    -0.478872210175    -2.637124617431     1.007825032070
           H          2.834275385810     0.599362789825    -1.349780617431     1.007825032070
           H          2.653924385810    -1.128659210175    -1.038139617431     1.007825032070

  Charge       = 0
  Multiplicity = 1
  Basis Set: 6-31G*
  Basis Set:

    Orbital Energies (a.u.)
    -----------------------

    Doubly Occupied:

       1A    -20.553485     2A    -20.550089     3A    -11.269841
       4A    -11.268525     5A    -11.263433     6A    -11.262997
       7A     -1.387704     8A     -1.370033     9A     -1.030321
      10A     -0.935062    11A     -0.892608    12A     -0.825663
      13A     -0.682832    14A     -0.679446    15A     -0.658836
      16A     -0.633642    17A     -0.627697    18A     -0.598515
      19A     -0.553298    20A     -0.537693    21A     -0.507129
      22A     -0.476833    23A     -0.463183    24A     -0.417714
      25A     -0.407594

  @DF-RHF Final Energy:  -306.97277207807349

   => Energetics <=

    Nuclear Repulsion Energy =            258.9256446669907064
    One-Electron Energy =                -932.0884009041957370
    Two-Electron Energy =                 366.1899841591316545
    DFT Exchange-Correlation Energy =       0.0000000000000000
    Empirical Dispersion Energy =           0.0000000000000000
    PCM Polarization Energy =               0.0000000000000000
    EFP Energy =                            0.0000000000000000
    Total Energy =                       -306.9727720780733762

  Mulliken Charges: (a.u.)
   Center  Symbol    Alpha    Beta     Spin     Total
       1     H     0.42803  0.42803  0.00000  0.14395
       2     C     3.07949  3.07949  0.00000 -0.15899
       3     O     4.30084  4.30084  0.00000 -0.60169
       4     H     0.41131  0.41131  0.00000  0.17738
       5     H     0.43194  0.43194  0.00000  0.13611
       6     C     2.99310  2.99310  0.00000  0.01379
       7     C     2.99635  2.99635  0.00000  0.00730
       8     H     0.43238  0.43238  0.00000  0.13524
       9     H     0.42261  0.42261  0.00000  0.15478
      10     O     4.30326  4.30326  0.00000 -0.60651
      11     H     0.42183  0.42183  0.00000  0.15634
      12     H     0.43146  0.43146  0.00000  0.13708
      13     C     3.07489  3.07489  0.00000 -0.14978
      14     H     0.41969  0.41969  0.00000  0.16061
      15     H     0.42122  0.42122  0.00000  0.15757
      16     H     0.43160  0.43160  0.00000  0.13681

   Total alpha = 25.00000, Total beta = 25.00000, Total charge =  0.00000
