  ==> Input File <==

--------------------------------------------------------------------------
set {
	reference rhf
	basis 6-31G*
}

set_num_threads( 4 )
memory 2 gb

molecule MOL {
0 1

H	 1.136379	 0.211822	 1.465562
C	 1.135357	 0.094285	 0.374742
C	 0.065331	 0.871482	 -0.349150
O	 1.941633	 -0.601957	 -0.151457
C	 0.613319	 1.626169	 -1.568837
H	 -0.403722	 1.546870	 0.357074
H	 -0.686196	 0.155213	 -0.678280
C	 1.577586	 2.753849	 -1.198770
H	 -0.224074	 2.034222	 -2.125862
H	 1.107875	 0.923623	 -2.236283
H	 1.092621	 3.485551	 -0.560063
H	 1.929756	 3.267720	 -2.087157
H	 2.447976	 2.381204	 -0.666843

	symmetry c1
}
set optking {
	frozen_dihedral = ("
		6 3 2 4
	")
}

ee = optimize('scf')
oeprop('DIPOLE', 'QUADRUPOLE', 'MULLIKEN_CHARGES')
f=open( 'psi4out.xyz', 'w' )
f.write( "13  " )
f.write( str(ee) + "\n" )
f.write( MOL.save_string_xyz() )
f.close()
--------------------------------------------------------------------------

    Molecular point group: c1
  Charge       = 0
  Multiplicity = 1
  Basis Set: 6-31G*
  Basis Set:
  @DF-RHF Final Energy:  -230.98344374432429
    Total Energy =                       -230.9834437443242905
    Molecular point group: c1
  Basis Set: 6-31G*
  Basis Set:
  Basis Set: 6-31G*
  Basis Set:
  @DF-RHF Final Energy:  -230.98286042725672
    Total Energy =                       -230.9828604272569237
  Basis Set: 6-31G*
  Basis Set:
  Basis Set: 6-31G*
  Basis Set:
  @DF-RHF Final Energy:  -230.98363440267505
    Total Energy =                       -230.9836344026749941
  Basis Set: 6-31G*
  Basis Set:
  Basis Set: 6-31G*
  Basis Set:
  @DF-RHF Final Energy:  -230.98393188453795
    Total Energy =                       -230.9839318845378102
  Basis Set: 6-31G*
  Basis Set:
  Charge       = 0
  Multiplicity = 1
  Basis Set: 6-31G*
  Basis Set:

    Orbital Energies (a.u.)
    -----------------------

    Doubly Occupied:

       1A    -20.563620     2A    -11.328731     3A    -11.236355
       4A    -11.228928     5A    -11.216348     6A     -1.404084
       7A     -1.078965     8A     -0.971346     9A     -0.852583
      10A     -0.768007    11A     -0.686034    12A     -0.635985
      13A     -0.626136    14A     -0.590497    15A     -0.559289
      16A     -0.527553    17A     -0.500410    18A     -0.485893
      19A     -0.478898    20A     -0.411073

  @DF-RHF Final Energy:  -230.98393168425193

   => Energetics <=

    Nuclear Repulsion Energy =            175.5409941774363745
    One-Electron Energy =                -660.7483807752985285
    Two-Electron Energy =                 254.2234549136103681
    DFT Exchange-Correlation Energy =       0.0000000000000000
    Empirical Dispersion Energy =           0.0000000000000000
    PCM Polarization Energy =               0.0000000000000000
    EFP Energy =                            0.0000000000000000
    Total Energy =                       -230.9839316842518144
    Molecular point group: c1
  Basis Set: 6-31G*
  Basis Set:

  -Total Gradient:
     Atom            X                  Y                   Z
    ------   -----------------  -----------------  -----------------
       1        0.000029814158     0.000021727252    -0.000014219704
       2        0.001545873602     0.002049847612     0.000039821198
       3        0.001034245505     0.000895995063    -0.000386920163
       4       -0.001273161019    -0.001720971826     0.000087311244
       5       -0.000028864153     0.000173878083    -0.000052396192
       6       -0.001346778337    -0.001449810297     0.000349621127
       7        0.000051928680    -0.000020721073    -0.000017309592
       8        0.000043540260    -0.000000382169    -0.000041556407
       9       -0.000006918072     0.000030824183     0.000019005738
      10       -0.000061367360     0.000009639158     0.000000703499
      11        0.000000818629     0.000032872837    -0.000055076635
      12        0.000046221328    -0.000007538812    -0.000018708537
      13       -0.000035353224    -0.000015360007     0.000089724424

  **** Optimization is complete! (in 5 steps) ****
    Final optimized geometry and variables:
    Molecular point group: c1

    Geometry (in Angstrom), charge = 0, multiplicity = 1:

    H            0.014204107910    -0.830734429049     2.066759905203
    C            0.047276474321    -0.870384892361     0.972896459763
    C           -1.009721585643    -0.075349470491     0.235825651855
    O            0.857088485243    -1.548899335473     0.427529749217
    C           -0.472797784492     0.674060870162    -0.988087746928
    H           -1.510738983507     0.594105938619     0.929187880203
    H           -1.758897147928    -0.799397928207    -0.081287146092
    C            0.489392153829     1.807249111912    -0.631204078506
    H           -1.316059726465     1.076283126222    -1.541727152048
    H            0.022285473812    -0.037538797376    -1.638582688445
    H            0.008571025402     2.547060132639     0.003089163214
    H            0.835645343749     2.314598187815    -1.525665348831
    H            1.364456417590     1.433944402908    -0.108398738859

  Mulliken Charges: (a.u.)
   Center  Symbol    Alpha    Beta     Spin     Total
       1     H     0.42572  0.42572  0.00000  0.14856
       2     C     2.84352  2.84352  0.00000  0.31295
       3     C     3.20547  3.20547  0.00000 -0.41093
       4     O     4.23755  4.23755  0.00000 -0.47511
       5     C     3.15448  3.15448  0.00000 -0.30896
       6     H     0.41552  0.41552  0.00000  0.16896
       7     H     0.39994  0.39994  0.00000  0.20012
       8     C     3.24530  3.24530  0.00000 -0.49061
       9     H     0.41696  0.41696  0.00000  0.16608
      10     H     0.40356  0.40356  0.00000  0.19287
      11     H     0.42256  0.42256  0.00000  0.15487
      12     H     0.41486  0.41486  0.00000  0.17028
      13     H     0.41454  0.41454  0.00000  0.17091

   Total alpha = 20.00000, Total beta = 20.00000, Total charge =  0.00000
