  ==> Input File <==

--------------------------------------------------------------------------
set {
	reference rhf
	basis 6-31G*
}

set_num_threads( 4 )
memory 2 gb

molecule MOL {
0 1

H	 -0.216825	 0.021369	 -3.357402
C	 0.374198	 0.036393	 -2.447010
C	 -0.521757	 -0.028637	 -1.217342
H	 0.969602	 0.942322	 -2.434777
H	 1.053364	 -0.811668	 -2.481329
N	 0.263400	 0.031178	 0.000000
H	 -1.199035	 0.820290	 -1.219355
H	 -1.147901	 -0.924895	 -1.265384
C	 -0.521757	 -0.028637	 1.217342
H	 0.935769	 -0.712709	 0.000000
C	 -0.124605	 -1.231203	 2.063010
H	 -0.337679	 0.883049	 1.777994
H	 -1.597419	 -0.058190	 1.018042
H	 0.931404	 -1.192174	 2.305260
H	 -0.692421	 -1.258172	 2.987783
H	 -0.313706	 -2.161406	 1.533281

	symmetry c1
}
set optking {
	frozen_dihedral = ("
		12 9 6 3
	")
}

ee = optimize('scf')
oeprop('DIPOLE', 'QUADRUPOLE', 'MULLIKEN_CHARGES')
f=open( 'psi4out.xyz', 'w' )
f.write( "16  " )
f.write( str(ee) + "\n" )
f.write( MOL.save_string_xyz() )
f.close()
--------------------------------------------------------------------------

    Molecular point group: c1
  Charge       = 0
  Multiplicity = 1
  Basis Set: 6-31G*
  Basis Set:
  @DF-RHF Final Energy:  -212.30737569491598
    Total Energy =                       -212.3073756949158906
    Molecular point group: c1
  Basis Set: 6-31G*
  Basis Set:
  Basis Set: 6-31G*
  Basis Set:
  @DF-RHF Final Energy:  -212.30807792998851
    Total Energy =                       -212.3080779299884284
  Basis Set: 6-31G*
  Basis Set:
  Basis Set: 6-31G*
  Basis Set:
  @DF-RHF Final Energy:  -212.30823067802260
    Total Energy =                       -212.3082306780226531
  Basis Set: 6-31G*
  Basis Set:
  Basis Set: 6-31G*
  Basis Set:
  @DF-RHF Final Energy:  -212.30823715629288
    Total Energy =                       -212.3082371562929893
  Basis Set: 6-31G*
  Basis Set:
  Basis Set: 6-31G*
  Basis Set:
  @DF-RHF Final Energy:  -212.30823840163691
    Total Energy =                       -212.3082384016370270
  Basis Set: 6-31G*
  Basis Set:
  Charge       = 0
  Multiplicity = 1
  Basis Set: 6-31G*
  Basis Set:

    Orbital Energies (a.u.)
    -----------------------

    Doubly Occupied:

       1A    -15.530252     2A    -11.240783     3A    -11.240231
       4A    -11.213475     5A    -11.207773     6A     -1.200808
       7A     -1.028092     8A     -0.963603     9A     -0.837524
      10A     -0.821804    11A     -0.642565    12A     -0.628149
      13A     -0.621480    14A     -0.578602    15A     -0.554515
      16A     -0.523035    17A     -0.506533    18A     -0.497135
      19A     -0.487481    20A     -0.471965    21A     -0.351570

  @DF-RHF Final Energy:  -212.30823852865953

   => Energetics <=

    Nuclear Repulsion Energy =            189.6236833243069384
    One-Electron Energy =                -661.5690931348858612
    Two-Electron Energy =                 259.6371712819195068
    DFT Exchange-Correlation Energy =       0.0000000000000000
    Empirical Dispersion Energy =           0.0000000000000000
    PCM Polarization Energy =               0.0000000000000000
    EFP Energy =                            0.0000000000000000
    Total Energy =                       -212.3082385286593876
    Molecular point group: c1
  Basis Set: 6-31G*
  Basis Set:

  -Total Gradient:
     Atom            X                  Y                   Z
    ------   -----------------  -----------------  -----------------
       1        0.000000299463     0.000001155899     0.000011116410
       2        0.000001817163    -0.000002144278     0.000010930197
       3        0.000007238901    -0.000193679580     0.000024058988
       4        0.000001541713     0.000005871178    -0.000001569853
       5       -0.000000247875    -0.000004982180    -0.000000421501
       6        0.000012100628     0.000246271857     0.000014561691
       7       -0.000007037139     0.000003945777    -0.000008842677
       8        0.000002897500    -0.000000028418    -0.000002675217
       9       -0.000204623100     0.000046040697    -0.000134128700
      10       -0.000003195727    -0.000000937156     0.000016262622
      11        0.000003350697     0.000001758625    -0.000028792670
      12        0.000195168707    -0.000098866861     0.000106165993
      13       -0.000010760263     0.000002848927    -0.000018631244
      14       -0.000003122470    -0.000004920025     0.000001569871
      15       -0.000001918732    -0.000002104216     0.000002866639
      16        0.000006490536    -0.000000230247     0.000007529453

  **** Optimization is complete! (in 6 steps) ****
    Final optimized geometry and variables:
    Molecular point group: c1

    Geometry (in Angstrom), charge = 0, multiplicity = 1:

    H           -0.112390447321     0.277743319155    -3.290580150742
    C            0.475294179176     0.299548714394    -2.378155894071
    C           -0.424544655526     0.231038323815    -1.151925005535
    H            1.063701101786     1.210053201669    -2.365766241843
    H            1.161086649563    -0.543523279273    -2.407981310850
    N            0.359261891608     0.301212463596     0.065893633764
    H           -1.107373565436     1.074923574663    -1.162041963421
    H           -1.043739475463    -0.670158657640    -1.202230765032
    C           -0.399042562360     0.230855387825     1.310630239948
    H            1.069782274187    -0.403012190320     0.052026608485
    C           -0.031287007536    -0.980065515713     2.163681618797
    H           -0.233311490227     1.136115400036     1.888848647540
    H           -1.462465135024     0.196721326876     1.088739172662
    H            1.026326841144    -0.969832113633     2.413062433267
    H           -0.588885415607    -0.983637445856     3.095101765977
    H           -0.244847315260    -1.907436934963     1.639304991368

  Mulliken Charges: (a.u.)
   Center  Symbol    Alpha    Beta     Spin     Total
       1     H     0.42017  0.42017  0.00000  0.15966
       2     C     3.24343  3.24343  0.00000 -0.48685
       3     C     3.05306  3.05306  0.00000 -0.10613
       4     H     0.41177  0.41177  0.00000  0.17646
       5     H     0.42514  0.42514  0.00000  0.14972
       6     N     3.85733  3.85733  0.00000 -0.71466
       7     H     0.41976  0.41976  0.00000  0.16047
       8     H     0.43617  0.43617  0.00000  0.12767
       9     C     3.04473  3.04473  0.00000 -0.08947
      10     H     0.33216  0.33216  0.00000  0.33568
      11     C     3.25412  3.25412  0.00000 -0.50825
      12     H     0.41931  0.41931  0.00000  0.16138
      13     H     0.42517  0.42517  0.00000  0.14967
      14     H     0.41894  0.41894  0.00000  0.16212
      15     H     0.41778  0.41778  0.00000  0.16443
      16     H     0.42095  0.42095  0.00000  0.15810

   Total alpha = 21.00000, Total beta = 21.00000, Total charge =  0.00000
