                              Psi4 1.0.54 Driver

  ==> Input File <==

--------------------------------------------------------------------------
set {
	reference rhf
	basis cc-pvtz
}

set_num_threads( 4 )
memory 2 gb

molecule MOL {
0 1

H	 2.400946	 1.752951	 -1.349521
C	 1.682714	 1.579364	 -0.558768
C	 1.322304	 0.099773	 -0.484271
H	 2.121884	 1.925327	 0.370108
H	 0.809397	 2.187974	 -0.764322
C	 0.308557	 -0.162619	 0.622645
H	 2.209792	 -0.491166	 -0.294825
H	 0.905219	 -0.230360	 -1.427664
N	 -1.069352	 -0.004081	 0.085342
H	 0.371632	 -1.172932	 0.991288
H	 0.400391	 0.548875	 1.426218
O	 -1.584901	 -0.965470	 -0.377818
O	 -1.548033	 1.079343	 0.130056

	symmetry c1
}
set optking {
	frozen_dihedral = ("
		7 3 6 9
	")
}

ee,wfn = optimize('scf', return_wfn=True)
oeprop( wfn, 'DIPOLE', 'QUADRUPOLE', 'MULLIKEN_CHARGES')
f=open( 'psi4out.xyz', 'w' )
f.write( "13  " )
f.write( str(ee) + "\n" )
f.write( MOL.save_string_xyz() )
f.close()
--------------------------------------------------------------------------

    Molecular point group: c1
  Charge       = 0
  Multiplicity = 1
  Basis Set: CC-PVTZ
  Basis Set:
  @DF-RHF Final Energy:  -321.85823914809237
    Total Energy =                       -321.8582391480923661
    Molecular point group: c1
  Basis Set: CC-PVTZ
  Basis Set:
  Basis Set: CC-PVTZ
  Basis Set:
  @DF-RHF Final Energy:  -321.85832259158218
    Total Energy =                       -321.8583225915823505
  Basis Set: CC-PVTZ
  Basis Set:
  Basis Set: CC-PVTZ
  Basis Set:
  @DF-RHF Final Energy:  -321.85889767616783
    Total Energy =                       -321.8588976761677714
  Basis Set: CC-PVTZ
  Basis Set:
  Basis Set: CC-PVTZ
  Basis Set:
  @DF-RHF Final Energy:  -321.85821151681756
    Total Energy =                       -321.8582115168178461
  Basis Set: CC-PVTZ
  Basis Set:
  @DF-RHF Final Energy:  -321.85905794712551
    Total Energy =                       -321.8590579471253363
  @DF-RHF Final Energy:  -321.85907310178590
    Total Energy =                       -321.8590731017859525
  Basis Set: CC-PVTZ
  Basis Set:
  @DF-RHF Final Energy:  -321.85909323403615
    Total Energy =                       -321.8590932340360951
  Basis Set: CC-PVTZ
  Basis Set:
  Basis Set: CC-PVTZ
  Basis Set:
  @DF-RHF Final Energy:  -321.85911166206381
    Total Energy =                       -321.8591116620638104
  Basis Set: CC-PVTZ
  Basis Set:
  Basis Set: CC-PVTZ
  Basis Set:
  @DF-RHF Final Energy:  -321.85911523588868
    Total Energy =                       -321.8591152358887371
  Basis Set: CC-PVTZ
  Basis Set:
  Charge       = 0
  Multiplicity = 1
  Basis Set: CC-PVTZ
  Basis Set:

    Orbital Energies (a.u.)
    -----------------------

    Doubly Occupied:

       1A    -20.592123     2A    -20.589558     3A    -15.837136
       4A    -11.297669     5A    -11.254032     6A    -11.229927
       7A     -1.636268     8A     -1.420511     9A     -1.132121
      10A     -1.023314    11A     -0.890377    12A     -0.828977
      13A     -0.762934    14A     -0.738989    15A     -0.727910
      16A     -0.645440    17A     -0.626376    18A     -0.595313
      19A     -0.529753    20A     -0.523895    21A     -0.513831
      22A     -0.486115    23A     -0.474312    24A     -0.453209

  @DF-RHF Final Energy:  -321.85911570066764

   => Energetics <=

    Nuclear Repulsion Energy =            251.3760785694446156
    One-Electron Energy =                -936.8502050611749610
    Two-Electron Energy =                 363.6150107910626161
    DFT Exchange-Correlation Energy =       0.0000000000000000
    Empirical Dispersion Energy =           0.0000000000000000
    PCM Polarization Energy =               0.0000000000000000
    EFP Energy =                            0.0000000000000000
    Total Energy =                       -321.8591157006677008
    Molecular point group: c1
  Basis Set: CC-PVTZ
  Basis Set:

  -Total Gradient:
     Atom            X                  Y                   Z
    ------   -----------------  -----------------  -----------------
       1       -0.000000159823    -0.000000712908     0.000000541352
       2       -0.000011976060     0.000002686699     0.000002006994
       3        0.001745742732     0.002360389702     0.002551728421
       4       -0.000002261832    -0.000003447281    -0.000002212212
       5        0.000000258637    -0.000000817404     0.000001072023
       6       -0.000298752503     0.003016072673     0.000879988196
       7       -0.001450217975    -0.002689940774    -0.002391809312
       8       -0.000000563275    -0.000001740294     0.000000894693
       9       -0.000017409940    -0.002729712799    -0.001056660504
      10        0.000001736735     0.000001963028    -0.000010328992
      11       -0.000002514129    -0.000003705232    -0.000001673739
      12        0.000018473255     0.000012253365     0.000025720031
      13        0.000017644175     0.000036711226     0.000000733045

  **** Optimization is complete! (in 10 steps) ****
    Final optimized geometry and variables:
    Molecular point group: c1

    Geometry (in Angstrom), charge = 0, multiplicity = 1:

    H            2.565022142188     1.613765445140    -1.178393464360
    C            1.858761913441     1.386986991740    -0.389590920836
    C            1.514648644382    -0.097113274112    -0.394608791505
    H            2.305555237948     1.681641571540     0.553252410102
    H            0.976614536818     1.995714361873    -0.544994505135
    C            0.498315645643    -0.503953250671     0.674803096760
    H            2.399364130476    -0.704605013362    -0.247429704545
    H            1.124190124088    -0.392160568481    -1.360922421453
    N           -0.890502491720    -0.314317786318     0.169766420979
    H            0.568851549744    -1.555452601135     0.897911713654
    H            0.579253674565     0.084215371418     1.572745370884
    O           -1.312108389725    -1.141151231132    -0.567605763489
    O           -1.475784197047     0.655118162330     0.520449964143

  Mulliken Charges: (a.u.)
   Center  Symbol    Alpha    Beta     Spin     Total
       1     H     0.44568  0.44568  0.00000  0.10863
       2     C     3.14340  3.14340  0.00000 -0.28681
       3     C     3.09587  3.09587  0.00000 -0.19175
       4     H     0.45462  0.45462  0.00000  0.09076
       5     H     0.44441  0.44441  0.00000  0.11119
       6     C     3.04653  3.04653  0.00000 -0.09306
       7     H     0.44561  0.44561  0.00000  0.10878
       8     H     0.43783  0.43783  0.00000  0.12434
       9     N     3.27709  3.27709  0.00000  0.44581
      10     H     0.42778  0.42778  0.00000  0.14445
      11     H     0.43519  0.43519  0.00000  0.12963
      12     O     4.17361  4.17361  0.00000 -0.34723
      13     O     4.17237  4.17237  0.00000 -0.34475

   Total alpha = 24.00000, Total beta = 24.00000, Total charge =  0.00000

*** Psi4 exiting successfully. Buy a developer a beer!
