  ==> Input File <==

--------------------------------------------------------------------------
set {
	reference rhf
	basis 6-31G*
}

set_num_threads( 4 )
memory 2 gb

molecule MOL {
0 1

H	 3.893188	 0.355400	 -0.101367
N	 3.092854	 -0.246221	 -0.068770
C	 1.865559	 0.531981	 0.018834
H	 3.199514	 -0.826043	 0.741946
C	 0.645745	 -0.382037	 -0.029944
H	 1.841966	 1.207024	 -0.831236
H	 1.815756	 1.155410	 0.915079
C	 -0.679275	 0.379305	 0.025956
H	 0.698998	 -0.976915	 -0.937203
H	 0.693479	 -1.083846	 0.802235
C	 -1.149677	 0.666303	 1.453096
H	 -1.446126	 -0.192473	 -0.494485
H	 -0.582238	 1.319939	 -0.514080
C	 -2.476084	 1.423628	 1.504222
H	 -1.248602	 -0.272130	 1.994181
H	 -0.386476	 1.239838	 1.974859
H	 -3.268389	 0.859749	 1.019858
H	 -2.783018	 1.611486	 2.528480
H	 -2.399570	 2.383309	 1.000684

	symmetry c1
}
set optking {
	frozen_dihedral = ("
		12 8 5 9
	")
}

ee = optimize('scf')
oeprop('DIPOLE', 'QUADRUPOLE', 'MULLIKEN_CHARGES')
f=open( 'psi4out.xyz', 'w' )
f.write( "19  " )
f.write( str(ee) + "\n" )
f.write( MOL.save_string_xyz() )
f.close()
--------------------------------------------------------------------------

    Molecular point group: c1
  Charge       = 0
  Multiplicity = 1
  Basis Set: 6-31G*
  Basis Set:
  @DF-RHF Final Energy:  -251.34885055538635
    Total Energy =                       -251.3488505553863206
    Molecular point group: c1
  Basis Set: 6-31G*
  Basis Set:
  Basis Set: 6-31G*
  Basis Set:
  @DF-RHF Final Energy:  -251.34903636674250
    Total Energy =                       -251.3490363667426664
  Basis Set: 6-31G*
  Basis Set:
  Basis Set: 6-31G*
  Basis Set:
  @DF-RHF Final Energy:  -251.34909157550936
    Total Energy =                       -251.3490915755094193
  Basis Set: 6-31G*
  Basis Set:
  Basis Set: 6-31G*
  Basis Set:
  @DF-RHF Final Energy:  -251.34909344073600
    Total Energy =                       -251.3490934407359418
  Basis Set: 6-31G*
  Basis Set:
  Basis Set: 6-31G*
  Basis Set:
  @DF-RHF Final Energy:  -251.34909706373793
    Total Energy =                       -251.3490970637378723
  Basis Set: 6-31G*
  Basis Set:
  Charge       = 0
  Multiplicity = 1
  Basis Set: 6-31G*
  Basis Set:

    Orbital Energies (a.u.)
    -----------------------

    Doubly Occupied:

       1A    -15.532549     2A    -11.239834     3A    -11.215099
       4A    -11.212915     5A    -11.209482     6A    -11.208356
       7A     -1.176693     8A     -1.072450     9A     -0.997176
      10A     -0.899854    11A     -0.823750    12A     -0.782801
      13A     -0.658902    14A     -0.636036    15A     -0.625139
      16A     -0.589615    17A     -0.566947    18A     -0.549397
      19A     -0.529951    20A     -0.500638    21A     -0.482121
      22A     -0.464023    23A     -0.458037    24A     -0.450070
      25A     -0.380538

  @DF-RHF Final Energy:  -251.34909713773916

   => Energetics <=

    Nuclear Repulsion Energy =            248.1982484304964203
    One-Electron Energy =                -830.5699410787819943
    Two-Electron Energy =                 331.0225955105464664
    DFT Exchange-Correlation Energy =       0.0000000000000000
    Empirical Dispersion Energy =           0.0000000000000000
    PCM Polarization Energy =               0.0000000000000000
    EFP Energy =                            0.0000000000000000
    Total Energy =                       -251.3490971377391361
    Molecular point group: c1
  Basis Set: 6-31G*
  Basis Set:

  -Total Gradient:
     Atom            X                  Y                   Z
    ------   -----------------  -----------------  -----------------
       1       -0.000003433213     0.000000160528    -0.000001669989
       2       -0.000002145044     0.000010266050    -0.000013243324
       3        0.000007335643    -0.000011882866     0.000028159100
       4       -0.000007779558     0.000004995239    -0.000001928689
       5        0.001239390508     0.002425664278    -0.001790179800
       6        0.000005367784    -0.000007271722     0.000002013114
       7        0.000003213732     0.000006752927     0.000001119506
       8       -0.000801516635    -0.001745641389     0.002597659858
       9       -0.000902811791    -0.001765485512     0.001071941128
      10        0.000007133847     0.000004938169    -0.000003001314
      11       -0.000005055414     0.000005041450    -0.000006553523
      12        0.000468762394     0.001068653358    -0.001896723162
      13       -0.000006259068     0.000002087826     0.000002255072
      14        0.000001083800    -0.000001342475     0.000008834074
      15       -0.000002454092     0.000002231524    -0.000000878683
      16       -0.000000880820     0.000000456356     0.000001470958
      17        0.000001427943    -0.000000844062     0.000000246151
      18       -0.000003591581     0.000002131641     0.000000358625
      19        0.000002211563    -0.000000911319     0.000000120898

  **** Optimization is complete! (in 6 steps) ****
    Final optimized geometry and variables:
    Molecular point group: c1

    Geometry (in Angstrom), charge = 0, multiplicity = 1:

    H            3.648790710919    -0.043426923692    -0.580356549085
    N            2.847328084305    -0.643468186909    -0.546139911444
    C            1.620024582598     0.137143510907    -0.485347333181
    H            2.944429027349    -1.209970433019     0.275123243381
    C            0.401691590617    -0.779276497896    -0.542909419015
    H            1.606812437277     0.798458662640    -1.346307391942
    H            1.562887375698     0.774912381070     0.399458164550
    C           -0.940133545892    -0.036225099784    -0.457739589968
    H            0.453343996360    -1.363585913876    -1.455825070409
    H            0.462663058494    -1.501949056594     0.270635035504
    C           -1.407653433018     0.260406635414     0.969372418903
    H           -1.704166000613    -0.613877705130    -0.972319517701
    H           -0.867151039513     0.899606394666    -1.010980069644
    C           -2.723998637107     1.035404768658     1.014460819528
    H           -1.523107590448    -0.677804131077     1.507829219705
    H           -0.642629793137     0.823230939656     1.499100639681
    H           -3.519183379479     0.485341820159     0.519045829488
    H           -3.037625901582     1.220586498140     2.037241479762
    H           -2.630182304713     1.997138973247     0.517955575556

  Mulliken Charges: (a.u.)
   Center  Symbol    Alpha    Beta     Spin     Total
       1     H     0.33247  0.33247  0.00000  0.33507
       2     N     3.92203  3.92203  0.00000 -0.84407
       3     C     3.06173  3.06173  0.00000 -0.12346
       4     H     0.33522  0.33522  0.00000  0.32957
       5     C     3.15353  3.15353  0.00000 -0.30705
       6     H     0.42052  0.42052  0.00000  0.15895
       7     H     0.43364  0.43364  0.00000  0.13272
       8     C     3.15830  3.15830  0.00000 -0.31660
       9     H     0.41088  0.41088  0.00000  0.17823
      10     H     0.42734  0.42734  0.00000  0.14531
      11     C     3.15209  3.15209  0.00000 -0.30417
      12     H     0.41977  0.41977  0.00000  0.16046
      13     H     0.42423  0.42423  0.00000  0.15154
      14     C     3.23936  3.23936  0.00000 -0.47872
      15     H     0.42278  0.42278  0.00000  0.15444
      16     H     0.42325  0.42325  0.00000  0.15350
      17     H     0.42147  0.42147  0.00000  0.15705
      18     H     0.41960  0.41960  0.00000  0.16079
      19     H     0.42179  0.42179  0.00000  0.15643

   Total alpha = 25.00000, Total beta = 25.00000, Total charge = -0.00000
