                              Psi4 1.0.54 Driver

  ==> Input File <==

--------------------------------------------------------------------------
set {
	reference rhf
	basis cc-pvtz
}

set_num_threads( 4 )
memory 2 gb

molecule MOL {
0 1

H	 -0.000342	 -0.223902	 -3.352295
C	 -0.027146	 0.371068	 -2.446756
C	 0.024493	 -0.518541	 -1.216015
H	 -0.932586	 0.964979	 -2.449855
H	 0.819708	 1.049865	 -2.473332
N	 -0.042516	 0.263377	 0.000000
H	 -0.822211	 -1.197105	 -1.225584
H	 0.921114	 -1.142847	 -1.255206
C	 0.024493	 -0.518541	 1.216015
H	 0.682568	 0.950412	 0.000000
C	 -1.356776	 -0.727258	 1.813783
H	 0.461253	 -1.481432	 0.972031
H	 0.679609	 -0.062610	 1.963124
H	 -2.008626	 -1.220691	 1.103728
H	 -1.299779	 -1.333338	 2.710515
H	 -1.811809	 0.220388	 2.084975

	symmetry c1
}
set optking {
	frozen_dihedral = ("
		12 9 6 3
	")
}

ee,wfn = optimize('scf', return_wfn=True)
oeprop( wfn, 'DIPOLE', 'QUADRUPOLE', 'MULLIKEN_CHARGES')
f=open( 'psi4out.xyz', 'w' )
f.write( "16  " )
f.write( str(ee) + "\n" )
f.write( MOL.save_string_xyz() )
f.close()
--------------------------------------------------------------------------

    Molecular point group: c1
  Charge       = 0
  Multiplicity = 1
  Basis Set: CC-PVTZ
  Basis Set:
  @DF-RHF Final Energy:  -212.39031694565443
    Total Energy =                       -212.3903169456545470
    Molecular point group: c1
  Basis Set: CC-PVTZ
  Basis Set:
  Basis Set: CC-PVTZ
  Basis Set:
  @DF-RHF Final Energy:  -212.17922270239680
    Total Energy =                       -212.1792227023967712
  Basis Set: CC-PVTZ
  Basis Set:
  Basis Set: CC-PVTZ
  Basis Set:
  @DF-RHF Final Energy:  -212.30582517675026
    Total Energy =                       -212.3058251767502611
  Basis Set: CC-PVTZ
  Basis Set:
  Basis Set: CC-PVTZ
  Basis Set:
  @DF-RHF Final Energy:  -212.38218482071497
    Total Energy =                       -212.3821848207151106
  Basis Set: CC-PVTZ
  Basis Set:
  @DF-RHF Final Energy:  -212.38966489336048
    Total Energy =                       -212.3896648933605888
  Basis Set: CC-PVTZ
  Basis Set:
  @DF-RHF Final Energy:  -212.39106853497501
    Total Energy =                       -212.3910685349749201
  Basis Set: CC-PVTZ
  Basis Set:
  Basis Set: CC-PVTZ
  Basis Set:
  @DF-RHF Final Energy:  -212.39122994924546
    Total Energy =                       -212.3912299492454849
  Basis Set: CC-PVTZ
  Basis Set:
  Basis Set: CC-PVTZ
  Basis Set:
  @DF-RHF Final Energy:  -212.39123925552613
    Total Energy =                       -212.3912392555261022
  Basis Set: CC-PVTZ
  Basis Set:
  Charge       = 0
  Multiplicity = 1
  Basis Set: CC-PVTZ
  Basis Set:

    Orbital Energies (a.u.)
    -----------------------

    Doubly Occupied:

       1A    -15.528071     2A    -11.239800     3A    -11.239620
       4A    -11.206516     5A    -11.200085     6A     -1.204476
       7A     -1.025708     8A     -0.965452     9A     -0.840900
      10A     -0.808127    11A     -0.665516    12A     -0.627415
      13A     -0.612959    14A     -0.574290    15A     -0.545543
      16A     -0.528113    17A     -0.505708    18A     -0.494142
      19A     -0.482045    20A     -0.468386    21A     -0.360660

  @DF-RHF Final Energy:  -212.39123990983998

   => Energetics <=

    Nuclear Repulsion Energy =            190.3683362325138830
    One-Electron Energy =                -663.2720860526424076
    Two-Electron Energy =                 260.5125099102885997
    DFT Exchange-Correlation Energy =       0.0000000000000000
    Empirical Dispersion Energy =           0.0000000000000000
    PCM Polarization Energy =               0.0000000000000000
    EFP Energy =                            0.0000000000000000
    Total Energy =                       -212.3912399098398964
    Molecular point group: c1
  Basis Set: CC-PVTZ
  Basis Set:

  -Total Gradient:
     Atom            X                  Y                   Z
    ------   -----------------  -----------------  -----------------
       1        0.000001963009    -0.000003659297     0.000002014127
       2        0.000019178820    -0.000003815643     0.000005641603
       3        0.001828072028    -0.000630605717     0.000370985369
       4       -0.000004995891    -0.000014722987     0.000005153327
       5        0.000017892711     0.000015368755    -0.000003288951
       6       -0.003258605093     0.000955894712    -0.000807021905
       7       -0.000011017651    -0.000012513120    -0.000003960167
       8        0.000005251836     0.000006167163    -0.000011737320
       9        0.003711840468    -0.000606926444     0.001578368669
      10       -0.000019788372    -0.000000602280     0.000004196998
      11        0.000012257211     0.000023213056     0.000003359087
      12       -0.002286113677     0.000262327989    -0.001162577403
      13       -0.000008069770     0.000003109295     0.000001561955
      14        0.000011237302    -0.000004485793     0.000006244528
      15        0.000001487909    -0.000003039069     0.000001200171
      16       -0.000020590843     0.000014289381     0.000009859910

  **** Optimization is complete! (in 9 steps) ****
    Final optimized geometry and variables:
    Molecular point group: c1

    Geometry (in Angstrom), charge = 0, multiplicity = 1:

    H            1.129692162101     0.955525993871    -2.888351374899
    C            1.024728641378     1.183067421792    -1.833783905868
    C            0.493567402541    -0.020205260948    -1.073480609213
    H            0.355750447932     2.027637435842    -1.726365711312
    H            2.000781570630     1.479056758070    -1.461571507584
    N            0.333903428244     0.279189651438     0.335053604779
    H           -0.475157420700    -0.298296422013    -1.475096242857
    H            1.153022907897    -0.875820896190    -1.237575240147
    C           -0.192869908351    -0.812881142915     1.141397866744
    H            1.206374826629     0.586806728954     0.704783242728
    C           -1.675114701882    -0.632542539875     1.443654540310
    H           -0.054605693045    -1.768952042947     0.638207500521
    H            0.356940473974    -0.864219428167     2.074173130798
    H           -2.252137572070    -0.576290928618     0.527511950456
    H           -2.055230947288    -1.463934708577     2.028809803915
    H           -1.841120092143     0.283740335819     1.996646675000

  Mulliken Charges: (a.u.)
   Center  Symbol    Alpha    Beta     Spin     Total
       1     H     0.45432  0.45432  0.00000  0.09137
       2     C     3.14349  3.14349  0.00000 -0.28698
       3     C     3.02396  3.02396  0.00000 -0.04792
       4     H     0.44947  0.44947  0.00000  0.10106
       5     H     0.45948  0.45948  0.00000  0.08104
       6     N     3.63830  3.63830  0.00000 -0.27661
       7     H     0.45813  0.45813  0.00000  0.08375
       8     H     0.47161  0.47161  0.00000  0.05677
       9     C     3.03695  3.03695  0.00000 -0.07390
      10     H     0.44399  0.44399  0.00000  0.11203
      11     C     3.12921  3.12921  0.00000 -0.25841
      12     H     0.46739  0.46739  0.00000  0.06522
      13     H     0.45448  0.45448  0.00000  0.09104
      14     H     0.45692  0.45692  0.00000  0.08616
      15     H     0.45812  0.45812  0.00000  0.08376
      16     H     0.45418  0.45418  0.00000  0.09164

   Total alpha = 21.00000, Total beta = 21.00000, Total charge = -0.00000

*** Psi4 exiting successfully. Buy a developer a beer!
