  ==> Input File <==

--------------------------------------------------------------------------
set {
	reference rhf
	basis cc-pvtz
}

set_num_threads( 4 )
memory 2 gb

molecule MOL {
0 1

H	 2.646708	 0.758099	 0.000000
O	 2.258158	 -0.097743	 0.000000
C	 0.911162	 -0.015915	 0.000000
C	 0.271874	 0.022920	 1.228253
C	 0.172168	 0.028977	 -1.167173
H	 0.861173	 -0.012879	 2.123209
C	 -1.102789	 0.106429	 1.277267
H	 0.668158	 -0.001153	 -2.120450
C	 -1.207431	 0.112786	 -1.102791
H	 -1.592821	 0.136198	 2.231930
C	 -1.854178	 0.152075	 0.114626
H	 -1.773741	 0.147189	 -2.014073
H	 -2.923546	 0.217037	 0.160761

	symmetry c1
}
set optking {
	frozen_dihedral = ("
		4 3 2 1
	")
}

ee = optimize('scf')
oeprop('DIPOLE', 'QUADRUPOLE', 'MULLIKEN_CHARGES')
f=open( 'psi4out.xyz', 'w' )
f.write( "13  " )
f.write( str(ee) + "\n" )
f.write( MOL.save_string_xyz() )
f.close()
--------------------------------------------------------------------------

    Molecular point group: c1
  Charge       = 0
  Multiplicity = 1
  Basis Set: CC-PVTZ
  Basis Set:
  @DF-RHF Final Energy:  -305.66535827662921
    Total Energy =                       -305.6653582766290924
    Molecular point group: c1
  Basis Set: CC-PVTZ
  Basis Set:
  Basis Set: CC-PVTZ
  Basis Set:
  @DF-RHF Final Energy:  -305.66618384382815
    Total Energy =                       -305.6661838438280370
  Basis Set: CC-PVTZ
  Basis Set:
  Basis Set: CC-PVTZ
  Basis Set:
  @DF-RHF Final Energy:  -305.66624517034535
    Total Energy =                       -305.6662451703454053
  Basis Set: CC-PVTZ
  Basis Set:
  Basis Set: CC-PVTZ
  Basis Set:
  @DF-RHF Final Energy:  -305.66625194202584
    Total Energy =                       -305.6662519420260082
  Basis Set: CC-PVTZ
  Basis Set:
  Charge       = 0
  Multiplicity = 1
  Basis Set: CC-PVTZ
  Basis Set:

    Orbital Energies (a.u.)
    -----------------------

    Doubly Occupied:

       1A    -20.570852     2A    -11.288634     3A    -11.233354
       4A    -11.233252     5A    -11.225928     6A    -11.225565
       7A    -11.225450     8A     -1.397537     9A     -1.153355
      10A     -1.022370    11A     -1.008341    12A     -0.839571
      13A     -0.828677    14A     -0.737976    15A     -0.684110
      16A     -0.651581    17A     -0.632881    18A     -0.596754
      19A     -0.592087    20A     -0.525525    21A     -0.517903
      22A     -0.498596    23A     -0.471235    24A     -0.341847
      25A     -0.329874

  @DF-RHF Final Energy:  -305.66625306689247

   => Energetics <=

    Nuclear Repulsion Energy =            273.2974501995643664
    One-Electron Energy =                -956.2608968643819480
    Two-Electron Energy =                 377.2971935979248883
    DFT Exchange-Correlation Energy =       0.0000000000000000
    Empirical Dispersion Energy =           0.0000000000000000
    PCM Polarization Energy =               0.0000000000000000
    EFP Energy =                            0.0000000000000000
    Total Energy =                       -305.6662530668927502
    Molecular point group: c1
  Basis Set: CC-PVTZ
  Basis Set:

  -Total Gradient:
     Atom            X                  Y                   Z
    ------   -----------------  -----------------  -----------------
       1        0.000003630819     0.000015161363    -0.000092811311
       2        0.000175111981    -0.000041932653     0.000138836116
       3       -0.000242440021     0.000073612403    -0.000247067368
       4       -0.000026003257    -0.000067790604     0.000099876828
       5        0.000183182500     0.000004290531     0.000049335449
       6       -0.000024934125    -0.000007531393    -0.000022282906
       7        0.000085064149     0.000050352044     0.000049679367
       8        0.000028368987    -0.000011468171     0.000006688538
       9       -0.000154270203     0.000039633005     0.000101098863
      10       -0.000038920820    -0.000008085694    -0.000008042130
      11        0.000002103044    -0.000040101729    -0.000133272736
      12        0.000015092993    -0.000004069727     0.000014438183
      13       -0.000005986047    -0.000002069377     0.000043523106

  **** Optimization is complete! (in 5 steps) ****
    Final optimized geometry and variables:
    Molecular point group: c1

    Geometry (in Angstrom), charge = 0, multiplicity = 1:

    H            2.667722398739     0.690896359701    -0.081041936276
    O            2.266076728270    -0.160155521126    -0.086669078876
    C            0.903602064584    -0.047662677583    -0.034375219009
    C            0.261924480251    -0.019568847668     1.188824638096
    C            0.172216144717    -0.011255952817    -1.205258388366
    H            0.845589873396    -0.065568870027     2.087721266717
    C           -1.117121733762     0.055327052657     1.237174810816
    H            0.687153892130    -0.050254715911    -2.145534207767
    C           -1.207025927393     0.062947466157    -1.149257805425
    H           -1.613837958655     0.076343920844     2.188469624349
    C           -1.856533399098     0.098468103191     0.070027165768
    H           -1.773370220298     0.090217765494    -2.060604698605
    H           -2.927159976091     0.153969568666     0.110850632763

  Mulliken Charges: (a.u.)
   Center  Symbol    Alpha    Beta     Spin     Total
       1     H     0.38846  0.38846  0.00000  0.22308
       2     O     4.19266  4.19266  0.00000 -0.38533
       3     C     2.87278  2.87278  0.00000  0.25443
       4     C     3.11026  3.11026  0.00000 -0.22053
       5     C     3.10967  3.10967  0.00000 -0.21935
       6     H     0.41726  0.41726  0.00000  0.16548
       7     C     3.06958  3.06958  0.00000 -0.13917
       8     H     0.41709  0.41709  0.00000  0.16581
       9     C     3.06954  3.06954  0.00000 -0.13908
      10     H     0.42160  0.42160  0.00000  0.15680
      11     C     3.08649  3.08649  0.00000 -0.17297
      12     H     0.42158  0.42158  0.00000  0.15684
      13     H     0.42301  0.42301  0.00000  0.15398

   Total alpha = 25.00000, Total beta = 25.00000, Total charge =  0.00000
