  ==> Input File <==

--------------------------------------------------------------------------
set {
	reference rhf
	basis 6-31G*
}

set_num_threads( 4 )
memory 2 gb

molecule MOL {
0 1

H	 2.399851	 0.167520	 2.084041
O	 1.701266	 0.713639	 1.753248
C	 1.135793	 0.118896	 0.612333
C	 0.031547	 1.023609	 0.088541
H	 0.714970	 -0.854175	 0.859171
H	 1.894615	 -0.041188	 -0.150337
C	 -1.134819	 0.293262	 -0.585751
H	 0.474374	 1.714721	 -0.623187
H	 -0.338529	 1.620940	 0.920081
C	 -1.917817	 -0.639439	 0.339494
H	 -0.758119	 -0.268455	 -1.433105
H	 -1.813832	 1.041889	 -0.986690
H	 -2.777680	 -1.057197	 -0.174994
H	 -1.310268	 -1.471279	 0.680599
H	 -2.283753	 -0.111424	 1.216626

	symmetry c1
}
set optking {
	frozen_dihedral = ("
		2 3 4 8
	")
}

ee = optimize('scf')
oeprop('DIPOLE', 'QUADRUPOLE', 'MULLIKEN_CHARGES')
f=open( 'psi4out.xyz', 'w' )
f.write( "15  " )
f.write( str(ee) + "\n" )
f.write( MOL.save_string_xyz() )
f.close()
--------------------------------------------------------------------------

    Molecular point group: c1
  Charge       = 0
  Multiplicity = 1
  Basis Set: 6-31G*
  Basis Set:
  @DF-RHF Final Energy:  -232.13909830514336
    Total Energy =                       -232.1390983051433636
    Molecular point group: c1
  Basis Set: 6-31G*
  Basis Set:
  Basis Set: 6-31G*
  Basis Set:
  @DF-RHF Final Energy:  -232.13968255795251
    Total Energy =                       -232.1396825579524261
  Basis Set: 6-31G*
  Basis Set:
  Basis Set: 6-31G*
  Basis Set:
  @DF-RHF Final Energy:  -232.14002257348267
    Total Energy =                       -232.1400225734827245
  Basis Set: 6-31G*
  Basis Set:
  Basis Set: 6-31G*
  Basis Set:
  @DF-RHF Final Energy:  -232.14006492502392
    Total Energy =                       -232.1400649250242623
  Basis Set: 6-31G*
  Basis Set:
  Basis Set: 6-31G*
  Basis Set:
  @DF-RHF Final Energy:  -232.14008498629281
    Total Energy =                       -232.1400849862927771
  Basis Set: 6-31G*
  Basis Set:
  Basis Set: 6-31G*
  Basis Set:
  @DF-RHF Final Energy:  -232.14008956693922
    Total Energy =                       -232.1400895669390820
  Basis Set: 6-31G*
  Basis Set:
  Basis Set: 6-31G*
  Basis Set:
  @DF-RHF Final Energy:  -232.14009155969367
    Total Energy =                       -232.1400915596937011
  Basis Set: 6-31G*
  Basis Set:
  Charge       = 0
  Multiplicity = 1
  Basis Set: 6-31G*
  Basis Set:

    Orbital Energies (a.u.)
    -----------------------

    Doubly Occupied:

       1A    -20.551654     2A    -11.267195     3A    -11.218094
       4A    -11.211370     5A    -11.208853     6A     -1.357997
       7A     -1.068145     8A     -0.969511     9A     -0.866919
      10A     -0.786201    11A     -0.694803    12A     -0.650488
      13A     -0.618377    14A     -0.575221    15A     -0.554297
      16A     -0.543525    17A     -0.502604    18A     -0.475476
      19A     -0.471938    20A     -0.457026    21A     -0.429964

  @DF-RHF Final Energy:  -232.14009175636812

   => Energetics <=

    Nuclear Repulsion Energy =            188.3375362947301142
    One-Electron Energy =                -687.9959369219079690
    Two-Electron Energy =                 267.5183088708097898
    DFT Exchange-Correlation Energy =       0.0000000000000000
    Empirical Dispersion Energy =           0.0000000000000000
    PCM Polarization Energy =               0.0000000000000000
    EFP Energy =                            0.0000000000000000
    Total Energy =                       -232.1400917563680650
    Molecular point group: c1
  Basis Set: 6-31G*
  Basis Set:

  -Total Gradient:
     Atom            X                  Y                   Z
    ------   -----------------  -----------------  -----------------
       1       -0.000006827283    -0.000003976258    -0.000008677642
       2       -0.001968673688    -0.001712078159     0.001722655760
       3        0.002378906853     0.001656665944    -0.002962037291
       4        0.000266960486     0.002488991954     0.004441632078
       5       -0.000001619558    -0.000000384563    -0.000003610323
       6        0.000001012416     0.000002681616    -0.000000749048
       7        0.000011070127    -0.000006314694    -0.000001407542
       8       -0.000676625984    -0.002426557918    -0.003191007292
       9       -0.000001968412     0.000006750401     0.000000979166
      10       -0.000004204650    -0.000000781735     0.000004685286
      11        0.000005614939     0.000003449807    -0.000005858548
      12        0.000001618482    -0.000006371286     0.000000730237
      13       -0.000004520447     0.000003866607     0.000002832929
      14       -0.000003680340    -0.000002721179    -0.000007031375
      15        0.000002937057    -0.000003220536     0.000006863601

  **** Optimization is complete! (in 8 steps) ****
    Final optimized geometry and variables:
    Molecular point group: c1

    Geometry (in Angstrom), charge = 0, multiplicity = 1:

    H            2.487522279284    -0.127662851232     1.505730678797
    O            1.724526532980     0.376844336076     1.261775972085
    C            1.160564381691    -0.157980121194     0.090329240156
    C           -0.004039231589     0.733530908765    -0.338421428286
    H            0.814184185007    -1.171423462591     0.280039192846
    H            1.900799689171    -0.216110842021    -0.705167291984
    C           -1.122160351735    -0.025587338343    -1.067111157539
    H            0.370257129606     1.504870825852    -1.004834348567
    H           -0.399875830307     1.224295038833     0.544169318584
    C           -2.000120251195    -0.881215352880    -0.151758975904
    H           -0.689859585044    -0.649816619813    -1.847691422349
    H           -1.754507221703     0.695075942316    -1.578288367279
    H           -2.775356989421    -1.385540353172    -0.720526240375
    H           -1.429552119608    -1.643732994142     0.368501856683
    H           -2.487185662578    -0.266588098827     0.599635346807

  Mulliken Charges: (a.u.)
   Center  Symbol    Alpha    Beta     Spin     Total
       1     H     0.28183  0.28183  0.00000  0.43634
       2     O     4.37113  4.37113  0.00000 -0.74227
       3     C     2.99379  2.99379  0.00000  0.01241
       4     C     3.16282  3.16282  0.00000 -0.32564
       5     H     0.43069  0.43069  0.00000  0.13863
       6     H     0.43107  0.43107  0.00000  0.13786
       7     C     3.16174  3.16174  0.00000 -0.32348
       8     H     0.41723  0.41723  0.00000  0.16555
       9     H     0.40736  0.40736  0.00000  0.18529
      10     C     3.23949  3.23949  0.00000 -0.47897
      11     H     0.42446  0.42446  0.00000  0.15108
      12     H     0.41871  0.41871  0.00000  0.16257
      13     H     0.41939  0.41939  0.00000  0.16121
      14     H     0.42092  0.42092  0.00000  0.15815
      15     H     0.41936  0.41936  0.00000  0.16129

   Total alpha = 21.00000, Total beta = 21.00000, Total charge = -0.00000
