  ==> Input File <==

--------------------------------------------------------------------------
set {
	reference rhf
	basis 6-31G*
}

set_num_threads( 4 )
memory 2 gb

molecule MOL {
0 1

H	 5.268524	 0.192471	 1.070992
C	 4.673736	 -0.214914	 0.259335
C	 3.185378	 -0.203514	 0.605509
H	 4.871837	 0.380453	 -0.627026
H	 5.025590	 -1.224632	 0.065769
C	 2.317601	 -0.778379	 -0.516234
H	 2.874655	 0.814325	 0.817774
H	 3.023650	 -0.778480	 1.515976
C	 2.828345	 -2.109006	 -1.069263
H	 1.302644	 -0.911773	 -0.158864
H	 2.274032	 -0.062568	 -1.334010
C	 2.662612	 -3.287047	 -0.120583
H	 2.283206	 -2.363126	 -1.977016
H	 3.872181	 -2.031859	 -1.365288
C	 3.475324	 -4.538016	 -0.405696
O	 1.909488	 -3.243627	 0.805335
C	 3.142513	 -5.197708	 -1.752249
H	 3.287567	 -5.229731	 0.406703
H	 4.531679	 -4.276613	 -0.384038
C	 3.906992	 -6.506058	 -1.962969
H	 2.073565	 -5.394231	 -1.800676
H	 3.371148	 -4.517137	 -2.568350
C	 3.584233	 -7.172245	 -3.299729
H	 3.675183	 -7.191428	 -1.151430
H	 4.975620	 -6.311267	 -1.903941
H	 2.526789	 -7.408725	 -3.374670
H	 3.837980	 -6.523738	 -4.133494
H	 4.139105	 -8.097216	 -3.419829

	symmetry c1
}
set optking {
	frozen_dihedral = ("
		10 6 3 2
	")
}

ee = optimize('scf')
oeprop('DIPOLE', 'QUADRUPOLE', 'MULLIKEN_CHARGES')
f=open( 'psi4out.xyz', 'w' )
f.write( "28  " )
f.write( str(ee) + "\n" )
f.write( MOL.save_string_xyz() )
f.close()
--------------------------------------------------------------------------

    Molecular point group: c1
  Charge       = 0
  Multiplicity = 1
  Basis Set: 6-31G*
  Basis Set:
  @DF-RHF Final Energy:  -426.16455552583159
    Total Energy =                       -426.1645555258317017
    Molecular point group: c1
  Basis Set: 6-31G*
  Basis Set:
  Basis Set: 6-31G*
  Basis Set:
  @DF-RHF Final Energy:  -426.16584328533997
    Total Energy =                       -426.1658432853398608
  Basis Set: 6-31G*
  Basis Set:
  Basis Set: 6-31G*
  Basis Set:
  @DF-RHF Final Energy:  -426.16643581182166
    Total Energy =                       -426.1664358118209748
  Basis Set: 6-31G*
  Basis Set:
  Basis Set: 6-31G*
  Basis Set:
  @DF-RHF Final Energy:  -426.16645663573820
    Total Energy =                       -426.1664566357382000
  Basis Set: 6-31G*
  Basis Set:
  @DF-RHF Final Energy:  -426.16653375386147
    Total Energy =                       -426.1665337538613585
  @DF-RHF Final Energy:  -426.16656869158703
    Total Energy =                       -426.1665686915871447
  Basis Set: 6-31G*
  Basis Set:
  @DF-RHF Final Energy:  -426.16657127757310
    Total Energy =                       -426.1665712775729844
  Basis Set: 6-31G*
  Basis Set:
  Basis Set: 6-31G*
  Basis Set:
  @DF-RHF Final Energy:  -426.16656666833774
    Total Energy =                       -426.1665666683375093
  Basis Set: 6-31G*
  Basis Set:
  Basis Set: 6-31G*
  Basis Set:
  @DF-RHF Final Energy:  -426.16657489977445
    Total Energy =                       -426.1665748997741048
  Basis Set: 6-31G*
  Basis Set:
  Charge       = 0
  Multiplicity = 1
  Basis Set: 6-31G*
  Basis Set:

    Orbital Energies (a.u.)
    -----------------------

    Doubly Occupied:

       1A    -20.548022     2A    -11.321882     3A    -11.232366
       4A    -11.228888     5A    -11.228805     6A    -11.226044
       7A    -11.217453     8A    -11.216274     9A    -11.211806
      10A    -11.210151    11A     -1.393007    12A     -1.095124
      13A     -1.076993    14A     -1.021347    15A     -0.988617
      16A     -0.911854    17A     -0.880967    18A     -0.808918
      19A     -0.793359    20A     -0.718265    21A     -0.666765
      22A     -0.652942    23A     -0.637717    24A     -0.619858
      25A     -0.608981    26A     -0.596708    27A     -0.577242
      28A     -0.556674    29A     -0.544119    30A     -0.538526
      31A     -0.528772    32A     -0.508445    33A     -0.500922
      34A     -0.485006    35A     -0.478630    36A     -0.475326
      37A     -0.465886    38A     -0.463932    39A     -0.457462
      40A     -0.391186

  @DF-RHF Final Energy:  -426.16657508987339

   => Energetics <=

    Nuclear Repulsion Energy =            539.7010610389452268
    One-Electron Energy =               -1647.5647937354067381
    Two-Electron Energy =                 681.6971576065884619
    DFT Exchange-Correlation Energy =       0.0000000000000000
    Empirical Dispersion Energy =           0.0000000000000000
    PCM Polarization Energy =               0.0000000000000000
    EFP Energy =                            0.0000000000000000
    Total Energy =                       -426.1665750898730494
    Molecular point group: c1
  Basis Set: 6-31G*
  Basis Set:

  -Total Gradient:
     Atom            X                  Y                   Z
    ------   -----------------  -----------------  -----------------
       1       -0.000000187339    -0.000000303359    -0.000001092179
       2        0.000173912051    -0.002049560943     0.000888262425
       3       -0.000078264284     0.002318028302    -0.001062800935
       4       -0.000000453488    -0.000000290566     0.000000852039
       5       -0.000001171056     0.000002182064    -0.000000424469
       6       -0.000757776166     0.002569711885    -0.000726634816
       7       -0.000000870980    -0.000001802901     0.000001646436
       8        0.000000753245    -0.000001699354     0.000009478421
       9        0.000025240755     0.000001805240    -0.000009510427
      10        0.000669126676    -0.002807318395     0.000903375450
      11        0.000001366791    -0.000009244696    -0.000003326852
      12       -0.000005289970    -0.000008615624     0.000009723322
      13       -0.000008754368    -0.000008984394     0.000003304511
      14       -0.000005910448    -0.000001095646     0.000003678862
      15       -0.000004803360     0.000001857569    -0.000022765687
      16       -0.000001857019    -0.000010360412    -0.000009783129
      17       -0.000003535644    -0.000003457275     0.000012111501
      18       -0.000000248768     0.000003601550    -0.000002007854
      19        0.000007241388     0.000010574925     0.000008958502
      20       -0.000007074409    -0.000003567575     0.000004943256
      21       -0.000004951358    -0.000001532456    -0.000000583444
      22       -0.000002672515    -0.000004627740    -0.000002154933
      23        0.000008239834     0.000006114468    -0.000006214415
      24       -0.000005059935    -0.000002285647    -0.000003199135
      25        0.000000006979    -0.000000849747     0.000005629061
      26        0.000002771557     0.000000226556     0.000003535691
      27       -0.000002282231    -0.000000075833    -0.000003242820
      28        0.000002504061     0.000001570000    -0.000001758392

  **** Optimization is complete! (in 10 steps) ****
    Final optimized geometry and variables:
    Molecular point group: c1

    Geometry (in Angstrom), charge = 0, multiplicity = 1:

    H            1.981531805802     3.674159775258     1.955149633831
    C            1.487653317628     3.156865759682     1.138681034856
    C           -0.026146738823     3.126695943136     1.359680783026
    H            1.748599618721     3.672209534780     0.217443435116
    H            1.910993933742     2.158423324981     1.090380820721
    C           -0.845559499548     2.555984957833     0.192662468808
    H           -0.377292908085     4.137050971156     1.552041678824
    H           -0.240309416133     2.553802975916     2.255317047940
    C           -0.361015557904     1.214394406332    -0.365485637305
    H           -1.868020220410     2.419742149286     0.525485519325
    H           -0.858825693388     3.272298747257    -0.625079802902
    C           -0.474944286047     0.051434235572     0.608060777987
    H           -0.969678911095     0.952371270988    -1.229858597503
    H            0.657073466214     1.276448780517    -0.737253377891
    C            0.338390182779    -1.196345869149     0.311580679524
    O           -1.193789578357     0.102361976539     1.560763653624
    C           -0.053337156802    -1.886572911533    -1.003541098480
    H            0.197761819623    -1.872946016253     1.145928341052
    H            1.391748914297    -0.924508752988     0.275633117025
    C            0.717445918211    -3.188752909483    -1.228785438802
    H           -1.120527890746    -2.097599636742    -0.993154403698
    H            0.123765837845    -1.218817713206    -1.842757438196
    C            0.337070732533    -3.884010597449    -2.535249138429
    H            0.536122646909    -3.861620959757    -0.394261578100
    H            1.784925428985    -2.979228804542    -1.227382825794
    H           -0.719385442063    -4.135649672859    -2.552219197969
    H            0.539344453516    -3.247955613269    -3.392350311056
    H            0.898107123386    -4.803742557762    -2.666610635332

  Mulliken Charges: (a.u.)
   Center  Symbol    Alpha    Beta     Spin     Total
       1     H     0.41695  0.41695  0.00000  0.16611
       2     C     3.24242  3.24242  0.00000 -0.48484
       3     C     3.15864  3.15864  0.00000 -0.31728
       4     H     0.42356  0.42356  0.00000  0.15288
       5     H     0.42573  0.42573  0.00000  0.14853
       6     C     3.14933  3.14933  0.00000 -0.29866
       7     H     0.42070  0.42070  0.00000  0.15861
       8     H     0.40676  0.40676  0.00000  0.18649
       9     C     3.21529  3.21529  0.00000 -0.43059
      10     H     0.40664  0.40664  0.00000  0.18672
      11     H     0.42186  0.42186  0.00000  0.15628
      12     C     2.73116  2.73116  0.00000  0.53768
      13     H     0.40293  0.40293  0.00000  0.19413
      14     H     0.41087  0.41087  0.00000  0.17826
      15     C     3.20164  3.20164  0.00000 -0.40328
      16     O     4.26700  4.26700  0.00000 -0.53401
      17     C     3.16383  3.16383  0.00000 -0.32766
      18     H     0.39986  0.39986  0.00000  0.20029
      19     H     0.41307  0.41307  0.00000  0.17386
      20     C     3.15180  3.15180  0.00000 -0.30359
      21     H     0.41364  0.41364  0.00000  0.17272
      22     H     0.41849  0.41849  0.00000  0.16302
      23     C     3.24034  3.24034  0.00000 -0.48067
      24     H     0.41839  0.41839  0.00000  0.16322
      25     H     0.42144  0.42144  0.00000  0.15711
      26     H     0.41960  0.41960  0.00000  0.16080
      27     H     0.42118  0.42118  0.00000  0.15763
      28     H     0.41689  0.41689  0.00000  0.16622

   Total alpha = 40.00000, Total beta = 40.00000, Total charge =  0.00000
