  ==> Input File <==

--------------------------------------------------------------------------
set {
	reference rhf
	basis 6-31G*
}

set_num_threads( 4 )
memory 2 gb

molecule MOL {
0 1

H	 -1.908417	 -2.803227	 -1.325524
C	 -2.507623	 -1.891350	 -1.211266
C	 -2.436173	 -1.248297	 0.150347
O	 -3.149833	 -1.480631	 -2.122653
C	 -0.992389	 -1.004534	 0.611131
H	 -3.007057	 -0.327367	 0.124125
H	 -2.925856	 -1.924894	 0.849690
C	 -0.252658	 0.041456	 -0.226725
H	 -1.011757	 -0.687056	 1.649455
H	 -0.443593	 -1.944870	 0.592492
C	 1.180775	 0.282413	 0.250794
H	 -0.807117	 0.977198	 -0.198270
H	 -0.235791	 -0.266430	 -1.270498
C	 2.148627	 -0.814315	 -0.201312
H	 1.516199	 1.249228	 -0.115937
H	 1.192670	 0.346017	 1.338083
C	 3.580890	 -0.659131	 0.322722
H	 2.166869	 -0.852443	 -1.289387
H	 1.762857	 -1.776509	 0.128956
C	 4.324889	 0.564933	 -0.213704
H	 4.142010	 -1.551473	 0.056605
H	 3.564836	 -0.624694	 1.410140
H	 4.342616	 0.565491	 -1.300421
H	 3.866655	 1.493402	 0.110242
H	 5.353900	 0.572371	 0.132816

	symmetry c1
}
set optking {
	frozen_dihedral = ("
		12 8 11 14
	")
}

ee = optimize('scf')
oeprop('DIPOLE', 'QUADRUPOLE', 'MULLIKEN_CHARGES')
f=open( 'psi4out.xyz', 'w' )
f.write( "25  " )
f.write( str(ee) + "\n" )
f.write( MOL.save_string_xyz() )
f.close()
--------------------------------------------------------------------------

    Molecular point group: c1
  Charge       = 0
  Multiplicity = 1
  Basis Set: 6-31G*
  Basis Set:
  @DF-RHF Final Energy:  -387.11965610283471
    Total Energy =                       -387.1196561028342558
    Molecular point group: c1
  Basis Set: 6-31G*
  Basis Set:
  Basis Set: 6-31G*
  Basis Set:
  @DF-RHF Final Energy:  -387.11965444203366
    Total Energy =                       -387.1196544420340615
  Basis Set: 6-31G*
  Basis Set:
  Basis Set: 6-31G*
  Basis Set:
  @DF-RHF Final Energy:  -387.11640248641601
    Total Energy =                       -387.1164024864161775
  Basis Set: 6-31G*
  Basis Set:
  Basis Set: 6-31G*
  Basis Set:
  @DF-RHF Final Energy:  -387.11987876964827
    Total Energy =                       -387.1198787696478121
  Basis Set: 6-31G*
  Basis Set:
  Basis Set: 6-31G*
  Basis Set:
  @DF-RHF Final Energy:  -387.11991626185682
    Total Energy =                       -387.1199162618572700
  Basis Set: 6-31G*
  Basis Set:
  Basis Set: 6-31G*
  Basis Set:
  @DF-RHF Final Energy:  -387.11992262141962
    Total Energy =                       -387.1199226214195050
  Basis Set: 6-31G*
  Basis Set:
  Basis Set: 6-31G*
  Basis Set:
  @DF-RHF Final Energy:  -387.11992884294676
    Total Energy =                       -387.1199288429470471
  Basis Set: 6-31G*
  Basis Set:
  Charge       = 0
  Multiplicity = 1
  Basis Set: 6-31G*
  Basis Set:

    Orbital Energies (a.u.)
    -----------------------

    Doubly Occupied:

       1A    -20.561926     2A    -11.326111     3A    -11.235137
       4A    -11.234547     5A    -11.224210     6A    -11.220067
       7A    -11.219216     8A    -11.218464     9A    -11.210927
      10A     -1.401875    11A     -1.104036    12A     -1.069237
      13A     -1.012721    14A     -0.941026    15A     -0.881004
      16A     -0.821326    17A     -0.791088    18A     -0.776894
      19A     -0.665552    20A     -0.650802    21A     -0.634100
      22A     -0.626037    23A     -0.611207    24A     -0.592086
      25A     -0.570233    26A     -0.564114    27A     -0.530698
      28A     -0.520128    29A     -0.517454    30A     -0.497259
      31A     -0.488771    32A     -0.479380    33A     -0.464731
      34A     -0.450188    35A     -0.446429    36A     -0.409437

  @DF-RHF Final Energy:  -387.11992838396822

   => Energetics <=

    Nuclear Repulsion Energy =            443.3861536348281902
    One-Electron Energy =               -1403.0753314323278573
    Two-Electron Energy =                 572.5692494135306561
    DFT Exchange-Correlation Energy =       0.0000000000000000
    Empirical Dispersion Energy =           0.0000000000000000
    PCM Polarization Energy =               0.0000000000000000
    EFP Energy =                            0.0000000000000000
    Total Energy =                       -387.1199283839690679
    Molecular point group: c1
  Basis Set: 6-31G*
  Basis Set:

  -Total Gradient:
     Atom            X                  Y                   Z
    ------   -----------------  -----------------  -----------------
       1       -0.000007663512    -0.000005293222    -0.000009153357
       2        0.000009391412     0.000021593191     0.000009335393
       3       -0.000012193860     0.000005981306     0.000022708636
       4        0.000003629402    -0.000012927416    -0.000011006059
       5       -0.000005387602    -0.000020295695    -0.000007662695
       6       -0.000001387226     0.000001445609    -0.000005180736
       7        0.000003596053     0.000004540276     0.000012535316
       8       -0.000441680799    -0.000131548578     0.001391558192
       9        0.000002596132    -0.000004558894    -0.000003497279
      10       -0.000018292781    -0.000000107734     0.000002153284
      11       -0.000208248242    -0.000740211998     0.001058361191
      12        0.000414207544     0.000275917571    -0.001480758500
      13       -0.000006230604     0.000016454238    -0.000000762766
      14        0.000233460695     0.000587601837    -0.000989002377
      15       -0.000024039436    -0.000039404855     0.000003751589
      16        0.000010007792     0.000027771780     0.000014504301
      17       -0.000013010611     0.000020773894     0.000014208992
      18        0.000003757666     0.000015011575    -0.000003845144
      19        0.000030775353    -0.000004098422    -0.000019886743
      20        0.000018138183    -0.000012260124    -0.000009260352
      21       -0.000001657775    -0.000004848401     0.000013282191
      22       -0.000010905971     0.000019036870     0.000002635716
      23       -0.000010617251     0.000006232914    -0.000003434871
      24        0.000027723322    -0.000016336014     0.000009047866
      25        0.000004032117    -0.000010469706    -0.000010631784

  **** Optimization is complete! (in 8 steps) ****
    Final optimized geometry and variables:
    Molecular point group: c1

    Geometry (in Angstrom), charge = 0, multiplicity = 1:

    H           -2.178956024891    -2.119051438512    -1.016275240143
    C           -2.754303388572    -1.191189681695    -0.907423522566
    C           -2.672870093142    -0.546611725180     0.453040546569
    O           -3.385498667169    -0.769639558864    -1.821616837215
    C           -1.225359909408    -0.337752455941     0.920075229463
    H           -3.220493554274     0.388266322289     0.421636576475
    H           -3.182553691232    -1.208831232771     1.151771484683
    C           -0.466290287316     0.701150750322     0.088847832137
    H           -1.241451495802    -0.021250297331     1.958999439276
    H           -0.703957712127    -1.291939720286     0.902323466131
    C            0.977756496097     0.942654932769     0.550539375806
    H           -1.013091161055     1.640340754853     0.119217951196
    H           -0.458291642842     0.403626126690    -0.958457623803
    C            1.962070314437    -0.145668886347     0.108367338877
    H            1.305660725632     1.898805317361     0.154260200371
    H            1.001080735506     1.039666616202     1.634975421165
    C            3.391209929574     0.038513171363     0.632675003999
    H            1.981943038433    -0.183959476094    -0.979565434178
    H            1.602778070984    -1.117134229429     0.439365972411
    C            4.112388849913     1.276296438507     0.095837603865
    H            3.969684084177    -0.843238371017     0.368356199324
    H            3.373156064238     0.073858102068     1.720117268309
    H            4.128563398401     1.277900087135    -0.990745953823
    H            3.639254045643     2.196676556453     0.421288130789
    H            5.141530360306     1.300996503594     0.440535279644

  Mulliken Charges: (a.u.)
   Center  Symbol    Alpha    Beta     Spin     Total
       1     H     0.43266  0.43266  0.00000  0.13469
       2     C     2.83064  2.83064  0.00000  0.33871
       3     C     3.20826  3.20826  0.00000 -0.41652
       4     O     4.23786  4.23786  0.00000 -0.47571
       5     C     3.16738  3.16738  0.00000 -0.33476
       6     H     0.39976  0.39976  0.00000  0.20048
       7     H     0.40657  0.40657  0.00000  0.18686
       8     C     3.15727  3.15727  0.00000 -0.31454
       9     H     0.41294  0.41294  0.00000  0.17413
      10     H     0.41828  0.41828  0.00000  0.16344
      11     C     3.15667  3.15667  0.00000 -0.31333
      12     H     0.41607  0.41607  0.00000  0.16786
      13     H     0.41822  0.41822  0.00000  0.16357
      14     C     3.15460  3.15460  0.00000 -0.30920
      15     H     0.41639  0.41639  0.00000  0.16721
      16     H     0.42352  0.42352  0.00000  0.15297
      17     C     3.15234  3.15234  0.00000 -0.30468
      18     H     0.42244  0.42244  0.00000  0.15511
      19     H     0.42291  0.42291  0.00000  0.15419
      20     C     3.24170  3.24170  0.00000 -0.48340
      21     H     0.42042  0.42042  0.00000  0.15916
      22     H     0.42323  0.42323  0.00000  0.15355
      23     H     0.42146  0.42146  0.00000  0.15708
      24     H     0.41986  0.41986  0.00000  0.16029
      25     H     0.41856  0.41856  0.00000  0.16287

   Total alpha = 36.00000, Total beta = 36.00000, Total charge = -0.00000
