                              Psi4 1.0.54 Driver

  ==> Input File <==

--------------------------------------------------------------------------
set {
	reference rhf
	basis cc-pvtz
}

set_num_threads( 4 )
memory 2 gb

molecule MOL {
0 1

H	 -1.147714	 -0.780341	 -0.976863
N	 -1.173824	 -0.310545	 -0.096857
C	 -0.022588	 0.563366	 0.065815
H	 -2.024513	 0.211964	 -0.066465
C	 1.270420	 -0.230572	 -0.014245
H	 -0.045354	 1.293678	 -0.735129
H	 -0.043155	 1.123061	 1.001180
H	 1.336273	 -0.754933	 -0.959364
H	 2.130728	 0.422015	 0.082222
H	 1.323344	 -0.967006	 0.781773

	symmetry c1
}
set optking {
	frozen_dihedral = ("
		1 2 3 6
	")
}

ee,wfn = optimize('scf', return_wfn=True)
oeprop( wfn, 'DIPOLE', 'QUADRUPOLE', 'MULLIKEN_CHARGES')
f=open( 'psi4out.xyz', 'w' )
f.write( "10  " )
f.write( str(ee) + "\n" )
f.write( MOL.save_string_xyz() )
f.close()
--------------------------------------------------------------------------

    Molecular point group: c1
  Charge       = 0
  Multiplicity = 1
  Basis Set: CC-PVTZ
  Basis Set:
  @DF-RHF Final Energy:  -134.30281498676908
    Total Energy =                       -134.3028149867690786
    Molecular point group: c1
  Basis Set: CC-PVTZ
  Basis Set:
  Basis Set: CC-PVTZ
  Basis Set:
  @DF-RHF Final Energy:  -134.26594903868266
    Total Energy =                       -134.2659490386826349
  Basis Set: CC-PVTZ
  Basis Set:
  Basis Set: CC-PVTZ
  Basis Set:
  @DF-RHF Final Energy:  -134.29208231966624
    Total Energy =                       -134.2920823196662923
  Basis Set: CC-PVTZ
  Basis Set:
  Basis Set: CC-PVTZ
  Basis Set:
  @DF-RHF Final Energy:  -134.30456219496813
    Total Energy =                       -134.3045621949681276
  Basis Set: CC-PVTZ
  Basis Set:
  Basis Set: CC-PVTZ
  Basis Set:
  @DF-RHF Final Energy:  -134.30021283987531
    Total Energy =                       -134.3002128398754280
  Basis Set: CC-PVTZ
  Basis Set:
  Basis Set: CC-PVTZ
  Basis Set:
  @DF-RHF Final Energy:  -134.30470350364720
    Total Energy =                       -134.3047035036472892
  Basis Set: CC-PVTZ
  Basis Set:
  Basis Set: CC-PVTZ
  Basis Set:
  @DF-RHF Final Energy:  -134.30479068947682
    Total Energy =                       -134.3047906894768175
  Basis Set: CC-PVTZ
  Basis Set:
  Charge       = 0
  Multiplicity = 1
  Basis Set: CC-PVTZ
  Basis Set:

    Orbital Energies (a.u.)
    -----------------------

    Doubly Occupied:

       1A    -15.526997     2A    -11.240908     3A    -11.205199
       4A     -1.178098     5A     -0.988659     6A     -0.824466
       7A     -0.663407     8A     -0.632001     9A     -0.583199
      10A     -0.516644    11A     -0.508879    12A     -0.488513
      13A     -0.384999

  @DF-RHF Final Energy:  -134.30479201723313

   => Energetics <=

    Nuclear Repulsion Energy =             83.4783013887584247
    One-Electron Energy =                -346.0822506951230935
    Two-Electron Energy =                 128.2991572891315286
    DFT Exchange-Correlation Energy =       0.0000000000000000
    Empirical Dispersion Energy =           0.0000000000000000
    PCM Polarization Energy =               0.0000000000000000
    EFP Energy =                            0.0000000000000000
    Total Energy =                       -134.3047920172331260
    Molecular point group: c1
  Basis Set: CC-PVTZ
  Basis Set:

  -Total Gradient:
     Atom            X                  Y                   Z
    ------   -----------------  -----------------  -----------------
       1       -0.000018681114    -0.000106401022    -0.000090347036
       2        0.000114507528     0.000087895296     0.000087712481
       3        0.000000828183    -0.000024877295    -0.000227477251
       4        0.000013820931     0.000020499519     0.000026820551
       5       -0.000004382245     0.000004347818     0.000111299495
       6       -0.000031519871     0.000006851953     0.000092547157
       7       -0.000008511297    -0.000022098355     0.000049146699
       8       -0.000020547000     0.000005070307    -0.000042210506
       9       -0.000063036468     0.000004919297     0.000020134880
      10        0.000017521353     0.000023792483    -0.000027626469

  **** Optimization is complete! (in 8 steps) ****
    Final optimized geometry and variables:
    Molecular point group: c1

    Geometry (in Angstrom), charge = 0, multiplicity = 1:

    H           -1.550956510158     0.293849326645    -0.607671722341
    N           -1.130040424703     0.343681335916     0.296825468758
    C            0.317738515627     0.430159229852     0.190748251992
    H           -1.506540733199     1.146907316651     0.753867382865
    C            0.884220007926    -0.819938191681    -0.460763798971
    H            0.651360226814     1.307553248008    -0.363629207905
    H            0.718211461519     0.524438525507     1.193904693590
    H            0.505998438404    -0.935581728968    -1.471954979084
    H            1.965627229624    -0.769830082764    -0.516651677153
    H            0.605963140342    -1.701534143980     0.102967338351

  Mulliken Charges: (a.u.)
   Center  Symbol    Alpha    Beta     Spin     Total
       1     H     0.43040  0.43040  0.00000  0.13920
       2     N     3.68983  3.68983  0.00000 -0.37966
       3     C     3.01852  3.01852  0.00000 -0.03704
       4     H     0.42958  0.42958  0.00000  0.14085
       5     C     3.13926  3.13926  0.00000 -0.27852
       6     H     0.46965  0.46965  0.00000  0.06070
       7     H     0.45782  0.45782  0.00000  0.08435
       8     H     0.46003  0.46003  0.00000  0.07993
       9     H     0.45542  0.45542  0.00000  0.08917
      10     H     0.44949  0.44949  0.00000  0.10103

   Total alpha = 13.00000, Total beta = 13.00000, Total charge =  0.00000

*** Psi4 exiting successfully. Buy a developer a beer!
