  ==> Input File <==

--------------------------------------------------------------------------
set {
	reference rhf
	basis 6-31G*
}

set_num_threads( 4 )
memory 2 gb

molecule MOL {
0 1

H	 -0.255969	 1.291452	 -1.058777
O	 0.055946	 1.300438	 -0.164479
C	 0.004957	 -0.004114	 0.366649
C	 1.201664	 -0.828089	 -0.095740
C	 -1.317755	 -0.601827	 -0.081511
H	 0.013527	 0.048298	 1.454924
H	 1.216388	 -0.895289	 -1.178704
H	 2.135132	 -0.372895	 0.226467
H	 1.166770	 -1.832878	 0.313827
H	 -1.355732	 -0.658248	 -1.164429
H	 -2.141614	 0.017037	 0.254547
H	 -1.447303	 -1.600817	 0.322594

	symmetry c1
}
set optking {
	frozen_dihedral = ("
		1 2 3 4
	")
}

ee = optimize('scf')
oeprop('DIPOLE', 'QUADRUPOLE', 'MULLIKEN_CHARGES')
f=open( 'psi4out.xyz', 'w' )
f.write( "12  " )
f.write( str(ee) + "\n" )
f.write( MOL.save_string_xyz() )
f.close()
--------------------------------------------------------------------------

    Molecular point group: c1
  Charge       = 0
  Multiplicity = 1
  Basis Set: 6-31G*
  Basis Set:
  @DF-RHF Final Energy:  -193.11227493332942
    Total Energy =                       -193.1122749333294450
    Molecular point group: c1
  Basis Set: 6-31G*
  Basis Set:
  Basis Set: 6-31G*
  Basis Set:
  @DF-RHF Final Energy:  -193.11411073051602
    Total Energy =                       -193.1141107305160460
  Basis Set: 6-31G*
  Basis Set:
  Basis Set: 6-31G*
  Basis Set:
  @DF-RHF Final Energy:  -193.11454308495453
    Total Energy =                       -193.1145430849545335
  Basis Set: 6-31G*
  Basis Set:
  Basis Set: 6-31G*
  Basis Set:
  @DF-RHF Final Energy:  -193.11454700121141
    Total Energy =                       -193.1145470012114060
  Basis Set: 6-31G*
  Basis Set:
  Charge       = 0
  Multiplicity = 1
  Basis Set: 6-31G*
  Basis Set:

    Orbital Energies (a.u.)
    -----------------------

    Doubly Occupied:

       1A    -20.550755     2A    -11.275476     3A    -11.216176
       4A    -11.209779     5A     -1.360181     6A     -1.041789
       7A     -0.941899     8A     -0.818155     9A     -0.661067
      10A     -0.644398    11A     -0.602746    12A     -0.573098
      13A     -0.545806    14A     -0.515870    15A     -0.510991
      16A     -0.465358    17A     -0.430096

  @DF-RHF Final Energy:  -193.11454727909694

   => Energetics <=

    Nuclear Repulsion Energy =            135.3304046431298389
    One-Electron Energy =                -530.1626222026135338
    Two-Electron Energy =                 201.7176702803866419
    DFT Exchange-Correlation Energy =       0.0000000000000000
    Empirical Dispersion Energy =           0.0000000000000000
    PCM Polarization Energy =               0.0000000000000000
    EFP Energy =                            0.0000000000000000
    Total Energy =                       -193.1145472790970530
    Molecular point group: c1
  Basis Set: 6-31G*
  Basis Set:

  -Total Gradient:
     Atom            X                  Y                   Z
    ------   -----------------  -----------------  -----------------
       1       -0.001473552050     0.000254849524     0.000457160639
       2        0.001983745357    -0.000222164727    -0.000233829022
       3       -0.000981012640    -0.000256281792    -0.001094590624
       4        0.000467670268     0.000254079444     0.000841337400
       5       -0.000017196720     0.000016233087    -0.000006335710
       6       -0.000007828115    -0.000029453290     0.000003826515
       7       -0.000012515307     0.000005097750     0.000013839037
       8        0.000012687936    -0.000004819297    -0.000011086208
       9        0.000012526973    -0.000008492062     0.000003161160
      10        0.000012858362     0.000012579857     0.000025435415
      11        0.000006267222    -0.000004254467    -0.000010496187
      12       -0.000003651283    -0.000017374025     0.000011577586

  **** Optimization is complete! (in 5 steps) ****
    Final optimized geometry and variables:
    Molecular point group: c1

    Geometry (in Angstrom), charge = 0, multiplicity = 1:

    H           -0.150703448238     1.370813196820    -1.015009891459
    O            0.113591227051     1.329461929589    -0.105850942890
    C            0.005629656727     0.001665038467     0.355007145737
    C            1.209946290155    -0.820778204349    -0.089295696912
    C           -1.320742333802    -0.620941233155    -0.064685601440
    H            0.023589065916     0.083879711398     1.435483142714
    H            1.232620250208    -0.918516404754    -1.172241858652
    H            2.127578898285    -0.336304003853     0.223835741680
    H            1.183151106338    -1.819454099995     0.336564650629
    H           -1.378337911071    -0.715003518146    -1.147608511362
    H           -2.149448894254    -0.005081700848     0.267231683213
    H           -1.439026119257    -1.613377745427     0.358095995222

  Mulliken Charges: (a.u.)
   Center  Symbol    Alpha    Beta     Spin     Total
       1     H     0.28440  0.28440  0.00000  0.43119
       2     O     4.37244  4.37244  0.00000 -0.74488
       3     C     2.91512  2.91512  0.00000  0.16976
       4     C     3.24272  3.24272  0.00000 -0.48543
       5     C     3.25409  3.25409  0.00000 -0.50819
       6     H     0.41640  0.41640  0.00000  0.16720
       7     H     0.42673  0.42673  0.00000  0.14653
       8     H     0.41043  0.41043  0.00000  0.17913
       9     H     0.42292  0.42292  0.00000  0.15416
      10     H     0.42667  0.42667  0.00000  0.14665
      11     H     0.41042  0.41042  0.00000  0.17915
      12     H     0.41764  0.41764  0.00000  0.16472

   Total alpha = 17.00000, Total beta = 17.00000, Total charge =  0.00000
