                              Psi4 1.0.54 Driver

  ==> Input File <==

--------------------------------------------------------------------------
set {
	reference rhf
	basis cc-pvtz
}

set_num_threads( 4 )
memory 2 gb

molecule MOL {
0 1

O	 -1.510770	 1.240811	 -0.054933
C	 -1.081510	 0.147522	 0.122720
C	 0.327029	 -0.064006	 0.641890
C	 -1.903028	 -1.084121	 -0.174656
C	 1.349460	 -0.017068	 -0.500215
H	 0.399029	 -1.014606	 1.159950
H	 0.538021	 0.726928	 1.350471
C	 2.589331	 -0.853743	 -0.206207
H	 0.888691	 -0.367235	 -1.419407
H	 1.633386	 1.015139	 -0.668328
H	 3.299220	 -0.794211	 -1.022628
H	 2.334269	 -1.898461	 -0.063875
H	 3.087666	 -0.508691	 0.692944
H	 -1.341891	 -1.779207	 -0.789259
H	 -2.820449	 -0.808163	 -0.671328
H	 -2.133314	 -1.593056	 0.755831

	symmetry c1
}
set optking {
	frozen_dihedral = ("
		9 5 3 2
	")
}

ee,wfn = optimize('scf', return_wfn=True)
oeprop( wfn, 'DIPOLE', 'QUADRUPOLE', 'MULLIKEN_CHARGES')
f=open( 'psi4out.xyz', 'w' )
f.write( "16  " )
f.write( str(ee) + "\n" )
f.write( MOL.save_string_xyz() )
f.close()
--------------------------------------------------------------------------

    Molecular point group: c1
  Charge       = 0
  Multiplicity = 1
  Basis Set: CC-PVTZ
  Basis Set:
  @DF-RHF Final Energy:  -270.12668429989196
    Total Energy =                       -270.1266842998918492
    Molecular point group: c1
  Basis Set: CC-PVTZ
  Basis Set:
  Basis Set: CC-PVTZ
  Basis Set:
  @DF-RHF Final Energy:  -270.12689211459190
    Total Energy =                       -270.1268921145921240
  Basis Set: CC-PVTZ
  Basis Set:
  Basis Set: CC-PVTZ
  Basis Set:
  @DF-RHF Final Energy:  -270.12511350519850
    Total Energy =                       -270.1251135051983283
  Basis Set: CC-PVTZ
  Basis Set:
  Basis Set: CC-PVTZ
  Basis Set:
  @DF-RHF Final Energy:  -270.12704037403813
    Total Energy =                       -270.1270403740378470
  Basis Set: CC-PVTZ
  Basis Set:
  Basis Set: CC-PVTZ
  Basis Set:
  @DF-RHF Final Energy:  -270.12707907124627
    Total Energy =                       -270.1270790712464418
  Basis Set: CC-PVTZ
  Basis Set:
  Basis Set: CC-PVTZ
  Basis Set:
  @DF-RHF Final Energy:  -270.12708512451093
    Total Energy =                       -270.1270851245107565
  Basis Set: CC-PVTZ
  Basis Set:
  Basis Set: CC-PVTZ
  Basis Set:
  @DF-RHF Final Energy:  -270.12708866172375
    Total Energy =                       -270.1270886617236329
  Basis Set: CC-PVTZ
  Basis Set:
  Charge       = 0
  Multiplicity = 1
  Basis Set: CC-PVTZ
  Basis Set:

    Orbital Energies (a.u.)
    -----------------------

    Doubly Occupied:

       1A    -20.537077     2A    -11.319666     3A    -11.232919
       4A    -11.228623     5A    -11.227282     6A    -11.219504
       7A     -1.397001     8A     -1.084288     9A     -1.013765
      10A     -0.951691    11A     -0.831941    12A     -0.736984
      13A     -0.657544    14A     -0.653795    15A     -0.614931
      16A     -0.605520    17A     -0.581320    18A     -0.561478
      19A     -0.535724    20A     -0.522070    21A     -0.506364
      22A     -0.483185    23A     -0.475713    24A     -0.400265

  @DF-RHF Final Energy:  -270.12708921945239

   => Energetics <=

    Nuclear Repulsion Energy =            237.7863055796986771
    One-Electron Energy =                -837.0694947820268226
    Two-Electron Energy =                 329.1560999828756167
    DFT Exchange-Correlation Energy =       0.0000000000000000
    Empirical Dispersion Energy =           0.0000000000000000
    PCM Polarization Energy =               0.0000000000000000
    EFP Energy =                            0.0000000000000000
    Total Energy =                       -270.1270892194525004
    Molecular point group: c1
  Basis Set: CC-PVTZ
  Basis Set:

  -Total Gradient:
     Atom            X                  Y                   Z
    ------   -----------------  -----------------  -----------------
       1        0.000026374306    -0.000036945207    -0.000002222991
       2       -0.000381703519    -0.002805894710    -0.000310806368
       3        0.000172057549     0.004806613525     0.000219527845
       4        0.000010044173    -0.000023554166     0.000023280630
       5        0.001273486922    -0.005731880559     0.001032804148
       6       -0.000009832317     0.000003558632     0.000000737188
       7        0.000003452675     0.000003717480    -0.000014512980
       8       -0.000007754419     0.000010601115    -0.000012828947
       9       -0.001089869503     0.003778899801    -0.000928114299
      10        0.000007984926    -0.000000161120     0.000009495792
      11       -0.000007284958     0.000001053896     0.000009754038
      12        0.000001642734     0.000006927941    -0.000000631284
      13       -0.000002483030    -0.000009153755    -0.000006509251
      14       -0.000005269854     0.000001757534    -0.000003655854
      15        0.000005762693    -0.000006970504    -0.000002236169
      16        0.000003391621     0.000001430102    -0.000014081496

  **** Optimization is complete! (in 8 steps) ****
    Final optimized geometry and variables:
    Molecular point group: c1

    Geometry (in Angstrom), charge = 0, multiplicity = 1:

    O           -1.524585321074     1.355744002003     0.087381352644
    C           -1.052305354147     0.268351750910     0.163345630271
    C            0.354457683656     0.049562513097     0.678980188907
    C           -1.824853188947    -0.959368756036    -0.260573969758
    C            1.378436266064     0.062184525371    -0.472158974670
    H            0.397139532690    -0.906903507734     1.190622741260
    H            0.584135536905     0.825872712658     1.395506607776
    C            2.639695013302    -0.732803818608    -0.161549027820
    H            0.919087956408    -0.298063205162    -1.387466363389
    H            1.639300167470     1.093767883245    -0.679273519031
    H            3.356545138312    -0.656459980568    -0.970424159426
    H            2.415063480394    -1.783537037207    -0.013272017692
    H            3.117495086122    -0.366562303202     0.740742493756
    H           -1.216056052820    -1.614242790719    -0.872696439860
    H           -2.714767109130    -0.669456883099    -0.797765823698
    H           -2.107502145070    -1.518418257654     0.625854016425

  Mulliken Charges: (a.u.)
   Center  Symbol    Alpha    Beta     Spin     Total
       1     O     4.17627  4.17627  0.00000 -0.35254
       2     C     2.85788  2.85788  0.00000  0.28425
       3     C     3.09795  3.09795  0.00000 -0.19590
       4     C     3.15618  3.15618  0.00000 -0.31236
       5     C     3.09158  3.09158  0.00000 -0.18316
       6     H     0.45244  0.45244  0.00000  0.09512
       7     H     0.43771  0.43771  0.00000  0.12458
       8     C     3.14888  3.14888  0.00000 -0.29777
       9     H     0.45106  0.45106  0.00000  0.09788
      10     H     0.44218  0.44218  0.00000  0.11563
      11     H     0.44634  0.44634  0.00000  0.10731
      12     H     0.45552  0.45552  0.00000  0.08896
      13     H     0.45180  0.45180  0.00000  0.09639
      14     H     0.45080  0.45080  0.00000  0.09840
      15     H     0.43577  0.43577  0.00000  0.12845
      16     H     0.44763  0.44763  0.00000  0.10474

   Total alpha = 24.00000, Total beta = 24.00000, Total charge =  0.00000

*** Psi4 exiting successfully. Buy a developer a beer!
