  ==> Input File <==

--------------------------------------------------------------------------
set {
	reference rhf
	basis 6-31G*
}

set_num_threads( 4 )
memory 2 gb

molecule MOL {
0 1

H	 -4.216149	 0.348763	 0.526648
O	 -3.497197	 -0.212282	 0.273190
C	 -2.306886	 0.532354	 0.237577
C	 -1.177863	 -0.397191	 -0.171080
H	 -2.389762	 1.353410	 -0.473272
H	 -2.097237	 0.966584	 1.214220
C	 0.198102	 0.111031	 0.262842
H	 -1.208843	 -0.518759	 -1.250427
H	 -1.368741	 -1.376554	 0.258909
C	 1.331804	 -0.827780	 -0.158768
H	 0.361943	 1.100838	 -0.156218
H	 0.217265	 0.229072	 1.345532
C	 2.723619	 -0.410569	 0.329459
H	 1.342964	 -0.912588	 -1.244120
H	 1.116806	 -1.824343	 0.220779
C	 3.243875	 0.895854	 -0.272975
H	 3.424222	 -1.207124	 0.091250
H	 2.714788	 -0.329854	 1.414619
H	 3.251977	 0.848779	 -1.358681
H	 2.637085	 1.747371	 0.016682
H	 4.259473	 1.094070	 0.055697

	symmetry c1
}
set optking {
	frozen_dihedral = ("
		2 3 4 8
	")
}

ee = optimize('scf')
oeprop('DIPOLE', 'QUADRUPOLE', 'MULLIKEN_CHARGES')
f=open( 'psi4out.xyz', 'w' )
f.write( "21  " )
f.write( str(ee) + "\n" )
f.write( MOL.save_string_xyz() )
f.close()
--------------------------------------------------------------------------

    Molecular point group: c1
  Charge       = 0
  Multiplicity = 1
  Basis Set: 6-31G*
  Basis Set:
  @DF-RHF Final Energy:  -310.21096770584006
    Total Energy =                       -310.2109677058400052
    Molecular point group: c1
  Basis Set: 6-31G*
  Basis Set:
  Basis Set: 6-31G*
  Basis Set:
  @DF-RHF Final Energy:  -310.21115152701731
    Total Energy =                       -310.2111515270177620
  Basis Set: 6-31G*
  Basis Set:
  Basis Set: 6-31G*
  Basis Set:
  @DF-RHF Final Energy:  -310.21120269409869
    Total Energy =                       -310.2112026940984606
  Basis Set: 6-31G*
  Basis Set:
  Charge       = 0
  Multiplicity = 1
  Basis Set: 6-31G*
  Basis Set:

    Orbital Energies (a.u.)
    -----------------------

    Doubly Occupied:

       1A    -20.551657     2A    -11.267163     3A    -11.215274
       4A    -11.214995     5A    -11.213323     6A    -11.210824
       7A    -11.208213     8A     -1.358220     9A     -1.085956
      10A     -1.032751    11A     -0.953839    12A     -0.875469
      13A     -0.807378    14A     -0.778720    15A     -0.695225
      16A     -0.656194    17A     -0.625325    18A     -0.604485
      19A     -0.585128    20A     -0.572265    21A     -0.535337
      22A     -0.520989    23A     -0.509922    24A     -0.485449
      25A     -0.481719    26A     -0.460780    27A     -0.455380
      28A     -0.443018    29A     -0.432112

  @DF-RHF Final Energy:  -310.21120367095165

   => Energetics <=

    Nuclear Repulsion Energy =            312.4635311371987996
    One-Electron Energy =               -1039.6752504751320885
    Two-Electron Energy =                 417.0005156669820963
    DFT Exchange-Correlation Energy =       0.0000000000000000
    Empirical Dispersion Energy =           0.0000000000000000
    PCM Polarization Energy =               0.0000000000000000
    EFP Energy =                            0.0000000000000000
    Total Energy =                       -310.2112036709512495
    Molecular point group: c1
  Basis Set: 6-31G*
  Basis Set:

  -Total Gradient:
     Atom            X                  Y                   Z
    ------   -----------------  -----------------  -----------------
       1       -0.000020663311     0.000006597665     0.000004413331
       2        0.000464584882    -0.000597937708     0.002939599725
       3       -0.000005925456     0.001546979808    -0.003947871859
       4       -0.002953194138    -0.004057143928     0.001322368924
       5       -0.000043025227     0.000000811857     0.000009426058
       6        0.000021297112    -0.000013660144     0.000011837742
       7       -0.000031707078    -0.000033735081     0.000095888894
       8        0.002488446627     0.003092069629    -0.000448800887
       9        0.000037664525     0.000054908206     0.000022578145
      10        0.000040979410    -0.000000029515    -0.000017664932
      11        0.000025943831     0.000009009140     0.000004872134
      12       -0.000014877989     0.000030740109     0.000035233936
      13        0.000006412323    -0.000003940415    -0.000042649139
      14       -0.000010102119    -0.000037303856    -0.000005057233
      15        0.000024750738     0.000007277991     0.000020003841
      16       -0.000004337776    -0.000010996863     0.000000941719
      17        0.000019011850     0.000007917755    -0.000001285501
      18       -0.000019325588    -0.000005604416    -0.000011207326
      19       -0.000009086656     0.000000535635     0.000001707921
      20       -0.000021395033     0.000003079151     0.000010585693
      21        0.000004549077     0.000000424980    -0.000004921186

  **** Optimization is complete! (in 4 steps) ****
    Final optimized geometry and variables:
    Molecular point group: c1

    Geometry (in Angstrom), charge = 0, multiplicity = 1:

    H           -4.227299678527     0.441486802384     0.362480407600
    O           -3.511001816490    -0.151498242283     0.185340818274
    C           -2.301839526483     0.563763574442     0.157684872362
    C           -1.181239883351    -0.396412829725    -0.217584845388
    H           -2.350762598642     1.385266717237    -0.554630461474
    H           -2.104294571224     0.995702574316     1.138068304203
    C            0.197588779422     0.119717033593     0.203923661953
    H           -1.183448545790    -0.544074180633    -1.294286055307
    H           -1.382837954079    -1.354808852536     0.249131451427
    C            1.334107054457    -0.804398125681    -0.241117283314
    H            0.348130903252     1.115501834919    -0.207520976805
    H            0.227056059036     0.228216254786     1.286982239260
    C            2.727776735157    -0.381710564429     0.236963249146
    H            1.334801150964    -0.876914942182    -1.327513419775
    H            1.130971181924    -1.807091102442     0.129033497554
    C            3.228050941642     0.938990078794    -0.351074264374
    H            3.433066675700    -1.167613690561    -0.021908518767
    H            2.731085937422    -0.317841547506     1.323217864234
    H            3.221564874756     0.909684875739    -1.437450476407
    H            2.617605277528     1.779981353961    -0.039153639945
    H            4.246278104450     1.141223059679    -0.033166396446

  Mulliken Charges: (a.u.)
   Center  Symbol    Alpha    Beta     Spin     Total
       1     H     0.28152  0.28152  0.00000  0.43696
       2     O     4.37173  4.37173  0.00000 -0.74346
       3     C     2.99065  2.99065  0.00000  0.01870
       4     C     3.16001  3.16001  0.00000 -0.32003
       5     H     0.43173  0.43173  0.00000  0.13655
       6     H     0.43241  0.43241  0.00000  0.13518
       7     C     3.16250  3.16250  0.00000 -0.32500
       8     H     0.41809  0.41809  0.00000  0.16382
       9     H     0.40970  0.40970  0.00000  0.18061
      10     C     3.15210  3.15210  0.00000 -0.30420
      11     H     0.42279  0.42279  0.00000  0.15443
      12     H     0.42274  0.42274  0.00000  0.15453
      13     C     3.15243  3.15243  0.00000 -0.30487
      14     H     0.42368  0.42368  0.00000  0.15264
      15     H     0.42070  0.42070  0.00000  0.15860
      16     C     3.24119  3.24119  0.00000 -0.48238
      17     H     0.42068  0.42068  0.00000  0.15864
      18     H     0.42330  0.42330  0.00000  0.15340
      19     H     0.42223  0.42223  0.00000  0.15553
      20     H     0.42063  0.42063  0.00000  0.15874
      21     H     0.41920  0.41920  0.00000  0.16160

   Total alpha = 29.00000, Total beta = 29.00000, Total charge = -0.00000
