  ==> Input File <==

--------------------------------------------------------------------------
set {
	reference rhf
	basis cc-pvtz
}

set_num_threads( 4 )
memory 2 gb

molecule MOL {
0 1

H	 -2.469190	 -1.731311	 -1.157272
N	 -1.557891	 -1.680955	 -0.754694
C	 -1.428520	 -0.513372	 0.097454
H	 -0.899539	 -1.632250	 -1.503156
C	 -0.041058	 -0.442972	 0.692971
H	 -1.628583	 0.424489	 -0.419203
H	 -2.142145	 -0.595734	 0.909863
O	 0.881195	 -0.248324	 -0.336237
H	 0.014161	 0.379193	 1.405128
H	 0.176782	 -1.367759	 1.222352
C	 2.208068	 -0.234417	 0.074171
H	 2.725499	 -1.027054	 -0.446768
H	 2.688377	 0.712084	 -0.164856
H	 2.295137	 -0.403407	 1.144883

	symmetry c1
}
set optking {
	frozen_dihedral = ("
		5 8 11 13
	")
}

ee = optimize('scf')
oeprop('DIPOLE', 'QUADRUPOLE', 'MULLIKEN_CHARGES')
f=open( 'psi4out.xyz', 'w' )
f.write( "14  " )
f.write( str(ee) + "\n" )
f.write( MOL.save_string_xyz() )
f.close()
--------------------------------------------------------------------------

    Molecular point group: c1
  Charge       = 0
  Multiplicity = 1
  Basis Set: CC-PVTZ
  Basis Set:
  @DF-RHF Final Energy:  -248.22212207275041
    Total Energy =                       -248.2221220727501532
    Molecular point group: c1
  Basis Set: CC-PVTZ
  Basis Set:
  Basis Set: CC-PVTZ
  Basis Set:
  @DF-RHF Final Energy:  -248.22250324828602
    Total Energy =                       -248.2225032482861025
  Basis Set: CC-PVTZ
  Basis Set:
  Basis Set: CC-PVTZ
  Basis Set:
  @DF-RHF Final Energy:  -248.22258553473591
    Total Energy =                       -248.2225855347357992
  Basis Set: CC-PVTZ
  Basis Set:
  Charge       = 0
  Multiplicity = 1
  Basis Set: CC-PVTZ
  Basis Set:

    Orbital Energies (a.u.)
    -----------------------

    Doubly Occupied:

       1A    -20.547169     2A    -15.523060     3A    -11.264443
       4A    -11.263225     5A    -11.239342     6A     -1.379627
       7A     -1.175485     8A     -1.000390     9A     -0.907913
      10A     -0.815301    11A     -0.683838    12A     -0.673430
      13A     -0.644913    14A     -0.611405    15A     -0.607637
      16A     -0.540172    17A     -0.536353    18A     -0.497248
      19A     -0.473407    20A     -0.414581    21A     -0.383453

  @DF-RHF Final Energy:  -248.22258613892231

   => Energetics <=

    Nuclear Repulsion Energy =            194.4058552746696762
    One-Electron Energy =                -722.8921053562673933
    Two-Electron Energy =                 280.2636639426754073
    DFT Exchange-Correlation Energy =       0.0000000000000000
    Empirical Dispersion Energy =           0.0000000000000000
    PCM Polarization Energy =               0.0000000000000000
    EFP Energy =                            0.0000000000000000
    Total Energy =                       -248.2225861389223383
    Molecular point group: c1
  Basis Set: CC-PVTZ
  Basis Set:

  -Total Gradient:
     Atom            X                  Y                   Z
    ------   -----------------  -----------------  -----------------
       1        0.000008099662     0.000004082882    -0.000002406973
       2        0.000005177592     0.000017017918    -0.000008679205
       3       -0.000046341842    -0.000062728949     0.000080471306
       4       -0.000001916100     0.000003524101    -0.000011363969
       5       -0.000076613926     0.000081482289    -0.000032571228
       6        0.000041646268    -0.000030862788     0.000016139672
       7       -0.000056152555    -0.000002746494     0.000005054645
       8        0.000152876375     0.000001874089    -0.000001958028
       9        0.000002511096    -0.000015604117     0.000016556521
      10        0.000000293359     0.000017504079    -0.000043781128
      11       -0.000054941851     0.000000264214     0.000025158041
      12        0.000005769864    -0.000003442583    -0.000000762912
      13        0.000017019536    -0.000011822351    -0.000044250767
      14        0.000002572522     0.000001457711     0.000002394023

  **** Optimization is complete! (in 4 steps) ****
    Final optimized geometry and variables:
    Molecular point group: c1

    Geometry (in Angstrom), charge = 0, multiplicity = 1:

    H           -2.488235967144    -1.094268448672    -1.115329145581
    N           -1.581106025221    -1.047065609404    -0.703116749926
    C           -1.458440682272     0.117275490668     0.154343434540
    H           -0.915096850687    -0.996133079597    -1.444584002311
    C           -0.077382991079     0.182971773899     0.765035876185
    H           -1.650513301358     1.057183970874    -0.361552018738
    H           -2.180958455359     0.034268070443     0.958983500719
    O            0.854101141261     0.372625708961    -0.258656493907
    H           -0.029526256372     1.005383081257     1.476683584093
    H            0.128654239360    -0.742545168421     1.296346141874
    C            2.195856794163     0.387757804826     0.122538385805
    H            2.733018142170    -0.400939789279    -0.391600174908
    H            2.642107704820     1.339934682257    -0.141014636222
    H            2.314885457567     0.239614108315     1.190547899670

  Mulliken Charges: (a.u.)
   Center  Symbol    Alpha    Beta     Spin     Total
       1     H     0.43036  0.43036  0.00000  0.13928
       2     N     3.69428  3.69428  0.00000 -0.38856
       3     C     3.02434  3.02434  0.00000 -0.04867
       4     H     0.42216  0.42216  0.00000  0.15568
       5     C     2.96753  2.96753  0.00000  0.06494
       6     H     0.46489  0.46489  0.00000  0.07021
       7     H     0.45875  0.45875  0.00000  0.08251
       8     O     4.18478  4.18478  0.00000 -0.36956
       9     H     0.46985  0.46985  0.00000  0.06030
      10     H     0.46884  0.46884  0.00000  0.06233
      11     C     3.02698  3.02698  0.00000 -0.05395
      12     H     0.45715  0.45715  0.00000  0.08571
      13     H     0.45857  0.45857  0.00000  0.08286
      14     H     0.47153  0.47153  0.00000  0.05693

   Total alpha = 21.00000, Total beta = 21.00000, Total charge =  0.00000
