  ==> Input File <==

--------------------------------------------------------------------------
set {
	reference rhf
	basis 6-31G*
}

set_num_threads( 4 )
memory 2 gb

molecule MOL {
0 1

H	 -0.870250	 -1.043010	 -0.804926
O	 -1.422729	 -0.573567	 -0.196946
C	 -0.731407	 0.539437	 0.309156
C	 0.680193	 0.672443	 -0.251532
H	 -1.319765	 1.404033	 0.030086
H	 -0.700012	 0.506517	 1.397677
C	 1.599139	 -0.492137	 0.118598
H	 0.616402	 0.758534	 -1.332349
H	 1.107032	 1.602637	 0.117369
H	 1.239738	 -1.428634	 -0.297334
H	 2.601428	 -0.335055	 -0.265730
H	 1.674954	 -0.608418	 1.197020

	symmetry c1
}
set optking {
	frozen_dihedral = ("
		1 2 3 4
	")
}

ee = optimize('scf')
oeprop('DIPOLE', 'QUADRUPOLE', 'MULLIKEN_CHARGES')
f=open( 'psi4out.xyz', 'w' )
f.write( "12  " )
f.write( str(ee) + "\n" )
f.write( MOL.save_string_xyz() )
f.close()
--------------------------------------------------------------------------

    Molecular point group: c1
  Charge       = 0
  Multiplicity = 1
  Basis Set: 6-31G*
  Basis Set:
  @DF-RHF Final Energy:  -193.10634255642663
    Total Energy =                       -193.1063425564266822
    Molecular point group: c1
  Basis Set: 6-31G*
  Basis Set:
  Basis Set: 6-31G*
  Basis Set:
  @DF-RHF Final Energy:  -193.10679856963392
    Total Energy =                       -193.1067985696338383
  Basis Set: 6-31G*
  Basis Set:
  Basis Set: 6-31G*
  Basis Set:
  @DF-RHF Final Energy:  -193.10696544242347
    Total Energy =                       -193.1069654424234159
  Basis Set: 6-31G*
  Basis Set:
  Basis Set: 6-31G*
  Basis Set:
  @DF-RHF Final Energy:  -193.10696158371132
    Total Energy =                       -193.1069615837112110
  Basis Set: 6-31G*
  Basis Set:
  Basis Set: 6-31G*
  Basis Set:
  @DF-RHF Final Energy:  -193.10697547102836
    Total Energy =                       -193.1069754710284201
  Basis Set: 6-31G*
  Basis Set:
  Charge       = 0
  Multiplicity = 1
  Basis Set: 6-31G*
  Basis Set:

    Orbital Energies (a.u.)
    -----------------------

    Doubly Occupied:

       1A    -20.549470     2A    -11.267298     3A    -11.228292
       4A    -11.221403     5A     -1.356981     6A     -1.055833
       7A     -0.928824     8A     -0.820192     9A     -0.667177
      10A     -0.644800    11A     -0.631618    12A     -0.577185
      13A     -0.549425    14A     -0.511883    15A     -0.494654
      16A     -0.464896    17A     -0.430836

  @DF-RHF Final Energy:  -193.10697600422236

   => Energetics <=

    Nuclear Repulsion Energy =            133.0697096165495168
    One-Electron Energy =                -525.5518368149856769
    Two-Electron Energy =                 199.3751511942138563
    DFT Exchange-Correlation Energy =       0.0000000000000000
    Empirical Dispersion Energy =           0.0000000000000000
    PCM Polarization Energy =               0.0000000000000000
    EFP Energy =                            0.0000000000000000
    Total Energy =                       -193.1069760042223038
    Molecular point group: c1
  Basis Set: 6-31G*
  Basis Set:

  -Total Gradient:
     Atom            X                  Y                   Z
    ------   -----------------  -----------------  -----------------
       1        0.000219115030    -0.000369683454     0.000466059139
       2       -0.000324686474     0.000529334820    -0.000712330543
       3        0.000226513651    -0.000391215809     0.000503296699
       4       -0.000138396070     0.000220853477    -0.000296905297
       5        0.000004922913     0.000006071220     0.000010905087
       6        0.000015481181     0.000004545998     0.000000906446
       7        0.000004610439    -0.000003215120    -0.000003190958
       8       -0.000009191807    -0.000001951698     0.000011721193
       9        0.000002129243     0.000010478070     0.000011787670
      10        0.000001415127     0.000000792226    -0.000009706998
      11       -0.000018678039    -0.000009408885     0.000000581331
      12        0.000016764807     0.000003399154     0.000016876232

  **** Optimization is complete! (in 6 steps) ****
    Final optimized geometry and variables:
    Molecular point group: c1

    Geometry (in Angstrom), charge = 0, multiplicity = 1:

    H           -0.909422646721    -1.052150149174    -0.810008257480
    O           -1.442188359052    -0.572701155378    -0.194016641336
    C           -0.733024053096     0.528199258170     0.320920076109
    C            0.680349495838     0.661816454806    -0.234373151584
    H           -1.296930015340     1.427575849197     0.094340975726
    H           -0.694681845696     0.431934782419     1.402268155372
    C            1.607780900400    -0.492899795722     0.150784170906
    H            0.626472221235     0.751996869214    -1.317956697447
    H            1.100140732620     1.595745338930     0.129552687729
    H            1.244761242935    -1.449398185929    -0.213752571889
    H            2.600809866478    -0.345935545700    -0.260771143081
    H            1.701041460239    -0.571025823539     1.229651048873

  Mulliken Charges: (a.u.)
   Center  Symbol    Alpha    Beta     Spin     Total
       1     H     0.27867  0.27867  0.00000  0.44266
       2     O     4.37829  4.37829  0.00000 -0.75657
       3     C     2.97518  2.97518  0.00000  0.04964
       4     C     3.18763  3.18763  0.00000 -0.37526
       5     H     0.42303  0.42303  0.00000  0.15393
       6     H     0.42603  0.42603  0.00000  0.14795
       7     C     3.24140  3.24140  0.00000 -0.48280
       8     H     0.41915  0.41915  0.00000  0.16170
       9     H     0.41552  0.41552  0.00000  0.16896
      10     H     0.42411  0.42411  0.00000  0.15178
      11     H     0.41501  0.41501  0.00000  0.16999
      12     H     0.41599  0.41599  0.00000  0.16801

   Total alpha = 17.00000, Total beta = 17.00000, Total charge =  0.00000
