                              Psi4 1.0.54 Driver

  ==> Input File <==

--------------------------------------------------------------------------
set {
	reference rhf
	basis cc-pvtz
}

set_num_threads( 4 )
memory 2 gb

molecule MOL {
0 1

H	 -2.816458	 -0.841657	 -0.064679
N	 -1.878861	 -0.711874	 0.250184
C	 -1.341419	 0.551458	 -0.220231
H	 -1.333674	 -1.468530	 -0.105118
C	 0.082190	 0.731516	 0.254705
H	 -1.357065	 0.652078	 -1.304747
H	 -1.939897	 1.357530	 0.189797
O	 0.066115	 1.059475	 1.611131
H	 0.642921	 -0.189104	 0.099105
H	 0.560919	 1.523085	 -0.317279
C	 1.317038	 1.319855	 2.155753
H	 1.181684	 1.556827	 3.201176
H	 1.973285	 0.455771	 2.075788
H	 1.797198	 2.162879	 1.664509

	symmetry c1
}
set optking {
	frozen_dihedral = ("
		8 5 3 6
	")
}

ee,wfn = optimize('scf', return_wfn=True)
oeprop( wfn, 'DIPOLE', 'QUADRUPOLE', 'MULLIKEN_CHARGES')
f=open( 'psi4out.xyz', 'w' )
f.write( "14  " )
f.write( str(ee) + "\n" )
f.write( MOL.save_string_xyz() )
f.close()
--------------------------------------------------------------------------

    Molecular point group: c1
  Charge       = 0
  Multiplicity = 1
  Basis Set: CC-PVTZ
  Basis Set:
  @DF-RHF Final Energy:  -248.22077567097497
    Total Energy =                       -248.2207756709749447
    Molecular point group: c1
  Basis Set: CC-PVTZ
  Basis Set:
  Basis Set: CC-PVTZ
  Basis Set:
  @DF-RHF Final Energy:  -248.22126681516852
    Total Energy =                       -248.2212668151685193
  Basis Set: CC-PVTZ
  Basis Set:
  Basis Set: CC-PVTZ
  Basis Set:
  @DF-RHF Final Energy:  -248.22138267538176
    Total Energy =                       -248.2213826753817330
  Basis Set: CC-PVTZ
  Basis Set:
  Basis Set: CC-PVTZ
  Basis Set:
  @DF-RHF Final Energy:  -248.22141273019434
    Total Energy =                       -248.2214127301941744
  Basis Set: CC-PVTZ
  Basis Set:
  Basis Set: CC-PVTZ
  Basis Set:
  @DF-RHF Final Energy:  -248.22142153276818
    Total Energy =                       -248.2214215327682609
  Basis Set: CC-PVTZ
  Basis Set:
  Charge       = 0
  Multiplicity = 1
  Basis Set: CC-PVTZ
  Basis Set:

    Orbital Energies (a.u.)
    -----------------------

    Doubly Occupied:

       1A    -20.543743     2A    -15.526724     3A    -11.264068
       4A    -11.258988     5A    -11.241357     6A     -1.379870
       7A     -1.178044     8A     -0.999625     9A     -0.902998
      10A     -0.819086    11A     -0.682985    12A     -0.668713
      13A     -0.647909    14A     -0.619992    15A     -0.598835
      16A     -0.548257    17A     -0.521648    18A     -0.502649
      19A     -0.465746    20A     -0.415160    21A     -0.384361

  @DF-RHF Final Energy:  -248.22142219016678

   => Energetics <=

    Nuclear Repulsion Energy =            193.3034551596354049
    One-Electron Energy =                -720.7082425653431983
    Two-Electron Energy =                 279.1833652155409027
    DFT Exchange-Correlation Energy =       0.0000000000000000
    Empirical Dispersion Energy =           0.0000000000000000
    PCM Polarization Energy =               0.0000000000000000
    EFP Energy =                            0.0000000000000000
    Total Energy =                       -248.2214221901668907
    Molecular point group: c1
  Basis Set: CC-PVTZ
  Basis Set:

  -Total Gradient:
     Atom            X                  Y                   Z
    ------   -----------------  -----------------  -----------------
       1        0.000005286810    -0.000009647746    -0.000006061843
       2       -0.000011100303     0.000021716646     0.000027539130
       3        0.000255276428    -0.000949698571    -0.000186875444
       4       -0.000004009619     0.000022032329    -0.000005555529
       5        0.000050102096    -0.000739804565     0.000374252561
       6       -0.000238388517     0.000954748856     0.000061631328
       7       -0.000010432434    -0.000018146923     0.000000831565
       8       -0.000051760493     0.000724809137    -0.000274779961
       9        0.000010354318    -0.000010699925    -0.000014621113
      10        0.000006084389    -0.000004828013    -0.000007863108
      11       -0.000013842108     0.000007160031     0.000035862106
      12        0.000014611829     0.000003802892     0.000011493258
      13       -0.000007408627     0.000003181108    -0.000009135664
      14       -0.000004773766    -0.000004625254    -0.000006717284

  **** Optimization is complete! (in 6 steps) ****
    Final optimized geometry and variables:
    Molecular point group: c1

    Geometry (in Angstrom), charge = 0, multiplicity = 1:

    H           -2.443292598443    -1.465746943065    -0.772032030697
    N           -1.468319961990    -1.366308570224    -0.588081855959
    C           -0.973329146101    -0.086001534961    -1.059447903468
    H           -1.000270860363    -2.123141979896    -1.040327092506
    C            0.423307240340     0.203831961536    -0.547418241599
    H           -0.958357478143    -0.001519622584    -2.146573369947
    H           -1.630321052854     0.691657431157    -0.690595465390
    O            0.375641023595     0.552236794087     0.796836150942
    H            1.059970120643    -0.669774669744    -0.692551837254
    H            0.855980357437     1.019328145069    -1.127208242147
    C            1.617283541265     0.751050645726     1.383018055948
    H            1.456133476601     1.027789618557     2.414821070948
    H            2.221580347681    -0.153248077960     1.354519345464
    H            2.170532450265     1.548609202848     0.889915797789

  Mulliken Charges: (a.u.)
   Center  Symbol    Alpha    Beta     Spin     Total
       1     H     0.42834  0.42834  0.00000  0.14332
       2     N     3.68629  3.68629  0.00000 -0.37259
       3     C     3.02485  3.02485  0.00000 -0.04971
       4     H     0.43254  0.43254  0.00000  0.13491
       5     C     2.95820  2.95820  0.00000  0.08360
       6     H     0.46878  0.46878  0.00000  0.06244
       7     H     0.45386  0.45386  0.00000  0.09227
       8     O     4.16794  4.16794  0.00000 -0.33589
       9     H     0.48045  0.48045  0.00000  0.03909
      10     H     0.47378  0.47378  0.00000  0.05244
      11     C     3.03192  3.03192  0.00000 -0.06383
      12     H     0.44682  0.44682  0.00000  0.10637
      13     H     0.47198  0.47198  0.00000  0.05603
      14     H     0.47423  0.47423  0.00000  0.05155

   Total alpha = 21.00000, Total beta = 21.00000, Total charge = -0.00000

*** Psi4 exiting successfully. Buy a developer a beer!
