  ==> Input File <==

--------------------------------------------------------------------------
set {
	reference rhf
	basis 6-31G*
}

set_num_threads( 1 )
memory 2 gb

molecule MOL {
0 1

O	 -2.042549	 -1.228399	 -0.269030
C	 -1.653912	 -0.146171	 0.050137
C	 -0.332303	 0.024011	 0.778412
C	 -2.438579	 1.106236	 -0.272369
C	 0.845713	 -0.001731	 -0.208243
H	 -0.323783	 0.953829	 1.340327
H	 -0.235459	 -0.796807	 1.480410
C	 1.050075	 -1.376883	 -0.845599
H	 1.759899	 0.296095	 0.302293
H	 0.665767	 0.739029	 -0.981570
C	 2.215280	 -1.403098	 -1.833940
H	 1.220552	 -2.115407	 -0.065250
H	 0.136543	 -1.674329	 -1.355063
H	 3.150198	 -1.142641	 -1.345943
H	 2.057505	 -0.697232	 -2.644065
H	 2.334602	 -2.388878	 -2.272150
H	 -3.277823	 0.863061	 -0.908988
H	 -1.806773	 1.843019	 -0.759671
H	 -2.802853	 1.554979	 0.648059

	symmetry c1
}
set optking {
	frozen_dihedral = ("
		11 8 5 9,
		5 3 2 4
	")
}

ee = energy('scf')
oeprop('DIPOLE', 'QUADRUPOLE', 'MULLIKEN_CHARGES')
f=open( 'psi4out.xyz', 'w' )
f.write( "19  " )
f.write( str(ee) + "\n" )
f.write( MOL.save_string_xyz() )
f.close()
--------------------------------------------------------------------------

    Molecular point group: c1

    Geometry (in Angstrom), charge = 0, multiplicity = 1:

       Center              X                  Y                   Z               Mass
    ------------   -----------------  -----------------  -----------------  -----------------
           O         -1.707504464973    -0.790736464623     0.119577774954    15.994914619560
           C         -1.318867464973     0.291491535377     0.438744774954    12.000000000000
           C          0.002741535027     0.461673535377     1.167019774954    12.000000000000
           C         -2.103534464973     1.543898535377     0.116238774954    12.000000000000
           C          1.180757535027     0.435931535377     0.180364774954    12.000000000000
           H          0.011261535027     1.391491535377     1.728934774954     1.007825032070
           H          0.099585535027    -0.359144464623     1.869017774954     1.007825032070
           C          1.385119535027    -0.939220464623    -0.456991225046    12.000000000000
           H          2.094943535027     0.733757535377     0.690900774954     1.007825032070
           H          1.000811535027     1.176691535377    -0.592962225046     1.007825032070
           C          2.550324535027    -0.965435464623    -1.445332225046    12.000000000000
           H          1.555596535027    -1.677744464623     0.323357774954     1.007825032070
           H          0.471587535027    -1.236666464623    -0.966455225046     1.007825032070
           H          3.485242535027    -0.704978464623    -0.957335225046     1.007825032070
           H          2.392549535027    -0.259569464623    -2.255457225046     1.007825032070
           H          2.669646535027    -1.951215464623    -1.883542225046     1.007825032070
           H         -2.942778464973     1.300723535377    -0.520380225046     1.007825032070
           H         -1.471728464973     2.280681535377    -0.371063225046     1.007825032070
           H         -2.467808464973     1.992641535377     1.036666774954     1.007825032070

  Charge       = 0
  Multiplicity = 1
  Basis Set: 6-31G*
  Basis Set:

    Orbital Energies (a.u.)
    -----------------------

    Doubly Occupied:

       1A    -20.549237     2A    -11.325931     3A    -11.230212
       4A    -11.229495     5A    -11.229455     6A    -11.212778
       7A    -11.208316     8A     -1.395679     9A     -1.088699
      10A     -1.026772    11A     -0.982080    12A     -0.886412
      13A     -0.803734    14A     -0.733696    15A     -0.661920
      16A     -0.643704    17A     -0.620136    18A     -0.606055
      19A     -0.582543    20A     -0.574165    21A     -0.551854
      22A     -0.538743    23A     -0.517813    24A     -0.492494
      25A     -0.479658    26A     -0.468371    27A     -0.459594
      28A     -0.397060

  @DF-RHF Final Energy:  -309.06332113513344

   => Energetics <=

    Nuclear Repulsion Energy =            309.0200772383704475
    One-Electron Energy =               -1031.1736234395480096
    Two-Electron Energy =                 413.0902250660437858
    DFT Exchange-Correlation Energy =       0.0000000000000000
    Empirical Dispersion Energy =           0.0000000000000000
    PCM Polarization Energy =               0.0000000000000000
    EFP Energy =                            0.0000000000000000
    Total Energy =                       -309.0633211351337195

  Mulliken Charges: (a.u.)
   Center  Symbol    Alpha    Beta     Spin     Total
       1     O     4.26076  4.26076  0.00000 -0.52151
       2     C     2.73920  2.73920  0.00000  0.52161
       3     C     3.20165  3.20165  0.00000 -0.40330
       4     C     3.28875  3.28875  0.00000 -0.57749
       5     C     3.16219  3.16219  0.00000 -0.32439
       6     H     0.41448  0.41448  0.00000  0.17104
       7     H     0.40096  0.40096  0.00000  0.19808
       8     C     3.15573  3.15573  0.00000 -0.31145
       9     H     0.41476  0.41476  0.00000  0.17049
      10     H     0.42122  0.42122  0.00000  0.15756
      11     C     3.24032  3.24032  0.00000 -0.48063
      12     H     0.42095  0.42095  0.00000  0.15810
      13     H     0.40292  0.40292  0.00000  0.19417
      14     H     0.42372  0.42372  0.00000  0.15257
      15     H     0.42283  0.42283  0.00000  0.15434
      16     H     0.41694  0.41694  0.00000  0.16613
      17     H     0.39705  0.39705  0.00000  0.20591
      18     H     0.40933  0.40933  0.00000  0.18133
      19     H     0.40627  0.40627  0.00000  0.18745

   Total alpha = 28.00000, Total beta = 28.00000, Total charge =  0.00000
