  ==> Input File <==

--------------------------------------------------------------------------
set {
	reference rhf
	basis cc-pvtz
}

set_num_threads( 4 )
memory 2 gb

molecule MOL {
0 1

H	 2.165503	 1.891312	 -0.127374
O	 1.244801	 1.874365	 0.056106
C	 0.700177	 0.619554	 -0.266242
C	 -0.713111	 0.588314	 0.266177
H	 1.277853	 -0.177763	 0.191471
H	 0.688133	 0.466356	 -1.342236
O	 -1.421673	 -0.521378	 -0.196983
H	 -1.244794	 1.469161	 -0.069059
H	 -0.685100	 0.604721	 1.352683
H	 -0.933408	 -1.297830	 0.014544

	symmetry c1
}
set optking {
	frozen_dihedral = ("
		5 3 4 7
	")
}

ee = optimize('scf')
oeprop('DIPOLE', 'QUADRUPOLE', 'MULLIKEN_CHARGES')
f=open( 'psi4out.xyz', 'w' )
f.write( "10  " )
f.write( str(ee) + "\n" )
f.write( MOL.save_string_xyz() )
f.close()
--------------------------------------------------------------------------

    Molecular point group: c1
  Charge       = 0
  Multiplicity = 1
  Basis Set: CC-PVTZ
  Basis Set:
  @DF-RHF Final Energy:  -229.02433796319590
    Total Energy =                       -229.0243379631958476
    Molecular point group: c1
  Basis Set: CC-PVTZ
  Basis Set:
  Basis Set: CC-PVTZ
  Basis Set:
  @DF-RHF Final Energy:  -229.02494954378380
    Total Energy =                       -229.0249495437838050
  Basis Set: CC-PVTZ
  Basis Set:
  Basis Set: CC-PVTZ
  Basis Set:
  @DF-RHF Final Energy:  -229.02513378743996
    Total Energy =                       -229.0251337874399837
  Basis Set: CC-PVTZ
  Basis Set:
  Basis Set: CC-PVTZ
  Basis Set:
  @DF-RHF Final Energy:  -229.02517184988741
    Total Energy =                       -229.0251718498874425
  Basis Set: CC-PVTZ
  Basis Set:
  Basis Set: CC-PVTZ
  Basis Set:
  @DF-RHF Final Energy:  -229.02517300655413
    Total Energy =                       -229.0251730065540983
  Basis Set: CC-PVTZ
  Basis Set:
  Charge       = 0
  Multiplicity = 1
  Basis Set: CC-PVTZ
  Basis Set:

    Orbital Energies (a.u.)
    -----------------------

    Doubly Occupied:

       1A    -20.554745     2A    -20.552944     3A    -11.270609
       4A    -11.267142     5A     -1.378434     6A     -1.365335
       7A     -0.999641     8A     -0.847103     9A     -0.721285
      10A     -0.697119    11A     -0.637243    12A     -0.614956
      13A     -0.581301    14A     -0.528418    15A     -0.492918
      16A     -0.447545    17A     -0.443091

  @DF-RHF Final Energy:  -229.02517311761025

   => Energetics <=

    Nuclear Repulsion Energy =            131.4920794920861624
    One-Electron Energy =                -574.2348466131913938
    Two-Electron Energy =                 213.7175940034949235
    DFT Exchange-Correlation Energy =       0.0000000000000000
    Empirical Dispersion Energy =           0.0000000000000000
    PCM Polarization Energy =               0.0000000000000000
    EFP Energy =                            0.0000000000000000
    Total Energy =                       -229.0251731176102794
    Molecular point group: c1
  Basis Set: CC-PVTZ
  Basis Set:

  -Total Gradient:
     Atom            X                  Y                   Z
    ------   -----------------  -----------------  -----------------
       1       -0.000006228526     0.000001626518     0.000001517028
       2        0.000001446050    -0.000008601183    -0.000007499984
       3       -0.000880231239    -0.001302788171    -0.002651675987
       4        0.000870072111    -0.001055357987     0.002282995722
       5        0.000578790211     0.001337290704     0.001759058741
       6       -0.000004412593    -0.000006542735    -0.000005105938
       7       -0.000551355835     0.001030117051    -0.001387203220
       8       -0.000009403057    -0.000003543205     0.000002433326
       9        0.000002358846     0.000008679497     0.000005228748
      10       -0.000001035970    -0.000000880489     0.000000251564

  **** Optimization is complete! (in 6 steps) ****
    Final optimized geometry and variables:
    Molecular point group: c1

    Geometry (in Angstrom), charge = 0, multiplicity = 1:

    H            2.155150054367     1.325508967412    -0.131888198736
    O            1.266383198224     1.245157365572     0.160099644621
    C            0.736244811512     0.006859480185    -0.225524176745
    C           -0.687265784536    -0.058086587027     0.292301836618
    H            1.325156138145    -0.803664331738     0.200953027364
    H            0.726022551324    -0.105064841467    -1.304876783670
    O           -1.378848046624    -1.158352245499    -0.229190417381
    H           -1.215326931304     0.826695131889    -0.033680920738
    H           -0.688961375071    -0.061077253161     1.377648317735
    H           -1.100326562914    -1.950105536293     0.193255103691

  Mulliken Charges: (a.u.)
   Center  Symbol    Alpha    Beta     Spin     Total
       1     H     0.39326  0.39326  0.00000  0.21348
       2     O     4.19912  4.19912  0.00000 -0.39825
       3     C     2.96684  2.96684  0.00000  0.06633
       4     C     2.97711  2.97711  0.00000  0.04578
       5     H     0.48051  0.48051  0.00000  0.03898
       6     H     0.46905  0.46905  0.00000  0.06190
       7     O     4.20166  4.20166  0.00000 -0.40332
       8     H     0.45182  0.45182  0.00000  0.09635
       9     H     0.46626  0.46626  0.00000  0.06749
      10     H     0.39437  0.39437  0.00000  0.21125

   Total alpha = 17.00000, Total beta = 17.00000, Total charge =  0.00000
