                              Psi4 1.0.54 Driver

  ==> Input File <==

--------------------------------------------------------------------------
set {
	reference rhf
	basis cc-pvtz
}

set_num_threads( 4 )
memory 2 gb

molecule MOL {
0 1

H	 -3.268214	 -0.875720	 0.463107
C	 -2.806015	 0.000007	 0.024886
N	 -1.391133	 0.000016	 0.301321
H	 -3.029448	 0.000055	 -1.045738
H	 -3.268126	 0.875758	 0.463150
C	 -0.654356	 -0.860068	 -0.599229
C	 -1.099772	 -0.328024	 1.680100
H	 -0.970285	 -1.902981	 -0.502421
H	 -0.852285	 -0.551779	 -1.618968
C	 0.835890	 -0.768475	 -0.329431
H	 -1.622865	 0.368674	 2.324363
H	 -1.446061	 -1.334669	 1.932287
C	 0.390473	 -0.236431	 1.949898
H	 1.358983	 -1.465173	 -0.973694
H	 1.182179	 0.238169	 -0.581618
N	 1.127251	 -1.096515	 1.049348
H	 0.588403	 -0.544720	 2.969636
H	 0.706403	 0.806481	 1.853089
C	 2.542133	 -1.096506	 1.325783
H	 3.046349	 -1.797666	 0.672557
H	 2.718873	 -1.406599	 2.348117
H	 3.001974	 -0.114027	 1.186360

	symmetry c1
}
set optking {
	frozen_dihedral = ("
		6 3 2 4
	")
}

ee,wfn = optimize('scf', return_wfn=True)
oeprop( wfn, 'DIPOLE', 'QUADRUPOLE', 'MULLIKEN_CHARGES')
f=open( 'psi4out.xyz', 'w' )
f.write( "22  " )
f.write( str(ee) + "\n" )
f.write( MOL.save_string_xyz() )
f.close()
--------------------------------------------------------------------------

    Molecular point group: c1
  Charge       = 0
  Multiplicity = 1
  Basis Set: CC-PVTZ
  Basis Set:
  @DF-RHF Final Energy:  -344.34880475654376
    Total Energy =                       -344.3488047565438137
    Molecular point group: c1
  Basis Set: CC-PVTZ
  Basis Set:
  Basis Set: CC-PVTZ
  Basis Set:
  @DF-RHF Final Energy:  -344.34954420431666
    Total Energy =                       -344.3495442043163166
  Basis Set: CC-PVTZ
  Basis Set:
  Basis Set: CC-PVTZ
  Basis Set:
  @DF-RHF Final Energy:  -344.34963582540473
    Total Energy =                       -344.3496358254047891
  Basis Set: CC-PVTZ
  Basis Set:
  Basis Set: CC-PVTZ
  Basis Set:
  @DF-RHF Final Energy:  -344.34963869374968
    Total Energy =                       -344.3496386937493980
  Basis Set: CC-PVTZ
  Basis Set:
  Charge       = 0
  Multiplicity = 1
  Basis Set: CC-PVTZ
  Basis Set:

    Orbital Energies (a.u.)
    -----------------------

    Doubly Occupied:

       1A    -15.537653     2A    -15.536184     3A    -11.237700
       4A    -11.237534     5A    -11.236954     6A    -11.236875
       7A    -11.234365     8A    -11.234260     9A     -1.257122
      10A     -1.205993    11A     -1.026217    12A     -0.992891
      13A     -0.912386    14A     -0.868608    15A     -0.836336
      16A     -0.754731    17A     -0.666880    18A     -0.638321
      19A     -0.632721    20A     -0.627434    21A     -0.622466
      22A     -0.581969    23A     -0.551099    24A     -0.546897
      25A     -0.543138    26A     -0.517671    27A     -0.497105
      28A     -0.490660    29A     -0.467324    30A     -0.457613
      31A     -0.351971    32A     -0.345095

  @DF-RHF Final Energy:  -344.34963906678541

   => Energetics <=

    Nuclear Repulsion Energy =            421.8827249492287024
    One-Electron Energy =               -1302.6963743409437484
    Two-Electron Energy =                 536.4640103249297454
    DFT Exchange-Correlation Energy =       0.0000000000000000
    Empirical Dispersion Energy =           0.0000000000000000
    PCM Polarization Energy =               0.0000000000000000
    EFP Energy =                            0.0000000000000000
    Total Energy =                       -344.3496390667852438
    Molecular point group: c1
  Basis Set: CC-PVTZ
  Basis Set:

  -Total Gradient:
     Atom            X                  Y                   Z
    ------   -----------------  -----------------  -----------------
       1       -0.000006983067    -0.000002033832     0.000005222646
       2        0.000205613897     0.005075430359    -0.000586483992
       3       -0.000520519976    -0.003660788768     0.002239276448
       4       -0.000063954709    -0.003392629158    -0.000053613133
       5        0.000020797190    -0.000024765561     0.000006505680
       6        0.000377527598     0.001980464157    -0.001613420242
       7       -0.000008998870     0.000005900199     0.000017648928
       8       -0.000007440446     0.000014657865     0.000007000822
       9        0.000003295917     0.000001769291     0.000001614125
      10        0.000007107748     0.000007349170    -0.000003193704
      11       -0.000006384673     0.000000573355    -0.000000985538
      12        0.000008373027     0.000011224080    -0.000011085978
      13       -0.000008616202    -0.000011300078    -0.000003867931
      14        0.000004982491    -0.000001051956     0.000000656952
      15       -0.000000663818     0.000001630327    -0.000003144233
      16       -0.000003480247    -0.000001082099    -0.000005747319
      17        0.000005802926     0.000000121740     0.000005382159
      18       -0.000005396167    -0.000006054513    -0.000001686220
      19        0.000002114884    -0.000000226159    -0.000000279283
      20       -0.000003172433     0.000001091693     0.000000419134
      21        0.000000204597    -0.000000227787     0.000000872758
      22       -0.000000209669    -0.000000052323    -0.000001092078

  **** Optimization is complete! (in 5 steps) ****
    Final optimized geometry and variables:
    Molecular point group: c1

    Geometry (in Angstrom), charge = 0, multiplicity = 1:

    H           -3.195891887356    -0.320562950046    -0.294031066331
    C           -2.670197289795     0.559149631557    -0.676839063868
    N           -1.257274056346     0.526468365348    -0.390299757184
    H           -2.830734387649     0.577949306479    -1.746823905263
    H           -3.126654263359     1.438020159933    -0.238223485048
    C           -0.507567184867    -0.327971237514    -1.283186909440
    C           -0.976960108389     0.228176308373     0.994869625678
    H           -0.815378681355    -1.374631817257    -1.195512249338
    H           -0.692398495512    -0.016718605489    -2.304043577967
    C            0.978771583807    -0.227123769321    -0.993413895966
    H           -1.507575321652     0.936676343465     1.620699509419
    H           -1.325570156344    -0.773399720961     1.264164156160
    C            0.510697899903     0.325750133285     1.276299219710
    H            1.514027844976    -0.925029793265    -1.626382213470
    H            1.322675962509     0.779953822173    -1.247767599905
    N            1.255104606012    -0.543656844847     0.391156640210
    H            0.700949389371     0.029372990101     2.301097380763
    H            0.826528902225     1.367833925766     1.169957771520
    C            2.666976437628    -0.543120595865     0.682036329340
    H            3.176783179181    -1.251211564694     0.040664687954
    H            2.832879760264    -0.843682155088     1.709072642972
    H            3.130005577427     0.437311737046     0.538016583384

  Mulliken Charges: (a.u.)
   Center  Symbol    Alpha    Beta     Spin     Total
       1     H     0.46976  0.46976  0.00000  0.06048
       2     C     3.09753  3.09753  0.00000 -0.19506
       3     N     3.61286  3.61286  0.00000 -0.22573
       4     H     0.45370  0.45370  0.00000  0.09260
       5     H     0.45043  0.45043  0.00000  0.09914
       6     C     3.03363  3.03363  0.00000 -0.06726
       7     C     3.03523  3.03523  0.00000 -0.07046
       8     H     0.46967  0.46967  0.00000  0.06065
       9     H     0.45387  0.45387  0.00000  0.09227
      10     C     3.03606  3.03606  0.00000 -0.07211
      11     H     0.45424  0.45424  0.00000  0.09152
      12     H     0.46771  0.46771  0.00000  0.06457
      13     C     3.03560  3.03560  0.00000 -0.07119
      14     H     0.45391  0.45391  0.00000  0.09219
      15     H     0.46831  0.46831  0.00000  0.06338
      16     N     3.61313  3.61313  0.00000 -0.22625
      17     H     0.45384  0.45384  0.00000  0.09233
      18     H     0.46817  0.46817  0.00000  0.06365
      19     C     3.09838  3.09838  0.00000 -0.19675
      20     H     0.45193  0.45193  0.00000  0.09614
      21     H     0.45193  0.45193  0.00000  0.09613
      22     H     0.47012  0.47012  0.00000  0.05976

   Total alpha = 32.00000, Total beta = 32.00000, Total charge =  0.00000

*** Psi4 exiting successfully. Buy a developer a beer!
