  ==> Input File <==

--------------------------------------------------------------------------
set {
	reference rhf
	basis 6-31G*
}

set_num_threads( 1 )
memory 2 gb

molecule MOL {
0 1

H	 -3.161837	 0.500524	 -0.000234
C	 -2.367097	 -0.232926	 -0.000000
O	 -1.158440	 0.455814	 -0.000122
H	 -2.468853	 -0.861886	 -0.882833
H	 -2.468942	 -0.861421	 0.883154
C	 -0.029776	 -0.365156	 0.000148
C	 0.204696	 -0.875688	 1.411191
H	 0.839949	 0.192247	 -0.350252
H	 -0.173383	 -1.200970	 -0.685928
C	 1.427100	 -1.787495	 1.507189
H	 0.321225	 -0.021686	 2.071315
H	 -0.684958	 -1.405213	 1.738022
H	 2.333288	 -1.268562	 1.207265
H	 1.570345	 -2.137280	 2.524035
H	 1.320288	 -2.661704	 0.870985

	symmetry c1
}
set optking {
	frozen_dihedral = ("
		6 3 2 4,
		11 7 6 8
	")
}

ee = energy('scf')
oeprop('DIPOLE', 'QUADRUPOLE', 'MULLIKEN_CHARGES')
f=open( 'psi4out.xyz', 'w' )
f.write( "15  " )
f.write( str(ee) + "\n" )
f.write( MOL.save_string_xyz() )
f.close()
--------------------------------------------------------------------------

    Molecular point group: c1

    Geometry (in Angstrom), charge = 0, multiplicity = 1:

       Center              X                  Y                   Z               Mass
    ------------   -----------------  -----------------  -----------------  -----------------
           H         -2.752740348477     1.062759067175    -0.573365003726     1.007825032070
           C         -1.958000348477     0.329309067175    -0.573131003726    12.000000000000
           O         -0.749343348477     1.018049067175    -0.573253003726    15.994914619560
           H         -2.059756348477    -0.299650932825    -1.455964003726     1.007825032070
           H         -2.059845348477    -0.299185932825     0.310022996274     1.007825032070
           C          0.379320651523     0.197079067175    -0.572983003726    12.000000000000
           C          0.613792651523    -0.313452932825     0.838059996274    12.000000000000
           H          1.249045651523     0.754482067175    -0.923383003726     1.007825032070
           H          0.235713651523    -0.638734932825    -1.259059003726     1.007825032070
           C          1.836196651523    -1.225259932825     0.934057996274    12.000000000000
           H          0.730321651523     0.540549067175     1.498183996274     1.007825032070
           H         -0.275861348477    -0.842977932825     1.164890996274     1.007825032070
           H          2.742384651523    -0.706326932825     0.634133996274     1.007825032070
           H          1.979441651523    -1.575044932825     1.950903996274     1.007825032070
           H          1.729384651523    -2.099468932825     0.297853996274     1.007825032070

  Charge       = 0
  Multiplicity = 1
  Basis Set: 6-31G*
  Basis Set:

    Orbital Energies (a.u.)
    -----------------------

    Doubly Occupied:

       1A    -20.552333     2A    -11.266758     3A    -11.264145
       4A    -11.213952     5A    -11.213283     6A     -1.378952
       7A     -1.055787     8A     -0.957988     9A     -0.884156
      10A     -0.806193    11A     -0.672320    12A     -0.657723
      13A     -0.635416    14A     -0.599132    15A     -0.568324
      16A     -0.532065    17A     -0.519628    18A     -0.498741
      19A     -0.483541    20A     -0.457469    21A     -0.404628

  @DF-RHF Final Energy:  -232.13432236345014

   => Energetics <=

    Nuclear Repulsion Energy =            192.8963175999950579
    One-Electron Energy =                -696.8162205295626563
    Two-Electron Energy =                 271.7855805661179716
    DFT Exchange-Correlation Energy =       0.0000000000000000
    Empirical Dispersion Energy =           0.0000000000000000
    PCM Polarization Energy =               0.0000000000000000
    EFP Energy =                            0.0000000000000000
    Total Energy =                       -232.1343223634495985

  Mulliken Charges: (a.u.)
   Center  Symbol    Alpha    Beta     Spin     Total
       1     H     0.41128  0.41128  0.00000  0.17744
       2     C     3.08236  3.08236  0.00000 -0.16471
       3     O     4.30368  4.30368  0.00000 -0.60737
       4     H     0.42960  0.42960  0.00000  0.14081
       5     H     0.43027  0.43027  0.00000  0.13946
       6     C     2.99180  2.99180  0.00000  0.01640
       7     C     3.16267  3.16267  0.00000 -0.32533
       8     H     0.41557  0.41557  0.00000  0.16887
       9     H     0.43264  0.43264  0.00000  0.13472
      10     C     3.24752  3.24752  0.00000 -0.49504
      11     H     0.41368  0.41368  0.00000  0.17265
      12     H     0.42069  0.42069  0.00000  0.15861
      13     H     0.42030  0.42030  0.00000  0.15939
      14     H     0.41638  0.41638  0.00000  0.16723
      15     H     0.42156  0.42156  0.00000  0.15688

   Total alpha = 21.00000, Total beta = 21.00000, Total charge =  0.00000
