  ==> Input File <==

--------------------------------------------------------------------------
set {
	reference rhf
	basis cc-pvtz
}

set_num_threads( 4 )
memory 2 gb

molecule MOL {
0 1

H	 1.428434	 -2.017283	 -0.793604
C	 0.503980	 -1.489007	 -0.955288
O	 0.462329	 -0.453336	 -0.000137
H	 -0.324458	 -2.173672	 -0.824358
H	 0.493030	 -1.091369	 -1.962265
C	 -0.590565	 0.341382	 0.000062
O	 -1.693898	 -0.053880	 0.000252
H	 -0.340426	 1.403822	 0.000200

	symmetry c1
}
set optking {
	frozen_dihedral = ("
		2 3 6 7
	")
}

ee = optimize('scf')
oeprop('DIPOLE', 'QUADRUPOLE', 'MULLIKEN_CHARGES')
f=open( 'psi4out.xyz', 'w' )
f.write( "8  " )
f.write( str(ee) + "\n" )
f.write( MOL.save_string_xyz() )
f.close()
--------------------------------------------------------------------------

    Molecular point group: c1
  Charge       = 0
  Multiplicity = 1
  Basis Set: CC-PVTZ
  Basis Set:
  @DF-RHF Final Energy:  -227.86619489884822
    Total Energy =                       -227.8661948988481640
    Molecular point group: c1
  Basis Set: CC-PVTZ
  Basis Set:
  Basis Set: CC-PVTZ
  Basis Set:
  @DF-RHF Final Energy:  -227.86052723118897
    Total Energy =                       -227.8605272311888825
  Basis Set: CC-PVTZ
  Basis Set:
  Basis Set: CC-PVTZ
  Basis Set:
  @DF-RHF Final Energy:  -227.86685639754512
    Total Energy =                       -227.8668563975452344
  Basis Set: CC-PVTZ
  Basis Set:
  Basis Set: CC-PVTZ
  Basis Set:
  @DF-RHF Final Energy:  -227.86736224820442
    Total Energy =                       -227.8673622482043868
  Basis Set: CC-PVTZ
  Basis Set:
  Basis Set: CC-PVTZ
  Basis Set:
  @DF-RHF Final Energy:  -227.86736957987688
    Total Energy =                       -227.8673695798769359
  Basis Set: CC-PVTZ
  Basis Set:
  Basis Set: CC-PVTZ
  Basis Set:
  @DF-RHF Final Energy:  -227.86737119627958
    Total Energy =                       -227.8673711962795494
  Basis Set: CC-PVTZ
  Basis Set:
  Charge       = 0
  Multiplicity = 1
  Basis Set: CC-PVTZ
  Basis Set:

    Orbital Energies (a.u.)
    -----------------------

    Doubly Occupied:

       1A    -20.597830     2A    -20.555781     3A    -11.374603
       4A    -11.291145     5A     -1.475401     6A     -1.381804
       7A     -0.993363     8A     -0.824578     9A     -0.743658
      10A     -0.687514    11A     -0.674554    12A     -0.615943
      13A     -0.562721    14A     -0.525070    15A     -0.472605
      16A     -0.458093

  @DF-RHF Final Energy:  -227.86737137360450

   => Energetics <=

    Nuclear Repulsion Energy =            122.9212601639298583
    One-Electron Energy =                -555.1079368866850245
    Two-Electron Energy =                 204.3193053491505680
    DFT Exchange-Correlation Energy =       0.0000000000000000
    Empirical Dispersion Energy =           0.0000000000000000
    PCM Polarization Energy =               0.0000000000000000
    EFP Energy =                            0.0000000000000000
    Total Energy =                       -227.8673713736046125
    Molecular point group: c1
  Basis Set: CC-PVTZ
  Basis Set:

  -Total Gradient:
     Atom            X                  Y                   Z
    ------   -----------------  -----------------  -----------------
       1        0.000000753629     0.000008727917     0.000004935667
       2        0.003210683489     0.004648569144    -0.005384593867
       3       -0.004539533120    -0.006827113576     0.013283887951
       4       -0.000000117206     0.000007037371     0.000003888390
       5       -0.000002534382     0.000004950383     0.000005504176
       6        0.000845165778     0.001752602547    -0.018125674459
       7        0.000475835603     0.000400011657     0.010209799758
       8        0.000009746208     0.000005214558     0.000002252386

  **** Optimization is complete! (in 7 steps) ****
    Final optimized geometry and variables:
    Molecular point group: c1

    Geometry (in Angstrom), charge = 0, multiplicity = 1:

    H            1.754112393319    -1.612194727403    -0.511553480619
    C            0.840621870319    -1.075300019279    -0.706118307437
    O            0.804073406522    -0.000367387525     0.216807795664
    H           -0.007815001017    -1.729132537270    -0.572122969974
    H            0.853430170765    -0.692529195819    -1.718189831584
    C           -0.280638354751     0.763504550988     0.234084400741
    O           -1.386971836607     0.374013317965     0.295893507808
    H           -0.016334264218     1.816319621533     0.285351397836

  Mulliken Charges: (a.u.)
   Center  Symbol    Alpha    Beta     Spin     Total
       1     H     0.44568  0.44568  0.00000  0.10863
       2     C     3.02588  3.02588  0.00000 -0.05177
       3     O     4.15093  4.15093  0.00000 -0.30187
       4     H     0.44821  0.44821  0.00000  0.10358
       5     H     0.46176  0.46176  0.00000  0.07648
       6     C     2.83161  2.83161  0.00000  0.33678
       7     O     4.17847  4.17847  0.00000 -0.35693
       8     H     0.45746  0.45746  0.00000  0.08509

   Total alpha = 16.00000, Total beta = 16.00000, Total charge = -0.00000
