  ==> Input File <==

--------------------------------------------------------------------------
set {
	reference rhf
	basis 6-31G*
}

set_num_threads( 1 )
memory 2 gb

molecule MOL {
0 1

O	 -2.821601	 1.309235	 -0.001213
C	 -2.668563	 0.129746	 -0.000350
C	 -3.801572	 -0.864014	 -0.000442
O	 -1.481751	 -0.454642	 0.000584
H	 -4.417280	 -0.689587	 -0.874708
H	 -3.443784	 -1.883046	 -0.000565
H	 -4.417179	 -0.689832	 0.873954
C	 -0.334255	 0.388708	 0.000906
C	 0.891947	 -0.504646	 0.000751
H	 -0.365390	 1.025305	 -0.873475
H	 -0.365484	 1.024911	 0.875569
C	 2.191998	 0.301789	 0.000897
H	 0.855148	 -1.151283	 -0.871571
H	 0.855132	 -1.151660	 0.872805
C	 3.441114	 -0.581407	 0.000108
H	 2.215074	 0.954890	 -0.869742
H	 2.215465	 0.953923	 0.872248
C	 3.361702	 -1.725538	 1.009824
H	 4.314032	 0.030752	 0.215397
H	 3.592217	 -0.989040	 -0.996924
H	 3.244287	 -1.348261	 2.021698
H	 4.260855	 -2.333144	 0.985843
H	 2.517277	 -2.375894	 0.800077

	symmetry c1
}
set optking {
	frozen_dihedral = ("
		13 9 8 10,
		2 4 8 10,
		16 12 9 13,
		1 2 4 8
	")
}

ee = energy('scf')
oeprop('DIPOLE', 'QUADRUPOLE', 'MULLIKEN_CHARGES')
f=open( 'psi4out.xyz', 'w' )
f.write( "23  " )
f.write( str(ee) + "\n" )
f.write( MOL.save_string_xyz() )
f.close()
--------------------------------------------------------------------------

    Molecular point group: c1

    Geometry (in Angstrom), charge = 0, multiplicity = 1:

       Center              X                  Y                   Z               Mass
    ------------   -----------------  -----------------  -----------------  -----------------
           O         -2.662519702936     1.534329348345    -0.117928297369    15.994914619560
           C         -2.509481702936     0.354840348345    -0.117065297369    12.000000000000
           C         -3.642490702936    -0.638919651655    -0.117157297369    12.000000000000
           O         -1.322669702936    -0.229547651655    -0.116131297369    15.994914619560
           H         -4.258198702936    -0.464492651655    -0.991423297369     1.007825032070
           H         -3.284702702936    -1.657951651655    -0.117280297369     1.007825032070
           H         -4.258097702936    -0.464737651655     0.757238702631     1.007825032070
           C         -0.175173702936     0.613802348345    -0.115809297369    12.000000000000
           C          1.051028297064    -0.279551651655    -0.115964297369    12.000000000000
           H         -0.206308702936     1.250399348345    -0.990190297369     1.007825032070
           H         -0.206402702936     1.250005348345     0.758853702631     1.007825032070
           C          2.351079297064     0.526883348345    -0.115818297369    12.000000000000
           H          1.014229297064    -0.926188651655    -0.988286297369     1.007825032070
           H          1.014213297064    -0.926565651655     0.756089702631     1.007825032070
           C          3.600195297064    -0.356312651655    -0.116607297369    12.000000000000
           H          2.374155297064     1.179984348345    -0.986457297369     1.007825032070
           H          2.374546297064     1.179017348345     0.755532702631     1.007825032070
           C          3.520783297064    -1.500443651655     0.893108702631    12.000000000000
           H          4.473113297064     0.255846348345     0.098681702631     1.007825032070
           H          3.751298297064    -0.763945651655    -1.113639297369     1.007825032070
           H          3.403368297064    -1.123166651655     1.904982702631     1.007825032070
           H          4.419936297064    -2.108049651655     0.869127702631     1.007825032070
           H          2.676358297064    -2.150799651655     0.683361702631     1.007825032070

  Charge       = 0
  Multiplicity = 1
  Basis Set: 6-31G*
  Basis Set:

    Orbital Energies (a.u.)
    -----------------------

    Doubly Occupied:

       1A    -20.602816     2A    -20.540388     3A    -11.373964
       4A    -11.281099     5A    -11.232340     6A    -11.223937
       7A    -11.223038     8A    -11.221543     9A    -11.212362
      10A     -1.467797    11A     -1.360581    12A     -1.096418
      13A     -1.040939    14A     -1.000558    15A     -0.930462
      16A     -0.857927    17A     -0.790098    18A     -0.770255
      19A     -0.691351    20A     -0.684953    21A     -0.670582
      22A     -0.639459    23A     -0.616472    24A     -0.600621
      25A     -0.574566    26A     -0.569775    27A     -0.549762
      28A     -0.537806    29A     -0.525773    30A     -0.505724
      31A     -0.496763    32A     -0.470734    33A     -0.467833
      34A     -0.465543    35A     -0.450971    36A     -0.435219

  @DF-RHF Final Energy:  -422.97500970475932

   => Energetics <=

    Nuclear Repulsion Energy =            456.6670899983583354
    One-Electron Energy =               -1480.9233397985433385
    Two-Electron Energy =                 601.2812400954261420
    DFT Exchange-Correlation Energy =       0.0000000000000000
    Empirical Dispersion Energy =           0.0000000000000000
    PCM Polarization Energy =               0.0000000000000000
    EFP Energy =                            0.0000000000000000
    Total Energy =                       -422.9750097047589179

  Mulliken Charges: (a.u.)
   Center  Symbol    Alpha    Beta     Spin     Total
       1     O     4.28394  4.28394  0.00000 -0.56788
       2     C     2.61527  2.61527  0.00000  0.76946
       3     C     3.28772  3.28772  0.00000 -0.57543
       4     O     4.31278  4.31278  0.00000 -0.62556
       5     H     0.39751  0.39751  0.00000  0.20498
       6     H     0.39995  0.39995  0.00000  0.20011
       7     H     0.39752  0.39752  0.00000  0.20496
       8     C     2.99432  2.99432  0.00000  0.01137
       9     C     3.17095  3.17095  0.00000 -0.34190
      10     H     0.41091  0.41091  0.00000  0.17819
      11     H     0.41080  0.41080  0.00000  0.17840
      12     C     3.16109  3.16109  0.00000 -0.32217
      13     H     0.41469  0.41469  0.00000  0.17062
      14     H     0.41025  0.41025  0.00000  0.17949
      15     C     3.15141  3.15141  0.00000 -0.30281
      16     H     0.41852  0.41852  0.00000  0.16297
      17     H     0.42075  0.42075  0.00000  0.15850
      18     C     3.24633  3.24633  0.00000 -0.49266
      19     H     0.41844  0.41844  0.00000  0.16312
      20     H     0.42114  0.42114  0.00000  0.15772
      21     H     0.42131  0.42131  0.00000  0.15738
      22     H     0.41727  0.41727  0.00000  0.16547
      23     H     0.41716  0.41716  0.00000  0.16568

   Total alpha = 36.00000, Total beta = 36.00000, Total charge =  0.00000
