                              Psi4 1.0.54 Driver

  ==> Input File <==

--------------------------------------------------------------------------
set {
	reference rhf
	basis cc-pvtz
}

set_num_threads( 4 )
memory 2 gb

molecule MOL {
0 1

H	 -2.816458	 -0.841657	 -0.064679
N	 -1.878861	 -0.711874	 0.250184
C	 -1.341419	 0.551458	 -0.220231
H	 -1.333674	 -1.468530	 -0.105118
C	 -0.971704	 1.437669	 0.947069
H	 -0.465071	 0.439192	 -0.857377
H	 -2.103712	 1.057909	 -0.802012
O	 0.070767	 0.837932	 1.655078
H	 -0.662631	 2.416956	 0.584243
H	 -1.836477	 1.570810	 1.593111
C	 0.459968	 1.523695	 2.798525
H	 1.267798	 0.972554	 3.257916
H	 0.811585	 2.525535	 2.561085
H	 -0.357696	 1.606090	 3.510705

	symmetry c1
}
set optking {
	frozen_dihedral = ("
		6 3 2 4
	")
}

ee,wfn = optimize('scf', return_wfn=True)
oeprop( wfn, 'DIPOLE', 'QUADRUPOLE', 'MULLIKEN_CHARGES')
f=open( 'psi4out.xyz', 'w' )
f.write( "14  " )
f.write( str(ee) + "\n" )
f.write( MOL.save_string_xyz() )
f.close()
--------------------------------------------------------------------------

    Molecular point group: c1
  Charge       = 0
  Multiplicity = 1
  Basis Set: CC-PVTZ
  Basis Set:
  @DF-RHF Final Energy:  -248.21980492940276
    Total Energy =                       -248.2198049294028124
    Molecular point group: c1
  Basis Set: CC-PVTZ
  Basis Set:
  Basis Set: CC-PVTZ
  Basis Set:
  @DF-RHF Final Energy:  -248.21934794056187
    Total Energy =                       -248.2193479405618746
  Basis Set: CC-PVTZ
  Basis Set:
  Basis Set: CC-PVTZ
  Basis Set:
  @DF-RHF Final Energy:  -248.22092870041166
    Total Energy =                       -248.2209287004114913
  Basis Set: CC-PVTZ
  Basis Set:
  Basis Set: CC-PVTZ
  Basis Set:
  @DF-RHF Final Energy:  -248.22095544632376
    Total Energy =                       -248.2209554463236145
  Basis Set: CC-PVTZ
  Basis Set:
  Basis Set: CC-PVTZ
  Basis Set:
  @DF-RHF Final Energy:  -248.22095949469156
    Total Energy =                       -248.2209594946914422
  Basis Set: CC-PVTZ
  Basis Set:
  Charge       = 0
  Multiplicity = 1
  Basis Set: CC-PVTZ
  Basis Set:

    Orbital Energies (a.u.)
    -----------------------

    Doubly Occupied:

       1A    -20.542279     2A    -15.525178     3A    -11.257704
       4A    -11.257458     5A    -11.241514     6A     -1.377549
       7A     -1.174828     8A     -0.998610     9A     -0.902286
      10A     -0.814235    11A     -0.682471    12A     -0.671627
      13A     -0.636101    14A     -0.629279    15A     -0.601225
      16A     -0.530461    17A     -0.518347    18A     -0.508574
      19A     -0.468911    20A     -0.412409    21A     -0.382761

  @DF-RHF Final Energy:  -248.22095987385342

   => Energetics <=

    Nuclear Repulsion Energy =            193.4291566877714104
    One-Electron Energy =                -721.0326201607176699
    Two-Electron Energy =                 279.3825035990927859
    DFT Exchange-Correlation Energy =       0.0000000000000000
    Empirical Dispersion Energy =           0.0000000000000000
    PCM Polarization Energy =               0.0000000000000000
    EFP Energy =                            0.0000000000000000
    Total Energy =                       -248.2209598738534737
    Molecular point group: c1
  Basis Set: CC-PVTZ
  Basis Set:

  -Total Gradient:
     Atom            X                  Y                   Z
    ------   -----------------  -----------------  -----------------
       1        0.000001383960     0.000009731468    -0.000007197010
       2        0.001243088020    -0.000296449701     0.001899533935
       3       -0.001186598605     0.000312809680    -0.001791360053
       4       -0.000826064276     0.000170939576    -0.001249748559
       5        0.000014008465    -0.000030131529     0.000005353225
       6        0.000757483230    -0.000166672295     0.001143767291
       7        0.000000806451    -0.000014872589     0.000002943469
       8       -0.000005644456     0.000053065267     0.000042653802
       9        0.000006799262    -0.000003864933     0.000005879484
      10       -0.000002960406     0.000003979730    -0.000010856680
      11       -0.000003935840    -0.000036988737    -0.000027250838
      12        0.000009718650    -0.000001344997     0.000004937797
      13       -0.000002660967     0.000000460679    -0.000010926753
      14       -0.000005423484    -0.000000661619    -0.000007729108

  **** Optimization is complete! (in 6 steps) ****
    Final optimized geometry and variables:
    Molecular point group: c1

    Geometry (in Angstrom), charge = 0, multiplicity = 1:

    H           -2.240299099784    -1.229939745818    -1.366537607375
    N           -1.304130031014    -1.227529703874    -1.027462944136
    C           -0.637878367957     0.040897761943    -1.295176173984
    H           -0.831136934307    -1.993863430407    -1.450747888077
    C           -0.196509983732     0.730619835340    -0.020445891007
    H            0.245126761769    -0.108920091819    -1.906160767226
    H           -1.293594224772     0.715004656594    -1.837199429382
    O            0.865152053437     0.024100947322     0.536935887018
    H            0.112750562237     1.753098614460    -0.242766292175
    H           -1.031095652539     0.775817023208     0.676523267394
    C            1.274754819989     0.484717437160     1.779846264430
    H            2.103249766116    -0.128126886333     2.104949423056
    H            1.604835680818     1.521142872968     1.734191929508
    H            0.476243577325     0.411239792362     2.514677212545

  Mulliken Charges: (a.u.)
   Center  Symbol    Alpha    Beta     Spin     Total
       1     H     0.42806  0.42806  0.00000  0.14389
       2     N     3.69155  3.69155  0.00000 -0.38309
       3     C     3.04293  3.04293  0.00000 -0.08587
       4     H     0.42494  0.42494  0.00000  0.15012
       5     C     2.94757  2.94757  0.00000  0.10485
       6     H     0.45479  0.45479  0.00000  0.09042
       7     H     0.45790  0.45790  0.00000  0.08421
       8     O     4.17364  4.17364  0.00000 -0.34729
       9     H     0.47658  0.47658  0.00000  0.04685
      10     H     0.47788  0.47788  0.00000  0.04424
      11     C     3.03061  3.03061  0.00000 -0.06122
      12     H     0.44852  0.44852  0.00000  0.10296
      13     H     0.47430  0.47430  0.00000  0.05140
      14     H     0.47073  0.47073  0.00000  0.05853

   Total alpha = 21.00000, Total beta = 21.00000, Total charge =  0.00000

*** Psi4 exiting successfully. Buy a developer a beer!
