                              Psi4 1.0.54 Driver

  ==> Input File <==

--------------------------------------------------------------------------
set {
	reference rhf
	basis cc-pvtz
}

set_num_threads( 4 )
memory 2 gb

molecule MOL {
0 1

H	 -1.150778	 -0.161954	 0.787991
N	 -0.712187	 0.000026	 -0.093397
C	 0.734067	 -0.000020	 0.038424
H	 -1.039978	 0.881219	 -0.427308
H	 1.140372	 -0.872115	 -0.458226
H	 1.140363	 0.872301	 -0.457869
H	 1.095085	 -0.000244	 1.065614

	symmetry c1
}
set optking {
	frozen_dihedral = ("
		1 2 3 7
	")
}

ee,wfn = optimize('scf', return_wfn=True)
oeprop( wfn, 'DIPOLE', 'QUADRUPOLE', 'MULLIKEN_CHARGES')
f=open( 'psi4out.xyz', 'w' )
f.write( "7  " )
f.write( str(ee) + "\n" )
f.write( MOL.save_string_xyz() )
f.close()
--------------------------------------------------------------------------

    Molecular point group: c1
  Charge       = 0
  Multiplicity = 1
  Basis Set: CC-PVTZ
  Basis Set:
  @DF-RHF Final Energy:   -95.25027197887887
    Total Energy =                        -95.2502719788788994
    Molecular point group: c1
  Basis Set: CC-PVTZ
  Basis Set:
  Basis Set: CC-PVTZ
  Basis Set:
  @DF-RHF Final Energy:   -95.25057252589363
    Total Energy =                        -95.2505725258936309
  Basis Set: CC-PVTZ
  Basis Set:
  Basis Set: CC-PVTZ
  Basis Set:
  @DF-RHF Final Energy:   -95.25064222103423
    Total Energy =                        -95.2506422210342407
  Basis Set: CC-PVTZ
  Basis Set:
  Charge       = 0
  Multiplicity = 1
  Basis Set: CC-PVTZ
  Basis Set:

    Orbital Energies (a.u.)
    -----------------------

    Doubly Occupied:

       1A    -15.526907     2A    -11.235682     3A     -1.169580
       4A     -0.898103     5A     -0.665321     6A     -0.600471
       7A     -0.559600     8A     -0.518308     9A     -0.384439

  @DF-RHF Final Energy:   -95.25064256308897

   => Energetics <=

    Nuclear Repulsion Energy =             42.2995254973393173
    One-Electron Energy =                -211.9835146409299114
    Two-Electron Energy =                  74.4333465805016061
    DFT Exchange-Correlation Energy =       0.0000000000000000
    Empirical Dispersion Energy =           0.0000000000000000
    PCM Polarization Energy =               0.0000000000000000
    EFP Energy =                            0.0000000000000000
    Total Energy =                        -95.2506425630889879
    Molecular point group: c1
  Basis Set: CC-PVTZ
  Basis Set:

  -Total Gradient:
     Atom            X                  Y                   Z
    ------   -----------------  -----------------  -----------------
       1       -0.000051806187     0.001502624974     0.000293757160
       2        0.000036752727    -0.002365852670    -0.000363677288
       3       -0.000012678579     0.002289411255     0.000072664509
       4        0.000004858143     0.000027347393     0.000003833378
       5       -0.000022411810    -0.000008832554     0.000002738565
       6        0.000031126908    -0.000014178980    -0.000008586394
       7        0.000014158797    -0.001430519417    -0.000000729929

  **** Optimization is complete! (in 4 steps) ****
    Final optimized geometry and variables:
    Molecular point group: c1

    Geometry (in Angstrom), charge = 0, multiplicity = 1:

    H           -1.152757009536    -0.186186472432     0.805868595927
    N           -0.717487794181    -0.022915224741    -0.075033726558
    C            0.737319378408    -0.022739510022     0.038446200591
    H           -1.053950636411     0.854645843177    -0.404572397791
    H            1.155728307644    -0.900510566492    -0.440692844060
    H            1.165490146183     0.846445299723    -0.445402112871
    H            1.075380393845    -0.025246494764     1.069571313559

  Mulliken Charges: (a.u.)
   Center  Symbol    Alpha    Beta     Spin     Total
       1     H     0.42826  0.42826  0.00000  0.14349
       2     N     3.68675  3.68675  0.00000 -0.37349
       3     C     3.06942  3.06942  0.00000 -0.13884
       4     H     0.42778  0.42778  0.00000  0.14445
       5     H     0.46099  0.46099  0.00000  0.07802
       6     H     0.46126  0.46126  0.00000  0.07748
       7     H     0.46555  0.46555  0.00000  0.06891

   Total alpha =  9.00000, Total beta =  9.00000, Total charge = -0.00000

*** Psi4 exiting successfully. Buy a developer a beer!
