                              Psi4 1.0.54 Driver

  ==> Input File <==

--------------------------------------------------------------------------
set {
	reference rhf
	basis cc-pvtz
}

set_num_threads( 4 )
memory 2 gb

molecule MOL {
0 1

O	 -2.374409	 1.338660	 -0.336961
C	 -2.104891	 0.204655	 -0.107126
C	 -0.881910	 -0.448129	 -0.720509
C	 -2.949910	 -0.638219	 0.818225
C	 -1.222641	 -1.100448	 -2.066326
H	 -0.532194	 -1.203924	 -0.028711
H	 -0.092234	 0.283503	 -0.854645
C	 -0.012871	 -1.780721	 -2.703656
H	 -2.018932	 -1.816051	 -1.904892
H	 -1.610486	 -0.349164	 -2.750029
C	 -0.281067	 -2.398960	 -4.076885
H	 0.359601	 -2.549217	 -2.030857
H	 0.785728	 -1.050713	 -2.803311
C	 -1.247428	 -3.580869	 -4.066053
H	 0.666050	 -2.727289	 -4.493390
H	 -0.656382	 -1.631399	 -4.748690
H	 -0.899652	 -4.361661	 -3.397470
H	 -1.337214	 -4.011282	 -5.056737
H	 -2.241046	 -3.291086	 -3.746635
H	 -3.440322	 -1.417144	 0.243099
H	 -3.694377	 -0.025850	 1.303346
H	 -2.331085	 -1.129829	 1.560495

	symmetry c1
}
set optking {
	frozen_dihedral = ("
		6 3 2 1
	")
}

ee,wfn = optimize('scf', return_wfn=True)
oeprop( wfn, 'DIPOLE', 'QUADRUPOLE', 'MULLIKEN_CHARGES')
f=open( 'psi4out.xyz', 'w' )
f.write( "22  " )
f.write( str(ee) + "\n" )
f.write( MOL.save_string_xyz() )
f.close()
--------------------------------------------------------------------------

    Molecular point group: c1
  Charge       = 0
  Multiplicity = 1
  Basis Set: CC-PVTZ
  Basis Set:
  @DF-RHF Final Energy:  -348.22236767213366
    Total Energy =                       -348.2223676721336574
    Molecular point group: c1
  Basis Set: CC-PVTZ
  Basis Set:
  Basis Set: CC-PVTZ
  Basis Set:
  @DF-RHF Final Energy:  -348.22134618749652
    Total Energy =                       -348.2213461874969198
  Basis Set: CC-PVTZ
  Basis Set:
  Basis Set: CC-PVTZ
  Basis Set:
  @DF-RHF Final Energy:  -348.22285146070135
    Total Energy =                       -348.2228514607015768
  Basis Set: CC-PVTZ
  Basis Set:
  Basis Set: CC-PVTZ
  Basis Set:
  @DF-RHF Final Energy:  -348.22330505077576
    Total Energy =                       -348.2233050507753092
  Basis Set: CC-PVTZ
  Basis Set:
  @DF-RHF Final Energy:  -348.22335811997829
    Total Energy =                       -348.2233581199782293
  Basis Set: CC-PVTZ
  Basis Set:
  @DF-RHF Final Energy:  -348.22338687464310
    Total Energy =                       -348.2233868746433245
  Basis Set: CC-PVTZ
  Basis Set:
  Basis Set: CC-PVTZ
  Basis Set:
  @DF-RHF Final Energy:  -348.22346324791090
    Total Energy =                       -348.2234632479109564
  Basis Set: CC-PVTZ
  Basis Set:
  Basis Set: CC-PVTZ
  Basis Set:
  @DF-RHF Final Energy:  -348.22346615291281
    Total Energy =                       -348.2234661529125788
  Basis Set: CC-PVTZ
  Basis Set:
  Charge       = 0
  Multiplicity = 1
  Basis Set: CC-PVTZ
  Basis Set:

    Orbital Energies (a.u.)
    -----------------------

    Doubly Occupied:

       1A    -20.536746     2A    -11.319129     3A    -11.228413
       4A    -11.227558     5A    -11.226732     6A    -11.221074
       7A    -11.219431     8A    -11.211770     9A     -1.396766
      10A     -1.097961    11A     -1.046314    12A     -1.000213
      13A     -0.939713    14A     -0.859784    15A     -0.787822
      16A     -0.734378    17A     -0.662701    18A     -0.649813
      19A     -0.628249    20A     -0.620505    21A     -0.599920
      22A     -0.588527    23A     -0.554930    24A     -0.549106
      25A     -0.535848    26A     -0.521536    27A     -0.500794
      28A     -0.490113    29A     -0.470924    30A     -0.466690
      31A     -0.463387    32A     -0.398449

  @DF-RHF Final Energy:  -348.22346621368780

   => Energetics <=

    Nuclear Repulsion Energy =            373.6989164690522216
    One-Electron Energy =               -1212.3341699876659732
    Two-Electron Energy =                 490.4117873049255536
    DFT Exchange-Correlation Energy =       0.0000000000000000
    Empirical Dispersion Energy =           0.0000000000000000
    PCM Polarization Energy =               0.0000000000000000
    EFP Energy =                            0.0000000000000000
    Total Energy =                       -348.2234662136882548
    Molecular point group: c1
  Basis Set: CC-PVTZ
  Basis Set:

  -Total Gradient:
     Atom            X                  Y                   Z
    ------   -----------------  -----------------  -----------------
       1        0.000096601088     0.000057378343     0.000128346769
       2       -0.000117099033    -0.000050329874    -0.000151531904
       3       -0.000089504085    -0.000130056175    -0.000049016365
       4        0.000002997930     0.000012521848    -0.000016037449
       5        0.000008222110    -0.000002219422     0.000018688031
       6        0.000100923248     0.000121662952     0.000072115567
       7        0.000001273098     0.000006671976     0.000009074483
       8       -0.000010880898     0.000003170009     0.000000051799
       9        0.000002175696    -0.000002596250    -0.000004117076
      10        0.000004342687    -0.000004782689    -0.000005713647
      11       -0.000001802436     0.000000761415    -0.000001706828
      12       -0.000003733394     0.000000949079     0.000001503193
      13       -0.000002858874     0.000002633761     0.000007285184
      14        0.000001804552    -0.000001802105    -0.000005466547
      15       -0.000002668435    -0.000002341166    -0.000003916666
      16       -0.000000446335    -0.000001661344    -0.000002581992
      17        0.000000117094     0.000000197781     0.000000119080
      18       -0.000001049159    -0.000000753981     0.000000075857
      19        0.000003602458    -0.000001357476    -0.000002784201
      20        0.000000790240    -0.000007341740    -0.000000977668
      21        0.000005524724    -0.000000119255     0.000002187784
      22        0.000001667719    -0.000000585692     0.000004402590

  **** Optimization is complete! (in 9 steps) ****
    Final optimized geometry and variables:
    Molecular point group: c1

    Geometry (in Angstrom), charge = 0, multiplicity = 1:

    O           -0.984082947518     2.409570919708     1.257892301132
    C           -0.708388238776     1.288570610876     1.538353113552
    C            0.508855121830     0.609143087137     0.943932151819
    C           -1.558470479453     0.479920395916     2.489785668806
    C            0.170992392600    -0.067871092894    -0.390496057047
    H            0.903120793393    -0.125003821854     1.639136500859
    H            1.263364912152     1.368931967444     0.786774158340
    C            1.385784739853    -0.748967528550    -1.017590611561
    H           -0.622284363180    -0.792131120457    -0.238210658139
    H           -0.217586458562     0.682513414411    -1.071126575080
    C            1.131720048702    -1.360025621078    -2.396606785971
    H            1.752730699499    -1.521202439334    -0.345345357024
    H            2.184121971295    -0.017919507383    -1.105537231045
    C            0.162746174884    -2.539859940767    -2.403879220519
    H            2.082783744701    -1.688554404325    -2.803692314197
    H            0.765860051120    -0.588067993708    -3.067958259592
    H            0.498756897991    -3.324399916220    -1.733260415128
    H            0.086157111993    -2.966740293784    -3.397104697596
    H           -0.835299142805    -2.248432550358    -2.099362029563
    H           -1.779594133461    -0.497438265999     2.076567308078
    H           -2.474936826754     1.006408285865     2.707642322414
    H           -1.006103277124     0.321542537147     3.410627994990

  Mulliken Charges: (a.u.)
   Center  Symbol    Alpha    Beta     Spin     Total
       1     O     4.17754  4.17754  0.00000 -0.35508
       2     C     2.85826  2.85826  0.00000  0.28349
       3     C     3.09671  3.09671  0.00000 -0.19342
       4     C     3.15528  3.15528  0.00000 -0.31055
       5     C     3.10400  3.10400  0.00000 -0.20801
       6     H     0.44941  0.44941  0.00000  0.10119
       7     H     0.43856  0.43856  0.00000  0.12287
       8     C     3.09704  3.09704  0.00000 -0.19408
       9     H     0.44991  0.44991  0.00000  0.10017
      10     H     0.44125  0.44125  0.00000  0.11750
      11     C     3.09038  3.09038  0.00000 -0.18075
      12     H     0.45324  0.45324  0.00000  0.09352
      13     H     0.44640  0.44640  0.00000  0.10720
      14     C     3.15327  3.15327  0.00000 -0.30655
      15     H     0.44736  0.44736  0.00000  0.10528
      16     H     0.45225  0.45225  0.00000  0.09549
      17     H     0.45493  0.45493  0.00000  0.09013
      18     H     0.44477  0.44477  0.00000  0.11045
      19     H     0.45396  0.45396  0.00000  0.09209
      20     H     0.45120  0.45120  0.00000  0.09761
      21     H     0.43596  0.43596  0.00000  0.12808
      22     H     0.44832  0.44832  0.00000  0.10337

   Total alpha = 32.00000, Total beta = 32.00000, Total charge = -0.00000

*** Psi4 exiting successfully. Buy a developer a beer!
