  ==> Input File <==

--------------------------------------------------------------------------
set {
	reference rhf
	basis cc-pvtz
}

set_num_threads( 4 )
memory 2 gb

molecule MOL {
0 1

O	 1.692644	 -0.452331	 0.426612
C	 0.860843	 0.273204	 -0.013120
C	 -0.623368	 -0.117453	 -0.005652
C	 1.265012	 1.610564	 -0.601456
C	 -0.892588	 -1.253841	 -1.002900
C	 -1.473463	 1.100646	 -0.372896
C	 -0.981836	 -0.579025	 1.418506
H	 -0.609333	 -0.970024	 -2.010649
H	 -1.950451	 -1.487353	 -1.013175
H	 -0.360848	 -2.161259	 -0.746463
H	 -1.232203	 1.461623	 -1.364827
H	 -2.524364	 0.834451	 -0.354500
H	 -1.312381	 1.914833	 0.318657
H	 -2.035706	 -0.826342	 1.468082
H	 -0.425078	 -1.458934	 1.716857
H	 -0.788494	 0.205047	 2.140903
H	 1.058712	 2.393705	 0.119581
H	 2.325139	 1.595080	 -0.802353
H	 0.720899	 1.847984	 -1.505229

	symmetry c1
}
set optking {
	frozen_dihedral = ("
		1 2 3 5
	")
}

ee = optimize('scf')
oeprop('DIPOLE', 'QUADRUPOLE', 'MULLIKEN_CHARGES')
f=open( 'psi4out.xyz', 'w' )
f.write( "19  " )
f.write( str(ee) + "\n" )
f.write( MOL.save_string_xyz() )
f.close()
--------------------------------------------------------------------------

    Molecular point group: c1
  Charge       = 0
  Multiplicity = 1
  Basis Set: CC-PVTZ
  Basis Set:
  @DF-RHF Final Energy:  -309.16961507065008
    Total Energy =                       -309.1696150706495700
    Molecular point group: c1
  Basis Set: CC-PVTZ
  Basis Set:
  Basis Set: CC-PVTZ
  Basis Set:
  @DF-RHF Final Energy:  -309.17093035716749
    Total Energy =                       -309.1709303571677765
  Basis Set: CC-PVTZ
  Basis Set:
  Basis Set: CC-PVTZ
  Basis Set:
  @DF-RHF Final Energy:  -309.17268835071462
    Total Energy =                       -309.1726883507146795
  Basis Set: CC-PVTZ
  Basis Set:
  Basis Set: CC-PVTZ
  Basis Set:
  @DF-RHF Final Energy:  -309.17296368386411
    Total Energy =                       -309.1729636838637134
  Basis Set: CC-PVTZ
  Basis Set:
  @DF-RHF Final Energy:  -309.17305548757793
    Total Energy =                       -309.1730554875776988
  @DF-RHF Final Energy:  -309.17306882293479
    Total Energy =                       -309.1730688229349653
  @DF-RHF Final Energy:  -309.17310873917580
    Total Energy =                       -309.1731087391759161
  Basis Set: CC-PVTZ
  Basis Set:
  @DF-RHF Final Energy:  -309.17314500456052
    Total Energy =                       -309.1731450045604106
  Basis Set: CC-PVTZ
  Basis Set:
  Basis Set: CC-PVTZ
  Basis Set:
  @DF-RHF Final Energy:  -309.17315566540833
    Total Energy =                       -309.1731556654081032
  Basis Set: CC-PVTZ
  Basis Set:
  Basis Set: CC-PVTZ
  Basis Set:
  @DF-RHF Final Energy:  -309.17315685457982
    Total Energy =                       -309.1731568545796449
  Basis Set: CC-PVTZ
  Basis Set:
  Charge       = 0
  Multiplicity = 1
  Basis Set: CC-PVTZ
  Basis Set:

    Orbital Energies (a.u.)
    -----------------------

    Doubly Occupied:

       1A    -20.536394     2A    -11.318512     3A    -11.245500
       4A    -11.226079     5A    -11.220041     6A    -11.217394
       7A    -11.211095     8A     -1.398323     9A     -1.109118
      10A     -1.004716    11A     -0.943691    12A     -0.938771
      13A     -0.834090    14A     -0.705677    15A     -0.666885
      16A     -0.633703    17A     -0.623938    18A     -0.589561
      19A     -0.586896    20A     -0.572970    21A     -0.552066
      22A     -0.546852    23A     -0.523734    24A     -0.514806
      25A     -0.502984    26A     -0.473015    27A     -0.462799
      28A     -0.393788

  @DF-RHF Final Energy:  -309.17315693955328

   => Energetics <=

    Nuclear Repulsion Energy =            326.8172284061079722
    One-Electron Energy =               -1066.8739789053320237
    Two-Electron Energy =                 430.8835935596708850
    DFT Exchange-Correlation Energy =       0.0000000000000000
    Empirical Dispersion Energy =           0.0000000000000000
    PCM Polarization Energy =               0.0000000000000000
    EFP Energy =                            0.0000000000000000
    Total Energy =                       -309.1731569395532233
    Molecular point group: c1
  Basis Set: CC-PVTZ
  Basis Set:

  -Total Gradient:
     Atom            X                  Y                   Z
    ------   -----------------  -----------------  -----------------
       1        0.000060749873    -0.000452861876    -0.000966808350
       2       -0.000052258271     0.000462472979     0.001478376512
       3       -0.000150934320     0.000489291302    -0.001065605413
       4       -0.000006805030     0.000014541286     0.000026220411
       5        0.000139411989    -0.000512388954     0.000544790554
       6       -0.000008583002     0.000010809020    -0.000000170968
       7        0.000010420548    -0.000001372509    -0.000006493854
       8        0.000001863514     0.000002261307     0.000000409391
       9        0.000004438209     0.000005244239     0.000004809075
      10        0.000001993309    -0.000008967183    -0.000001655845
      11       -0.000001627997     0.000000614031    -0.000000127975
      12        0.000002609650    -0.000000352373     0.000000661347
      13       -0.000001929056     0.000003453138    -0.000000666495
      14       -0.000000853637    -0.000002348016     0.000000385699
      15        0.000001036334    -0.000003200047     0.000003240892
      16        0.000000628786    -0.000000844366    -0.000002978849
      17        0.000004654832     0.000008031936    -0.000005554379
      18       -0.000002089511    -0.000006799951    -0.000005428372
      19       -0.000002726219    -0.000007583965    -0.000003403377

  **** Optimization is complete! (in 11 steps) ****
    Final optimized geometry and variables:
    Molecular point group: c1

    Geometry (in Angstrom), charge = 0, multiplicity = 1:

    O            1.676809101263    -0.597238940186     0.429030251723
    C            0.887445550163     0.182711542741     0.003188289352
    C           -0.614835516057    -0.153094765871     0.039431678283
    C            1.362877265257     1.476573896297    -0.619299196734
    C           -0.835806580700    -1.275505863051    -0.988729895109
    C           -1.516497560301     1.039375002273    -0.297022842413
    C           -0.957048815484    -0.670379470792     1.443095107453
    H           -0.582027291276    -0.951165848245    -1.992918132627
    H           -1.877530745388    -1.575053780280    -0.992879404620
    H           -0.229487224006    -2.138081072413    -0.749673104901
    H           -1.339061007997     1.422219943559    -1.294347110347
    H           -2.554300950382     0.732216874115    -0.248309240076
    H           -1.386970323959     1.854533963059     0.405497472989
    H           -1.997134028304    -0.973701931609     1.482914943196
    H           -0.338846601168    -1.516179193937     1.704452538184
    H           -0.806631712064     0.099703340163     2.192190900551
    H            0.960844385392     2.330810004148    -0.088572017288
    H            2.440848839487     1.503174160031    -0.586792965732
    H            1.028551011128     1.549847835396    -1.647613170882

  Mulliken Charges: (a.u.)
   Center  Symbol    Alpha    Beta     Spin     Total
       1     O     4.18130  4.18130  0.00000 -0.36261
       2     C     2.84638  2.84638  0.00000  0.30723
       3     C     3.00577  3.00577  0.00000 -0.01154
       4     C     3.16304  3.16304  0.00000 -0.32608
       5     C     3.15356  3.15356  0.00000 -0.30713
       6     C     3.16547  3.16547  0.00000 -0.33094
       7     C     3.15355  3.15355  0.00000 -0.30710
       8     H     0.44960  0.44960  0.00000  0.10079
       9     H     0.44894  0.44894  0.00000  0.10212
      10     H     0.43707  0.43707  0.00000  0.12586
      11     H     0.44569  0.44569  0.00000  0.10863
      12     H     0.44251  0.44251  0.00000  0.11498
      13     H     0.44532  0.44532  0.00000  0.10935
      14     H     0.45090  0.45090  0.00000  0.09821
      15     H     0.43492  0.43492  0.00000  0.13016
      16     H     0.45028  0.45028  0.00000  0.09944
      17     H     0.44709  0.44709  0.00000  0.10582
      18     H     0.43172  0.43172  0.00000  0.13655
      19     H     0.44688  0.44688  0.00000  0.10624

   Total alpha = 28.00000, Total beta = 28.00000, Total charge =  0.00000
