                              Psi4 1.0.54 Driver

  ==> Input File <==

--------------------------------------------------------------------------
set {
	reference rhf
	basis cc-pvtz
}

set_num_threads( 4 )
memory 2 gb

molecule MOL {
0 1

H	 -3.162190	 0.493205	 -0.000107
C	 -2.363908	 -0.234727	 0.000005
O	 -1.158738	 0.454634	 -0.000087
H	 -2.464314	 -0.863616	 -0.882153
H	 -2.464327	 -0.863359	 0.882345
C	 -0.028611	 -0.359694	 0.000037
C	 1.212847	 0.509314	 -0.000053
H	 -0.034155	 -1.007047	 -0.877198
H	 -0.034195	 -1.006836	 0.877430
C	 1.248110	 1.474492	 1.179582
H	 2.085203	 -0.134580	 0.017906
H	 1.249363	 1.059349	 -0.933905
H	 1.236845	 0.943315	 2.125526
H	 2.144372	 2.082050	 1.154900
H	 0.395593	 2.145409	 1.167191

	symmetry c1
}
set optking {
	frozen_dihedral = ("
		11 7 6 8
	")
}

ee,wfn = optimize('scf', return_wfn=True)
oeprop( wfn, 'DIPOLE', 'QUADRUPOLE', 'MULLIKEN_CHARGES')
f=open( 'psi4out.xyz', 'w' )
f.write( "15  " )
f.write( str(ee) + "\n" )
f.write( MOL.save_string_xyz() )
f.close()
--------------------------------------------------------------------------

    Molecular point group: c1
  Charge       = 0
  Multiplicity = 1
  Basis Set: CC-PVTZ
  Basis Set:
  @DF-RHF Final Energy:  -232.22783053661149
    Total Energy =                       -232.2278305366114637
    Molecular point group: c1
  Basis Set: CC-PVTZ
  Basis Set:
  Basis Set: CC-PVTZ
  Basis Set:
  @DF-RHF Final Energy:  -232.22797707578442
    Total Energy =                       -232.2279770757843380
  Basis Set: CC-PVTZ
  Basis Set:
  Basis Set: CC-PVTZ
  Basis Set:
  @DF-RHF Final Energy:  -232.22802104946098
    Total Energy =                       -232.2280210494609491
  Basis Set: CC-PVTZ
  Basis Set:
  Charge       = 0
  Multiplicity = 1
  Basis Set: CC-PVTZ
  Basis Set:

    Orbital Energies (a.u.)
    -----------------------

    Doubly Occupied:

       1A    -20.547903     2A    -11.264932     3A    -11.262294
       4A    -11.213791     5A    -11.201524     6A     -1.382261
       7A     -1.055067     8A     -0.951098     9A     -0.887317
      10A     -0.798575    11A     -0.672908    12A     -0.662646
      13A     -0.634927    14A     -0.594473    15A     -0.564641
      16A     -0.546449    17A     -0.501895    18A     -0.484170
      19A     -0.478560    20A     -0.460368    21A     -0.416391

  @DF-RHF Final Energy:  -232.22802181039233

   => Energetics <=

    Nuclear Repulsion Energy =            193.1843065078619190
    One-Electron Energy =                -697.6602804805163487
    Two-Electron Energy =                 272.2479521622619814
    DFT Exchange-Correlation Energy =       0.0000000000000000
    Empirical Dispersion Energy =           0.0000000000000000
    PCM Polarization Energy =               0.0000000000000000
    EFP Energy =                            0.0000000000000000
    Total Energy =                       -232.2280218103924199
    Molecular point group: c1
  Basis Set: CC-PVTZ
  Basis Set:

  -Total Gradient:
     Atom            X                  Y                   Z
    ------   -----------------  -----------------  -----------------
       1        0.000001480654    -0.000007381817     0.000002959727
       2       -0.000041859364    -0.000013929335    -0.000027088653
       3        0.000071852871    -0.000046289970    -0.000020859161
       4       -0.000010987302    -0.000001800802     0.000008692262
       5        0.000011136186     0.000010008305    -0.000003922399
       6        0.000913079521    -0.001285162397     0.001436530029
       7       -0.000121770005     0.000250339340    -0.002133494819
       8       -0.000780225177     0.001133894365    -0.000813775666
       9        0.000006217923    -0.000025340782     0.000005527115
      10       -0.000052056173    -0.000004817528    -0.000008869603
      11       -0.000000844874     0.000014495721     0.001547843031
      12        0.000002939766    -0.000003247148     0.000002941260
      13        0.000006150778    -0.000002681571     0.000009113743
      14       -0.000018927816    -0.000028526131    -0.000017717541
      15        0.000013813010     0.000010439748     0.000012120673

  **** Optimization is complete! (in 4 steps) ****
    Final optimized geometry and variables:
    Molecular point group: c1

    Geometry (in Angstrom), charge = 0, multiplicity = 1:

    H           -2.924973523044     0.100497281562    -0.256512372613
    C           -2.117412025041    -0.617134688100    -0.240860597770
    O           -0.920786143941     0.086176455134    -0.245920687243
    H           -2.205682237784    -1.261421453012    -1.113287158650
    H           -2.214573082307    -1.233020739124     0.650813932997
    C            0.220089983229    -0.715603405070    -0.228558526210
    C            1.459649504608     0.158925776398    -0.239148734545
    H            0.219566792562    -1.365099845018    -1.102937587869
    H            0.214566498997    -1.351583412962     0.656921441474
    C            1.533057728187     1.125293005366     0.938941297856
    H            2.325951615256    -0.496098321261    -0.220391764080
    H            1.492617779812     0.710592894862    -1.172415764472
    H            1.520112999960     0.589731871966     1.883032633112
    H            2.447240576473     1.706411632432     0.901436189622
    H            0.696153070761     1.810018339612     0.933263141898

  Mulliken Charges: (a.u.)
   Center  Symbol    Alpha    Beta     Spin     Total
       1     H     0.44730  0.44730  0.00000  0.10541
       2     C     3.03134  3.03134  0.00000 -0.06268
       3     O     4.17489  4.17489  0.00000 -0.34979
       4     H     0.47158  0.47158  0.00000  0.05684
       5     H     0.47223  0.47223  0.00000  0.05553
       6     C     2.97242  2.97242  0.00000  0.05515
       7     C     3.08075  3.08075  0.00000 -0.16149
       8     H     0.46554  0.46554  0.00000  0.06891
       9     H     0.47237  0.47237  0.00000  0.05525
      10     C     3.14820  3.14820  0.00000 -0.29640
      11     H     0.45588  0.45588  0.00000  0.08824
      12     H     0.45258  0.45258  0.00000  0.09483
      13     H     0.45889  0.45889  0.00000  0.08223
      14     H     0.45102  0.45102  0.00000  0.09797
      15     H     0.44499  0.44499  0.00000  0.11002

   Total alpha = 21.00000, Total beta = 21.00000, Total charge = -0.00000

*** Psi4 exiting successfully. Buy a developer a beer!
