                              Psi4 1.0.54 Driver

  ==> Input File <==

--------------------------------------------------------------------------
set {
	reference rhf
	basis cc-pvtz
}

set_num_threads( 4 )
memory 2 gb

molecule MOL {
0 1

H	 3.563313	 -0.926477	 0.675163
O	 2.824271	 -1.154299	 0.131461
C	 2.076458	 -0.067370	 -0.038225
C	 0.626018	 -0.337582	 0.258241
O	 2.538288	 0.965419	 -0.381593
C	 -0.267326	 0.883135	 0.076490
H	 0.325620	 -1.161483	 -0.378003
H	 0.574537	 -0.713685	 1.275261
C	 -1.726822	 0.642622	 0.463839
H	 -0.210803	 1.217591	 -0.953497
H	 0.129920	 1.693110	 0.675679
C	 -2.480891	 -0.340606	 -0.429852
H	 -2.243098	 1.597649	 0.438609
H	 -1.776542	 0.301208	 1.495542
C	 -3.955933	 -0.460128	 -0.060472
H	 -2.393755	 -0.020485	 -1.464726
H	 -2.024244	 -1.323637	 -0.374360
H	 -4.467673	 -1.160944	 -0.709827
H	 -4.458917	 0.497287	 -0.144505
H	 -4.076458	 -0.806900	 0.960497

	symmetry c1
}
set optking {
	frozen_dihedral = ("
		1 2 3 5
	")
}

ee,wfn = optimize('scf', return_wfn=True)
oeprop( wfn, 'DIPOLE', 'QUADRUPOLE', 'MULLIKEN_CHARGES')
f=open( 'psi4out.xyz', 'w' )
f.write( "20  " )
f.write( str(ee) + "\n" )
f.write( MOL.save_string_xyz() )
f.close()
--------------------------------------------------------------------------

    Molecular point group: c1
  Charge       = 0
  Multiplicity = 1
  Basis Set: CC-PVTZ
  Basis Set:
  @DF-RHF Final Energy:  -384.08318722189733
    Total Energy =                       -384.0831872218965941
    Molecular point group: c1
  Basis Set: CC-PVTZ
  Basis Set:
  Basis Set: CC-PVTZ
  Basis Set:
  @DF-RHF Final Energy:  -384.08088294375466
    Total Energy =                       -384.0808829437541476
  Basis Set: CC-PVTZ
  Basis Set:
  Basis Set: CC-PVTZ
  Basis Set:
  @DF-RHF Final Energy:  -384.08415491396528
    Total Energy =                       -384.0841549139657900
  Basis Set: CC-PVTZ
  Basis Set:
  Basis Set: CC-PVTZ
  Basis Set:
  @DF-RHF Final Energy:  -384.08424382632234
    Total Energy =                       -384.0842438263217673
  Basis Set: CC-PVTZ
  Basis Set:
  @DF-RHF Final Energy:  -384.08425167020602
    Total Energy =                       -384.0842516702059584
  @DF-RHF Final Energy:  -384.08425359960529
    Total Energy =                       -384.0842535996055176
  @DF-RHF Final Energy:  -384.08423975214123
    Total Energy =                       -384.0842397521410021
  @DF-RHF Final Energy:  -384.07388504775514
    Total Energy =                       -384.0738850477546293
  @DF-RHF Final Energy:  -384.08317938773797
    Total Energy =                       -384.0831793877379710
  @DF-RHF Final Energy:  -384.08365746872914
    Total Energy =                       -384.0836574687294274
  Basis Set: CC-PVTZ
  Basis Set:
  @DF-RHF Final Energy:  -384.08423242606762
    Total Energy =                       -384.0842324260671603
  Basis Set: CC-PVTZ
  Basis Set:
  Basis Set: CC-PVTZ
  Basis Set:
  @DF-RHF Final Energy:  -384.08425235171302
    Total Energy =                       -384.0842523517130758
  Basis Set: CC-PVTZ
  Basis Set:
  Basis Set: CC-PVTZ
  Basis Set:
  @DF-RHF Final Energy:  -384.08425383179372
    Total Energy =                       -384.0842538317932622
  Basis Set: CC-PVTZ
  Basis Set:
  Charge       = 0
  Multiplicity = 1
  Basis Set: CC-PVTZ
  Basis Set:

    Orbital Energies (a.u.)
    -----------------------

    Doubly Occupied:

       1A    -20.594005     2A    -20.545762     3A    -11.373811
       4A    -11.238512     5A    -11.220987     6A    -11.218919
       7A    -11.218250     8A    -11.210614     9A     -1.468555
      10A     -1.370022    11A     -1.097311    12A     -1.041508
      13A     -0.961142    14A     -0.868595    15A     -0.817071
      16A     -0.780045    17A     -0.707898    18A     -0.687391
      19A     -0.661005    20A     -0.640721    21A     -0.610425
      22A     -0.587590    23A     -0.571698    24A     -0.557243
      25A     -0.532013    26A     -0.516140    27A     -0.494893
      28A     -0.492217    29A     -0.471100    30A     -0.466952
      31A     -0.458448    32A     -0.445981

  @DF-RHF Final Energy:  -384.08425413050571

   => Energetics <=

    Nuclear Repulsion Energy =            376.1581493565070673
    One-Electron Energy =               -1268.6311603798153556
    Two-Electron Energy =                 508.3887568928027463
    DFT Exchange-Correlation Energy =       0.0000000000000000
    Empirical Dispersion Energy =           0.0000000000000000
    PCM Polarization Energy =               0.0000000000000000
    EFP Energy =                            0.0000000000000000
    Total Energy =                       -384.0842541305055988
    Molecular point group: c1
  Basis Set: CC-PVTZ
  Basis Set:

  -Total Gradient:
     Atom            X                  Y                   Z
    ------   -----------------  -----------------  -----------------
       1       -0.005298000162    -0.002817538657     0.009384957030
       2        0.005646976881     0.002533398994    -0.016009461358
       3        0.001677003094     0.002417526800     0.015921104975
       4        0.000016313719     0.000000510650     0.000104879388
       5       -0.002024917061    -0.002118060221    -0.009362549617
       6        0.000008484386     0.000000430752    -0.000013854707
       7       -0.000010695891    -0.000014186789    -0.000017564870
       8       -0.000010559104    -0.000014237445    -0.000016118482
       9        0.000009804159    -0.000008161383     0.000016070807
      10       -0.000003961296    -0.000002209500     0.000010082898
      11       -0.000006705825     0.000010928867     0.000000284411
      12       -0.000010223765     0.000017929301    -0.000026582433
      13        0.000003210073     0.000001678097    -0.000002629494
      14        0.000000435490     0.000003249845     0.000005938086
      15        0.000007170219    -0.000010409945     0.000011992148
      16       -0.000000941628     0.000000335952    -0.000011761719
      17       -0.000005440362     0.000000848330     0.000003213000
      18        0.000003048456    -0.000003853647     0.000001473839
      19        0.000004172619    -0.000000238106    -0.000004781775
      20       -0.000005174003     0.000002058107     0.000005307871

  **** Optimization is complete! (in 14 steps) ****
    Final optimized geometry and variables:
    Molecular point group: c1

    Geometry (in Angstrom), charge = 0, multiplicity = 1:

    H            3.617550521717    -0.965445864312     0.617669562389
    O            2.832664261448    -1.134109743578     0.121679462056
    C            2.082089736226    -0.019027280716     0.029901374515
    C            0.628638691286    -0.300463374972     0.297978294657
    O            2.532045655958     1.014510000983    -0.312138416445
    C           -0.285629285873     0.889485278457     0.037061374145
    H            0.364958059733    -1.161998583001    -0.304021613522
    H            0.556602366791    -0.631896934816     1.330209176296
    C           -1.749665030018     0.635239918611     0.398023709280
    H           -0.209054709510     1.176388389046    -1.006094155809
    H            0.078404170906     1.735664811466     0.606709662086
    C           -2.459858242622    -0.403102256031    -0.468990761586
    H           -2.284695222672     1.576744097923     0.316834389120
    H           -1.819311486972     0.339284731726     1.442647633669
    C           -3.939280856763    -0.544653562022    -0.125569046114
    H           -2.357872356406    -0.124370458689    -1.514417240221
    H           -1.980477532345    -1.370993653288    -0.362701871354
    H           -4.418514354399    -1.287212804713    -0.752944280699
    H           -4.464454284323     0.394403832061    -0.263737278252
    H           -4.073799910502    -0.848187905391     0.907399006729

  Mulliken Charges: (a.u.)
   Center  Symbol    Alpha    Beta     Spin     Total
       1     H     0.38149  0.38149  0.00000  0.23703
       2     O     4.17268  4.17268  0.00000 -0.34536
       3     C     2.80280  2.80280  0.00000  0.39439
       4     C     3.11192  3.11192  0.00000 -0.22384
       5     O     4.17531  4.17531  0.00000 -0.35062
       6     C     3.09462  3.09462  0.00000 -0.18925
       7     H     0.43627  0.43627  0.00000  0.12747
       8     H     0.44247  0.44247  0.00000  0.11506
       9     C     3.09892  3.09892  0.00000 -0.19784
      10     H     0.44528  0.44528  0.00000  0.10944
      11     H     0.43944  0.43944  0.00000  0.12113
      12     C     3.08671  3.08671  0.00000 -0.17341
      13     H     0.44555  0.44555  0.00000  0.10889
      14     H     0.45442  0.45442  0.00000  0.09117
      15     C     3.14955  3.14955  0.00000 -0.29910
      16     H     0.45224  0.45224  0.00000  0.09551
      17     H     0.45406  0.45406  0.00000  0.09187
      18     H     0.44759  0.44759  0.00000  0.10482
      19     H     0.45363  0.45363  0.00000  0.09273
      20     H     0.45505  0.45505  0.00000  0.08991

   Total alpha = 32.00000, Total beta = 32.00000, Total charge =  0.00000

*** Psi4 exiting successfully. Buy a developer a beer!
