  ==> Input File <==

--------------------------------------------------------------------------
set {
	reference rhf
	basis 6-31G*
}

set_num_threads( 4 )
memory 2 gb

molecule MOL {
0 1

H	 -2.825556	 -0.600416	 0.014903
N	 -1.882491	 -0.449761	 0.316408
C	 -1.296345	 0.685343	 -0.374299
H	 -1.363331	 -1.278043	 0.098390
C	 0.140153	 0.873256	 0.066495
H	 -1.313350	 0.594325	 -1.461234
H	 -1.857223	 1.577607	 -0.113412
O	 0.874168	 -0.245412	 -0.342030
H	 0.555701	 1.776794	 -0.379125
H	 0.180143	 0.976134	 1.148646
C	 2.202317	 -0.244239	 0.074611
H	 2.711377	 -1.041390	 -0.449894
H	 2.692099	 0.699270	 -0.159667
H	 2.283185	 -0.418429	 1.145558

	symmetry c1
}
set optking {
	frozen_dihedral = ("
		5 8 11 13
	")
}

ee = optimize('scf')
oeprop('DIPOLE', 'QUADRUPOLE', 'MULLIKEN_CHARGES')
f=open( 'psi4out.xyz', 'w' )
f.write( "14  " )
f.write( str(ee) + "\n" )
f.write( MOL.save_string_xyz() )
f.close()
--------------------------------------------------------------------------

    Molecular point group: c1
  Charge       = 0
  Multiplicity = 1
  Basis Set: 6-31G*
  Basis Set:
  @DF-RHF Final Energy:  -248.12496782096153
    Total Energy =                       -248.1249678209615581
    Molecular point group: c1
  Basis Set: 6-31G*
  Basis Set:
  Basis Set: 6-31G*
  Basis Set:
  @DF-RHF Final Energy:  -248.12497911971414
    Total Energy =                       -248.1249791197143395
  Basis Set: 6-31G*
  Basis Set:
  Charge       = 0
  Multiplicity = 1
  Basis Set: 6-31G*
  Basis Set:

    Orbital Energies (a.u.)
    -----------------------

    Doubly Occupied:

       1A    -20.557178     2A    -15.528455     3A    -11.266229
       4A    -11.265689     5A    -11.240783     6A     -1.381145
       7A     -1.173606     8A     -0.998988     9A     -0.907236
      10A     -0.815270    11A     -0.683919    12A     -0.673639
      13A     -0.645256    14A     -0.610023    15A     -0.605086
      16A     -0.540847    17A     -0.530283    18A     -0.497052
      19A     -0.472939    20A     -0.416948    21A     -0.380109

  @DF-RHF Final Energy:  -248.12498130662706

   => Energetics <=

    Nuclear Repulsion Energy =            194.6668015384279045
    One-Electron Energy =                -723.2022028229375792
    Two-Electron Energy =                 280.4104199778826683
    DFT Exchange-Correlation Energy =       0.0000000000000000
    Empirical Dispersion Energy =           0.0000000000000000
    PCM Polarization Energy =               0.0000000000000000
    EFP Energy =                            0.0000000000000000
    Total Energy =                       -248.1249813066270349
    Molecular point group: c1
  Basis Set: 6-31G*
  Basis Set:

  -Total Gradient:
     Atom            X                  Y                   Z
    ------   -----------------  -----------------  -----------------
       1        0.000008015652    -0.000004792893    -0.000000518744
       2       -0.000010810636     0.000005216675     0.000000543444
       3        0.000018190686    -0.000032714952     0.000010558725
       4        0.000000008083    -0.000002477947    -0.000006414475
       5        0.000353927505     0.000645420792    -0.001079635544
       6        0.000006268273    -0.000000056608     0.000003591592
       7        0.000014027586     0.000001981304     0.000007279603
       8       -0.000635679575    -0.000725292347     0.001885325694
       9        0.000000256560    -0.000001520669     0.000004127488
      10       -0.000003581734    -0.000005801295    -0.000000856556
      11        0.000672418442    -0.000443506500    -0.002240327348
      12       -0.000010504708    -0.000023682034    -0.000011447448
      13       -0.000434288458     0.000567730830     0.001446345588
      14        0.000021752321     0.000019495643    -0.000018572019

  **** Optimization is complete! (in 3 steps) ****
    Final optimized geometry and variables:
    Molecular point group: c1

    Geometry (in Angstrom), charge = 0, multiplicity = 1:

    H           -2.841887626899    -0.706085664260     0.070468028859
    N           -1.898369760240    -0.555770304803     0.370601908574
    C           -1.313289651938     0.580581535787    -0.319079159125
    H           -1.379615036979    -1.383686565322     0.150263098573
    C            0.123422708945     0.769312235156     0.120480319037
    H           -1.330849986235     0.490742644705    -1.406096881600
    H           -1.874471036640     1.472209171690    -0.056829500457
    O            0.857438201524    -0.348070690513    -0.291444763273
    H            0.538740494424     1.672954476567    -0.324655056202
    H            0.163517921962     0.871453285577     1.202797952921
    C            2.185875869931    -0.350098161603     0.126121083393
    H            2.694606298514    -1.151610825871    -0.391741841761
    H            2.677283097197     0.593248042992    -0.103789464085
    H            2.261816116002    -0.517417874415     1.198731057629

  Mulliken Charges: (a.u.)
   Center  Symbol    Alpha    Beta     Spin     Total
       1     H     0.33282  0.33282  0.00000  0.33435
       2     N     3.92524  3.92524  0.00000 -0.85049
       3     C     3.06892  3.06892  0.00000 -0.13784
       4     H     0.32374  0.32374  0.00000  0.35251
       5     C     2.99026  2.99026  0.00000  0.01949
       6     H     0.42661  0.42661  0.00000  0.14679
       7     H     0.42047  0.42047  0.00000  0.15906
       8     O     4.30996  4.30996  0.00000 -0.61992
       9     H     0.43067  0.43067  0.00000  0.13867
      10     H     0.42276  0.42276  0.00000  0.15448
      11     C     3.07873  3.07873  0.00000 -0.15747
      12     H     0.41271  0.41271  0.00000  0.17457
      13     H     0.43048  0.43048  0.00000  0.13904
      14     H     0.42662  0.42662  0.00000  0.14676

   Total alpha = 21.00000, Total beta = 21.00000, Total charge =  0.00000
