                              Psi4 1.0.54 Driver

  ==> Input File <==

--------------------------------------------------------------------------
set {
	reference rhf
	basis cc-pvtz
}

set_num_threads( 4 )
memory 2 gb

molecule MOL {
0 1

H	 2.010674	 -0.752985	 -0.693518
O	 1.189535	 -0.697636	 -0.241510
C	 0.700177	 0.619554	 -0.266242
C	 -0.713111	 0.588314	 0.266177
H	 0.697260	 1.008124	 -1.280111
H	 1.309386	 1.271777	 0.354119
O	 -1.421673	 -0.521378	 -0.196983
H	 -1.244794	 1.469161	 -0.069059
H	 -0.685100	 0.604721	 1.352683
H	 -0.933408	 -1.297830	 0.014544

	symmetry c1
}
set optking {
	frozen_dihedral = ("
		5 3 4 7
	")
}

ee,wfn = optimize('scf', return_wfn=True)
oeprop( wfn, 'DIPOLE', 'QUADRUPOLE', 'MULLIKEN_CHARGES')
f=open( 'psi4out.xyz', 'w' )
f.write( "10  " )
f.write( str(ee) + "\n" )
f.write( MOL.save_string_xyz() )
f.close()
--------------------------------------------------------------------------

    Molecular point group: c1
  Charge       = 0
  Multiplicity = 1
  Basis Set: CC-PVTZ
  Basis Set:
  @DF-RHF Final Energy:  -229.02533164254712
    Total Energy =                       -229.0253316425469734
    Molecular point group: c1
  Basis Set: CC-PVTZ
  Basis Set:
  Basis Set: CC-PVTZ
  Basis Set:
  @DF-RHF Final Energy:  -229.02589146553765
    Total Energy =                       -229.0258914655377112
  Basis Set: CC-PVTZ
  Basis Set:
  Basis Set: CC-PVTZ
  Basis Set:
  @DF-RHF Final Energy:  -229.02636353811866
    Total Energy =                       -229.0263635381187441
  Basis Set: CC-PVTZ
  Basis Set:
  Basis Set: CC-PVTZ
  Basis Set:
  @DF-RHF Final Energy:  -229.02637595622843
    Total Energy =                       -229.0263759562285202
  Basis Set: CC-PVTZ
  Basis Set:
  Basis Set: CC-PVTZ
  Basis Set:
  @DF-RHF Final Energy:  -229.02638095320449
    Total Energy =                       -229.0263809532044661
  Basis Set: CC-PVTZ
  Basis Set:
  Basis Set: CC-PVTZ
  Basis Set:
  @DF-RHF Final Energy:  -229.02638320705756
    Total Energy =                       -229.0263832070575916
  Basis Set: CC-PVTZ
  Basis Set:
  Charge       = 0
  Multiplicity = 1
  Basis Set: CC-PVTZ
  Basis Set:

    Orbital Energies (a.u.)
    -----------------------

    Doubly Occupied:

       1A    -20.565520     2A    -20.538461     3A    -11.276694
       4A    -11.267032     5A     -1.390354     6A     -1.353479
       7A     -1.002927     8A     -0.846114     9A     -0.731914
      10A     -0.682562    11A     -0.655220    12A     -0.601364
      13A     -0.581058    14A     -0.539940    15A     -0.491294
      16A     -0.457246    17A     -0.430658

  @DF-RHF Final Energy:  -229.02638356488268

   => Energetics <=

    Nuclear Repulsion Energy =            135.0325341674591186
    One-Electron Energy =                -581.2941630590303248
    Two-Electron Energy =                 217.2352453266884993
    DFT Exchange-Correlation Energy =       0.0000000000000000
    Empirical Dispersion Energy =           0.0000000000000000
    PCM Polarization Energy =               0.0000000000000000
    EFP Energy =                            0.0000000000000000
    Total Energy =                       -229.0263835648827069
    Molecular point group: c1
  Basis Set: CC-PVTZ
  Basis Set:

  -Total Gradient:
     Atom            X                  Y                   Z
    ------   -----------------  -----------------  -----------------
       1       -0.000001348866    -0.000011511534     0.000008219781
       2       -0.000025985585     0.000102772914    -0.000012551954
       3       -0.000450654980    -0.008607758477    -0.001334197531
       4       -0.002058693814     0.005101788291    -0.004878629611
       5        0.000849362998     0.006035503871     0.002182699060
       6       -0.000002838495     0.000016099699     0.000007192017
       7        0.001689388141    -0.002629462445     0.004015562114
       8       -0.000003305819     0.000013290937     0.000005405551
       9        0.000002653175     0.000003394116     0.000002292989
      10        0.000001423243    -0.000024117370     0.000004007584

  **** Optimization is complete! (in 7 steps) ****
    Final optimized geometry and variables:
    Molecular point group: c1

    Geometry (in Angstrom), charge = 0, multiplicity = 1:

    H            2.095155479765    -0.706871421098    -0.531047319577
    O            1.258085175007    -0.654952200242    -0.109162933408
    C            0.739849852773     0.643514366453    -0.196314423706
    C           -0.666882059452     0.634735209048     0.380795211105
    H            0.732929134796     1.016846852683    -1.216344108171
    H            1.343540833530     1.337373947029     0.384438495881
    O           -1.408690465729    -0.467339529367    -0.040377230794
    H           -1.191015440703     1.529708906382     0.073519297429
    H           -0.601670992278     0.643962181828     1.466499991152
    H           -0.857538774289    -1.229335001391    -0.000336563189

  Mulliken Charges: (a.u.)
   Center  Symbol    Alpha    Beta     Spin     Total
       1     H     0.39079  0.39079  0.00000  0.21842
       2     O     4.20444  4.20444  0.00000 -0.40888
       3     C     2.96854  2.96854  0.00000  0.06291
       4     C     2.96055  2.96055  0.00000  0.07889
       5     H     0.47315  0.47315  0.00000  0.05370
       6     H     0.47409  0.47409  0.00000  0.05181
       7     O     4.20975  4.20975  0.00000 -0.41949
       8     H     0.46059  0.46059  0.00000  0.07882
       9     H     0.47498  0.47498  0.00000  0.05004
      10     H     0.38312  0.38312  0.00000  0.23377

   Total alpha = 17.00000, Total beta = 17.00000, Total charge =  0.00000

*** Psi4 exiting successfully. Buy a developer a beer!
