  ==> Input File <==

--------------------------------------------------------------------------
set {
	reference rhf
	basis cc-pvtz
}

set_num_threads( 4 )
memory 2 gb

molecule MOL {
0 1

H	 -1.945446	 1.447213	 0.156575
C	 -1.976437	 0.414521	 -0.175433
O	 -0.775228	 0.000056	 -0.739966
H	 -2.728278	 0.332090	 -0.947503
H	 -2.280292	 -0.208581	 0.659461
C	 0.406133	 -0.000384	 0.036994
C	 1.526415	 -0.003194	 -0.997339
C	 0.498772	 1.259027	 0.900673
C	 0.495883	 -1.257378	 0.904465
H	 1.452279	 0.872071	 -1.630204
H	 1.451276	 -0.881020	 -1.626529
H	 2.497919	 -0.002741	 -0.517601
H	 0.368981	 2.144239	 0.289753
H	 1.470064	 1.313479	 1.377660
H	 -0.248448	 1.271586	 1.684297
H	 0.363971	 -2.144195	 0.296316
H	 1.467114	 -1.312636	 1.381470
H	 -0.251246	 -1.265768	 1.688235

	symmetry c1
}
set optking {
	frozen_dihedral = ("
		2 3 6 7
	")
}

ee = optimize('scf')
oeprop('DIPOLE', 'QUADRUPOLE', 'MULLIKEN_CHARGES')
f=open( 'psi4out.xyz', 'w' )
f.write( "18  " )
f.write( str(ee) + "\n" )
f.write( MOL.save_string_xyz() )
f.close()
--------------------------------------------------------------------------

    Molecular point group: c1
  Charge       = 0
  Multiplicity = 1
  Basis Set: CC-PVTZ
  Basis Set:
  @DF-RHF Final Energy:  -271.27550485127853
    Total Energy =                       -271.2755048512786971
    Molecular point group: c1
  Basis Set: CC-PVTZ
  Basis Set:
  Basis Set: CC-PVTZ
  Basis Set:
  @DF-RHF Final Energy:  -271.27596386365684
    Total Energy =                       -271.2759638636565001
  Basis Set: CC-PVTZ
  Basis Set:
  Basis Set: CC-PVTZ
  Basis Set:
  @DF-RHF Final Energy:  -271.27606580088798
    Total Energy =                       -271.2760658008878636
  Basis Set: CC-PVTZ
  Basis Set:
  Basis Set: CC-PVTZ
  Basis Set:
  @DF-RHF Final Energy:  -271.27608724596763
    Total Energy =                       -271.2760872459675738
  Basis Set: CC-PVTZ
  Basis Set:
  Basis Set: CC-PVTZ
  Basis Set:
  @DF-RHF Final Energy:  -271.27611605769039
    Total Energy =                       -271.2761160576902739
  Basis Set: CC-PVTZ
  Basis Set:
  Basis Set: CC-PVTZ
  Basis Set:
  @DF-RHF Final Energy:  -271.27611737483596
    Total Energy =                       -271.2761173748358488
  Basis Set: CC-PVTZ
  Basis Set:
  Charge       = 0
  Multiplicity = 1
  Basis Set: CC-PVTZ
  Basis Set:

    Orbital Energies (a.u.)
    -----------------------

    Doubly Occupied:

       1A    -20.539955     2A    -11.280199     3A    -11.258705
       4A    -11.209361     5A    -11.205048     6A    -11.201934
       7A     -1.372990     8A     -1.074742     9A     -0.948615
      10A     -0.939307    11A     -0.912842    12A     -0.753250
      13A     -0.657125    14A     -0.647516    15A     -0.639604
      16A     -0.590872    17A     -0.575033    18A     -0.552815
      19A     -0.535696    20A     -0.525754    21A     -0.515345
      22A     -0.491425    23A     -0.486605    24A     -0.441573
      25A     -0.405285

  @DF-RHF Final Energy:  -271.27611788745338

   => Energetics <=

    Nuclear Repulsion Energy =            272.6748903995772366
    One-Electron Energy =                -908.3788247013901582
    Two-Electron Energy =                 364.4278164143597110
    DFT Exchange-Correlation Energy =       0.0000000000000000
    Empirical Dispersion Energy =           0.0000000000000000
    PCM Polarization Energy =               0.0000000000000000
    EFP Energy =                            0.0000000000000000
    Total Energy =                       -271.2761178874532675
    Molecular point group: c1
  Basis Set: CC-PVTZ
  Basis Set:

  -Total Gradient:
     Atom            X                  Y                   Z
    ------   -----------------  -----------------  -----------------
       1       -0.000003792652    -0.000009708451    -0.000002171944
       2        0.000387236173     0.002041234470    -0.000633022757
       3       -0.000568701498    -0.002587854140     0.000992621539
       4        0.000004573377     0.000000571101    -0.000006123509
       5        0.000008839234    -0.000012730520     0.000009312341
       6        0.000226789484    -0.001193242122    -0.000323646737
       7        0.000009109584     0.001752278289    -0.000018450898
       8        0.000010785239    -0.000001541067     0.000016137729
       9       -0.000057604104     0.000004061749    -0.000023217991
      10       -0.000005432074    -0.000003562420     0.000008706899
      11        0.000008395888    -0.000000629610    -0.000013292190
      12        0.000000666585    -0.000004972943    -0.000003765187
      13        0.000000824073     0.000002298678    -0.000003311797
      14       -0.000009027217     0.000002250949    -0.000000110577
      15       -0.000000692254    -0.000000362492     0.000003651961
      16        0.000000134844    -0.000004976052     0.000003017960
      17        0.000000008958     0.000022776850    -0.000016358331
      18       -0.000012113645    -0.000005892268     0.000010023489

  **** Optimization is complete! (in 7 steps) ****
    Final optimized geometry and variables:
    Molecular point group: c1

    Geometry (in Angstrom), charge = 0, multiplicity = 1:

    H           -2.008179313356     1.392666722152     0.044174576995
    C           -1.987098949326     0.326857395253    -0.156366277390
    O           -0.785644265024    -0.079434543786    -0.725866836810
    H           -2.764687859445     0.101191794449    -0.872401147894
    H           -2.213709691490    -0.202171075493     0.765111295638
    C            0.402290304114    -0.066324661091     0.043937836900
    C            1.524260309211    -0.063938919271    -0.988575470372
    C            0.514409748390     1.184372300852     0.918133816335
    C            0.465427614118    -1.329807293435     0.902170868898
    H            1.480696231126     0.837525176063    -1.586521957277
    H            1.422091954234    -0.913356545470    -1.652115815333
    H            2.494520372963    -0.115890488713    -0.508563472124
    H            0.404876071743     2.081941746727     0.321186602059
    H            1.488969217977     1.211641929706     1.389729724573
    H           -0.229151601532     1.202940111369     1.705042410676
    H            0.394219550670    -2.209527552562     0.274890172873
    H            1.397632919350    -1.374763912476     1.453473741812
    H           -0.344350187731    -1.360653384508     1.621436224262

  Mulliken Charges: (a.u.)
   Center  Symbol    Alpha    Beta     Spin     Total
       1     H     0.46691  0.46691  0.00000  0.06618
       2     C     3.04403  3.04403  0.00000 -0.08805
       3     O     4.19261  4.19261  0.00000 -0.38522
       4     H     0.44184  0.44184  0.00000  0.11631
       5     H     0.47028  0.47028  0.00000  0.05944
       6     C     2.87458  2.87458  0.00000  0.25084
       7     C     3.14124  3.14124  0.00000 -0.28248
       8     C     3.17208  3.17208  0.00000 -0.34416
       9     C     3.15293  3.15293  0.00000 -0.30585
      10     H     0.45063  0.45063  0.00000  0.09874
      11     H     0.44768  0.44768  0.00000  0.10464
      12     H     0.45931  0.45931  0.00000  0.08138
      13     H     0.44498  0.44498  0.00000  0.11004
      14     H     0.44508  0.44508  0.00000  0.10984
      15     H     0.44626  0.44626  0.00000  0.10748
      16     H     0.44756  0.44756  0.00000  0.10488
      17     H     0.45214  0.45214  0.00000  0.09573
      18     H     0.44986  0.44986  0.00000  0.10027

   Total alpha = 25.00000, Total beta = 25.00000, Total charge = -0.00000
