  ==> Input File <==

--------------------------------------------------------------------------
set {
	reference rhf
	basis 6-31G*
}

set_num_threads( 4 )
memory 2 gb

molecule MOL {
0 1

H	 -3.892951	 0.981613	 -0.358725
C	 -3.196921	 0.361773	 0.172313
C	 -2.076860	 -0.007332	 -0.404944
H	 -3.439953	 0.057760	 1.173024
O	 -2.051629	 -0.533388	 -1.657737
H	 -1.116421	 0.101443	 0.067200
C	 -0.857076	 -1.058832	 -2.125498
C	 -0.685193	 -2.505220	 -1.719649
H	 0.004332	 -0.503991	 -1.770782
H	 -0.879373	 -1.018109	 -3.204539
F	 0.449777	 -2.971518	 -2.219865
F	 -0.631219	 -2.642997	 -0.405140
F	 -1.666230	 -3.263676	 -2.163158

	symmetry c1
}
set optking {
	frozen_dihedral = ("
		6 3 2 1
	")
}

ee = optimize('scf')
oeprop('DIPOLE', 'QUADRUPOLE', 'MULLIKEN_CHARGES')
f=open( 'psi4out.xyz', 'w' )
f.write( "13  " )
f.write( str(ee) + "\n" )
f.write( MOL.save_string_xyz() )
f.close()
--------------------------------------------------------------------------

    Molecular point group: c1
  Charge       = 0
  Multiplicity = 1
  Basis Set: 6-31G*
  Basis Set:
  @DF-RHF Final Energy:  -527.48033001400563
    Total Energy =                       -527.4803300140054034
    Molecular point group: c1
  Basis Set: 6-31G*
  Basis Set:
  Basis Set: 6-31G*
  Basis Set:
  @DF-RHF Final Energy:  -527.50212184717611
    Total Energy =                       -527.5021218471763405
  Basis Set: 6-31G*
  Basis Set:
  Basis Set: 6-31G*
  Basis Set:
  @DF-RHF Final Energy:  -527.51280588572877
    Total Energy =                       -527.5128058857285396
  Basis Set: 6-31G*
  Basis Set:
  Basis Set: 6-31G*
  Basis Set:
  @DF-RHF Final Energy:  -527.51333168620931
    Total Energy =                       -527.5133316862091988
  Basis Set: 6-31G*
  Basis Set:
  @DF-RHF Final Energy:  -527.51340652280840
    Total Energy =                       -527.5134065228080544
  @DF-RHF Final Energy:  -527.50410751073400
    Total Energy =                       -527.5041075107337747
  @DF-RHF Final Energy:  -527.51267568548246
    Total Energy =                       -527.5126756854821224
  @DF-RHF Final Energy:  -527.51340876647328
    Total Energy =                       -527.5134087664739582
  @DF-RHF Final Energy:  -527.51341966043560
    Total Energy =                       -527.5134196604358294
  @DF-RHF Final Energy:  -527.44321507476457
    Total Energy =                       -527.4432150747645665
  @DF-RHF Final Energy:  -527.50403918265431
    Total Energy =                       -527.5040391826539690
  @DF-RHF Final Energy:  -527.40614481499540
    Total Energy =                       -527.4061448149952867
  @DF-RHF Final Energy:  -527.49751867227974
    Total Energy =                       -527.4975186722795115
  @DF-RHF Final Energy:  -527.51188713059423
    Total Energy =                       -527.5118871305949142
  @DF-RHF Final Energy:  -527.51309495697319
    Total Energy =                       -527.5130949569731911
  @DF-RHF Final Energy:  -527.51336876540358
    Total Energy =                       -527.5133687654036976
  @DF-RHF Final Energy:  -527.51342625431607
    Total Energy =                       -527.5134262543163004
  @DF-RHF Final Energy:  -527.51342940920222
    Total Energy =                       -527.5134294092019900
  @DF-RHF Final Energy:  -527.51342874368515
    Total Energy =                       -527.5134287436848126
  @DF-RHF Final Energy:  -527.51342587785405
    Total Energy =                       -527.5134258778539333
  @DF-RHF Final Energy:  -527.49460835624825
    Total Energy =                       -527.4946083562483636
  @DF-RHF Final Energy:  -527.50992807276896
    Total Energy =                       -527.5099280727689575
  @DF-RHF Final Energy:  -527.51180411724613
    Total Energy =                       -527.5118041172462426
  @DF-RHF Final Energy:  -527.51267636156967
    Total Energy =                       -527.5126763615696746
  @DF-RHF Final Energy:  -527.51313737142755
    Total Energy =                       -527.5131373714273195
  @DF-RHF Final Energy:  -527.51327882239195
    Total Energy =                       -527.5132788223916123
  @DF-RHF Final Energy:  -527.47753745080104
    Total Energy =                       -527.4775374508010373
  @DF-RHF Final Energy:  -527.40089450538471
    Total Energy =                       -527.4008945053844855
  @DF-RHF Final Energy:  -527.45189085428194
    Total Energy =                       -527.4518908542825102
  @DF-RHF Final Energy:  -527.38744558030135
    Total Energy =                       -527.3874455803010051
  @DF-RHF Final Energy:  -527.49501448610863
    Total Energy =                       -527.4950144861086301
  @DF-RHF Final Energy:  -527.50944651424356
    Total Energy =                       -527.5094465142433364
  @DF-RHF Final Energy:  -527.51160040714183
    Total Energy =                       -527.5116004071413727
  @DF-RHF Final Energy:  -527.51283879123457
    Total Energy =                       -527.5128387912344579
  @DF-RHF Final Energy:  -527.51309248053735
    Total Energy =                       -527.5130924805373525
  @DF-RHF Final Energy:  -527.51094205063669
    Total Energy =                       -527.5109420506365723
  Basis Set: 6-31G*
  Basis Set:
  @DF-RHF Final Energy:  -527.51332876468098
    Total Energy =                       -527.5133287646809777
  Basis Set: 6-31G*
  Basis Set:
  Basis Set: 6-31G*
  Basis Set:
  @DF-RHF Final Energy:  -527.51338502606336
    Total Energy =                       -527.5133850260635882
  Basis Set: 6-31G*
  Basis Set:
  Basis Set: 6-31G*
  Basis Set:
  @DF-RHF Final Energy:  -527.51339654681010
    Total Energy =                       -527.5133965468103270
  Basis Set: 6-31G*
  Basis Set:
  Charge       = 0
  Multiplicity = 1
  Basis Set: 6-31G*
  Basis Set:

    Orbital Energies (a.u.)
    -----------------------

    Doubly Occupied:

       1A    -26.343251     2A    -26.341997     3A    -26.339177
       4A    -20.606721     5A    -11.501519     6A    -11.317829
       7A    -11.304425     8A    -11.215783     9A     -1.740516
      10A     -1.638643    11A     -1.636823    12A     -1.439085
      13A     -1.086210    14A     -1.016756    15A     -0.924079
      16A     -0.836268    17A     -0.829725    18A     -0.819683
      19A     -0.794553    20A     -0.720527    21A     -0.709914
      22A     -0.694960    23A     -0.674015    24A     -0.659328
      25A     -0.652799    26A     -0.641655    27A     -0.635692
      28A     -0.581763    29A     -0.562459    30A     -0.527584
      31A     -0.510787    32A     -0.345363

  @DF-RHF Final Energy:  -527.51289386345422

   => Energetics <=

    Nuclear Repulsion Energy =            412.4496124831013049
    One-Electron Energy =               -1548.6252330429351787
    Two-Electron Energy =                 608.6627266963796501
    DFT Exchange-Correlation Energy =       0.0000000000000000
    Empirical Dispersion Energy =           0.0000000000000000
    PCM Polarization Energy =               0.0000000000000000
    EFP Energy =                            0.0000000000000000
    Total Energy =                       -527.5128938634543374
    Molecular point group: c1
  Basis Set: 6-31G*
  Basis Set:

  -Total Gradient:
     Atom            X                  Y                   Z
    ------   -----------------  -----------------  -----------------
       1        0.012869634190     0.025098130553    -0.000243255880
       2       -0.022598931544    -0.026910524163    -0.011333847087
       3        0.007751174841    -0.018111819586     0.030490308712
       4        0.005741657109    -0.003207491831    -0.003927834880
       5       -0.002050006001     0.000499732973     0.001430549130
       6        0.000534354293     0.021872933286    -0.018359078359
       7       -0.001788593577     0.001847001329     0.002999852300
       8       -0.000153677498    -0.000630844863    -0.000673131940
       9       -0.000328110675     0.000458146923    -0.000172721958
      10        0.000502577552    -0.001330698814     0.000119006428
      11       -0.000275693017     0.001040827066     0.000106449023
      12        0.000017863321    -0.000588789627    -0.000915916941
      13       -0.000222248990    -0.000036603242     0.000479621445

    Molecular point group: c1

    Geometry (in Angstrom), charge = 0, multiplicity = 1:

    H           -2.758824509290     2.477937125318     0.968108568684
    C           -1.976886348017     2.074779807533     1.584841759665
    C           -0.837099417123     1.627145439150     1.097121323990
    H           -1.949293015692     2.469943266962     2.584733087778
    O           -0.780088335526     1.175710184237    -0.190493054704
    H            0.130265226143     1.917924520281     1.469278073985
    C            0.428428826342     0.698563010842    -0.670479617025
    C            0.583771268022    -0.783640202147    -0.413269820601
    H            1.280923099917     1.204447962593    -0.230629858618
    H            0.448971792146     0.851643338947    -1.739768460458
    F            1.730360081026    -1.201125820423    -0.930361464352
    F            0.603097513276    -1.061182292225     0.879485452993
    F           -0.387551051489    -1.485336896114    -0.960116576257

  Mulliken Charges: (a.u.)
   Center  Symbol    Alpha    Beta     Spin     Total
       1     H     0.39896  0.39896  0.00000  0.20209
       2     C     3.22711  3.22711  0.00000 -0.45422
       3     C     2.90279  2.90279  0.00000  0.19441
       4     H     0.41516  0.41516  0.00000  0.16968
       5     O     4.29655  4.29655  0.00000 -0.59309
       6     H     0.40513  0.40513  0.00000  0.18974
       7     C     3.06352  3.06352  0.00000 -0.12703
       8     C     2.45551  2.45551  0.00000  1.08899
       9     H     0.40751  0.40751  0.00000  0.18498
      10     H     0.39105  0.39105  0.00000  0.21790
      11     F     4.68346  4.68346  0.00000 -0.36691
      12     F     4.67875  4.67875  0.00000 -0.35750
      13     F     4.67452  4.67452  0.00000 -0.34903

   Total alpha = 32.00000, Total beta = 32.00000, Total charge =  0.00000
