                              Psi4 1.0.54 Driver

  ==> Input File <==

--------------------------------------------------------------------------
set {
	reference rhf
	basis cc-pvtz
}

set_num_threads( 4 )
memory 2 gb

molecule MOL {
0 1

H	 -3.406674	 -0.989771	 -0.264644
O	 -3.113209	 -0.146055	 0.029257
C	 -1.774932	 -0.060196	 0.008227
C	 -0.973971	 -1.117406	 -0.405540
C	 -1.203594	 1.133114	 0.417822
H	 -1.424601	 -2.040057	 -0.721888
C	 0.393390	 -0.975943	 -0.407580
H	 -1.839306	 1.935918	 0.733092
C	 0.167252	 1.258588	 0.409861
H	 1.022319	 -1.784093	 -0.724520
C	 0.981121	 0.213562	 0.000000
H	 0.611576	 2.183924	 0.727426
C	 2.447402	 0.371303	 0.000000
O	 3.227427	 -0.521847	 0.000000
H	 2.796538	 1.409525	 0.000000

	symmetry c1
}
set optking {
	frozen_dihedral = ("
		7 11 13 14
	")
}

ee,wfn = optimize('scf', return_wfn=True)
oeprop( wfn, 'DIPOLE', 'QUADRUPOLE', 'MULLIKEN_CHARGES')
f=open( 'psi4out.xyz', 'w' )
f.write( "15  " )
f.write( str(ee) + "\n" )
f.write( MOL.save_string_xyz() )
f.close()
--------------------------------------------------------------------------

    Molecular point group: c1
  Charge       = 0
  Multiplicity = 1
  Basis Set: CC-PVTZ
  Basis Set:
  @DF-RHF Final Energy:  -418.44093938070944
    Total Energy =                       -418.4409393807097786
    Molecular point group: c1
  Basis Set: CC-PVTZ
  Basis Set:
  Basis Set: CC-PVTZ
  Basis Set:
  @DF-RHF Final Energy:  -418.43994704764179
    Total Energy =                       -418.4399470476421357
  Basis Set: CC-PVTZ
  Basis Set:
  Basis Set: CC-PVTZ
  Basis Set:
  @DF-RHF Final Energy:  -418.44105621886359
    Total Energy =                       -418.4410562188641052
  Basis Set: CC-PVTZ
  Basis Set:
  Basis Set: CC-PVTZ
  Basis Set:
  @DF-RHF Final Energy:  -418.44117238745122
    Total Energy =                       -418.4411723874511608
  Basis Set: CC-PVTZ
  Basis Set:
  Charge       = 0
  Multiplicity = 1
  Basis Set: CC-PVTZ
  Basis Set:

    Orbital Energies (a.u.)
    -----------------------

    Doubly Occupied:

       1A    -20.604226     2A    -20.546924     3A    -11.323306
       4A    -11.321710     5A    -11.257713     6A    -11.254727
       7A    -11.242120     8A    -11.237302     9A    -11.236579
      10A     -1.437327    11A     -1.402913    12A     -1.175121
      13A     -1.044515    14A     -1.042413    15A     -0.891929
      16A     -0.870685    17A     -0.797867    18A     -0.762106
      19A     -0.717612    20A     -0.671498    21A     -0.647346
      22A     -0.631544    23A     -0.614777    24A     -0.610666
      25A     -0.588773    26A     -0.564020    27A     -0.551761
      28A     -0.508980    29A     -0.490965    30A     -0.422114
      31A     -0.362135    32A     -0.331222

  @DF-RHF Final Energy:  -418.44117291908509

   => Energetics <=

    Nuclear Repulsion Energy =            402.2002252731934391
    One-Electron Energy =               -1366.9570104053182149
    Two-Electron Energy =                 546.3156122130396852
    DFT Exchange-Correlation Energy =       0.0000000000000000
    Empirical Dispersion Energy =           0.0000000000000000
    PCM Polarization Energy =               0.0000000000000000
    EFP Energy =                            0.0000000000000000
    Total Energy =                       -418.4411729190851474
    Molecular point group: c1
  Basis Set: CC-PVTZ
  Basis Set:

  -Total Gradient:
     Atom            X                  Y                   Z
    ------   -----------------  -----------------  -----------------
       1       -0.000005117168     0.000012112253    -0.000021439832
       2        0.000003804701     0.000029115986    -0.000103400611
       3       -0.000008357762    -0.000062778384     0.000381127722
       4        0.000055386732     0.000003526077    -0.000077454718
       5       -0.000051408147     0.000026261615    -0.000105781027
       6       -0.000001690572     0.000007387959    -0.000001370663
       7       -0.000228575245     0.001350654948    -0.003483715800
       8       -0.000010861233    -0.000006925310     0.000008168278
       9        0.000001154604     0.000021574047    -0.000103933617
      10        0.000005933281     0.000009921093     0.000023446379
      11        0.000339051037    -0.002018876303     0.007131429630
      12        0.000001853108    -0.000035627139     0.000054211098
      13       -0.000116707947     0.000929749521    -0.008209765189
      14        0.000083865301    -0.000113201458     0.004535064609
      15       -0.000068330694    -0.000152894903    -0.000026586258

  **** Optimization is complete! (in 5 steps) ****
    Final optimized geometry and variables:
    Molecular point group: c1

    Geometry (in Angstrom), charge = 0, multiplicity = 1:

    H           -3.408816337321    -0.974069394979    -0.305165202216
    O           -3.115300320800    -0.133972525499    -0.000803755687
    C           -1.776185064075    -0.054846583608    -0.004672421593
    C           -0.975348648119    -1.108389622844    -0.426383490848
    C           -1.203769760782     1.132474391895     0.420402109447
    H           -1.426339641269    -2.021519771906    -0.768945160832
    C            0.393245670918    -0.975008874197    -0.405914851509
    H           -1.838912425072     1.936452510475     0.734127625370
    C            0.167428908943     1.255787100957     0.419278836701
    H            1.020982899559    -1.783679510752    -0.724555467568
    C            0.981733899646     0.203045491688     0.030853725065
    H            0.611076432538     2.182415574648     0.734244105236
    C            2.449333549604     0.365106182686     0.016715116236
    O            3.229396097542    -0.526554643725    -0.021135563513
    H            2.797358652029     1.401658859520     0.079823297499

  Mulliken Charges: (a.u.)
   Center  Symbol    Alpha    Beta     Spin     Total
       1     H     0.38544  0.38544  0.00000  0.22913
       2     O     4.16659  4.16659  0.00000 -0.33317
       3     C     2.84555  2.84555  0.00000  0.30889
       4     C     3.13138  3.13138  0.00000 -0.26276
       5     C     3.10755  3.10755  0.00000 -0.21509
       6     H     0.43116  0.43116  0.00000  0.13768
       7     C     3.07032  3.07032  0.00000 -0.14063
       8     H     0.41665  0.41665  0.00000  0.16670
       9     C     3.06789  3.06789  0.00000 -0.13578
      10     H     0.40816  0.40816  0.00000  0.18368
      11     C     2.99510  2.99510  0.00000  0.00980
      12     H     0.42172  0.42172  0.00000  0.15655
      13     C     2.91427  2.91427  0.00000  0.17147
      14     O     4.17739  4.17739  0.00000 -0.35478
      15     H     0.46084  0.46084  0.00000  0.07831

   Total alpha = 32.00000, Total beta = 32.00000, Total charge = -0.00000

*** Psi4 exiting successfully. Buy a developer a beer!
