  ==> Input File <==

--------------------------------------------------------------------------
set {
	reference rhf
	basis 6-31G*
}

set_num_threads( 1 )
memory 2 gb

molecule MOL {
0 1

O	 3.225979	 0.970355	 -0.599647
C	 2.701189	 0.057885	 -0.047330
C	 1.245376	 -0.013843	 0.345420
O	 3.347903	 -1.046386	 0.304773
C	 0.455112	 1.231400	 -0.050772
H	 0.838542	 -0.913825	 -0.103701
H	 1.208210	 -0.175333	 1.419774
C	 -0.998893	 1.219485	 0.433193
H	 0.482531	 1.345121	 -1.130325
H	 0.957290	 2.103070	 0.354729
C	 -1.426559	 2.460176	 1.222430
H	 -1.137383	 0.343032	 1.061981
H	 -1.663641	 1.086890	 -0.419180
C	 -2.848670	 2.351922	 1.776400
H	 -0.731182	 2.617781	 2.045492
H	 -1.361217	 3.345190	 0.593581
C	 -3.288689	 3.588278	 2.562491
H	 -2.919012	 1.475296	 2.418127
H	 -3.543290	 2.183591	 0.954897
C	 -4.708548	 3.470544	 3.115518
H	 -2.595070	 3.758526	 3.383193
H	 -3.223215	 4.464920	 1.921404
H	 -4.991367	 4.361694	 3.667307
H	 -4.798000	 2.622559	 3.788656
H	 -5.430821	 3.333784	 2.315585
C	 4.728119	 -1.109107	 -0.004993
H	 4.882018	 -1.033965	 -1.071845
H	 5.068212	 -2.067527	 0.355250
H	 5.265056	 -0.311663	 0.488280

	symmetry c1
}
set optking {
	frozen_dihedral = ("
		21 17 14 11,
		17 14 11 15,
		15 11 8 5,
		6 3 5 9,
		2 4 26 27,
		1 2 4 26,
		6 3 2 1
	")
}

ee = energy('scf')
oeprop('DIPOLE', 'QUADRUPOLE', 'MULLIKEN_CHARGES')
f=open( 'psi4out.xyz', 'w' )
f.write( "29  " )
f.write( str(ee) + "\n" )
f.write( MOL.save_string_xyz() )
f.close()
--------------------------------------------------------------------------

    Molecular point group: c1

    Geometry (in Angstrom), charge = 0, multiplicity = 1:

       Center              X                  Y                   Z               Mass
    ------------   -----------------  -----------------  -----------------  -----------------
           O          2.962586447931    -0.209853872540    -1.420028557097    15.994914619560
           C          2.437796447931    -1.122323872540    -0.867711557097    12.000000000000
           C          0.981983447931    -1.194051872540    -0.474961557097    12.000000000000
           O          3.084510447931    -2.226594872540    -0.515608557097    15.994914619560
           C          0.191719447931     0.051191127460    -0.871153557097    12.000000000000
           H          0.575149447931    -2.094033872540    -0.924082557097     1.007825032070
           H          0.944817447931    -1.355541872540     0.599392442903     1.007825032070
           C         -1.262285552069     0.039276127460    -0.387188557097    12.000000000000
           H          0.219138447931     0.164912127460    -1.950706557097     1.007825032070
           H          0.693897447931     0.922861127460    -0.465652557097     1.007825032070
           C         -1.689951552069     1.279967127460     0.402048442903    12.000000000000
           H         -1.400775552069    -0.837176872540     0.241599442903     1.007825032070
           H         -1.927033552069    -0.093318872540    -1.239561557097     1.007825032070
           C         -3.112062552069     1.171713127460     0.956018442903    12.000000000000
           H         -0.994574552069     1.437572127460     1.225110442903     1.007825032070
           H         -1.624609552069     2.164981127460    -0.226800557097     1.007825032070
           C         -3.552081552069     2.408069127460     1.742109442903    12.000000000000
           H         -3.182404552069     0.295087127460     1.597745442903     1.007825032070
           H         -3.806682552069     1.003382127460     0.134515442903     1.007825032070
           C         -4.971940552069     2.290335127460     2.295136442903    12.000000000000
           H         -2.858462552069     2.578317127460     2.562811442903     1.007825032070
           H         -3.486607552069     3.284711127460     1.101022442903     1.007825032070
           H         -5.254759552069     3.181485127460     2.846925442903     1.007825032070
           H         -5.061392552069     1.442350127460     2.968274442903     1.007825032070
           H         -5.694213552069     2.153575127460     1.495203442903     1.007825032070
           C          4.464726447931    -2.289315872540    -0.825374557097    12.000000000000
           H          4.618625447931    -2.214173872540    -1.892226557097     1.007825032070
           H          4.804819447931    -3.247735872540    -0.465131557097     1.007825032070
           H          5.001663447931    -1.491871872540    -0.332101557097     1.007825032070

  Charge       = 0
  Multiplicity = 1
  Basis Set: 6-31G*
  Basis Set:

    Orbital Energies (a.u.)
    -----------------------

    Doubly Occupied:

       1A    -20.603463     2A    -20.545317     3A    -11.371950
       4A    -11.280741     5A    -11.236048     6A    -11.217486
       7A    -11.216132     8A    -11.215146     9A    -11.214872
      10A    -11.213219    11A    -11.208334    12A     -1.469175
      13A     -1.362594    14A     -1.096493    15A     -1.067072
      16A     -1.020014    17A     -0.977416    18A     -0.927252
      19A     -0.857053    20A     -0.800346    21A     -0.790252
      22A     -0.766820    23A     -0.698678    24A     -0.682832
      25A     -0.672102    26A     -0.652800    27A     -0.629145
      28A     -0.598721    29A     -0.595406    30A     -0.582690
      31A     -0.565987    32A     -0.549351    33A     -0.530735
      34A     -0.528490    35A     -0.514955    36A     -0.510491
      37A     -0.496247    38A     -0.476003    39A     -0.468165
      40A     -0.461072    41A     -0.460409    42A     -0.455979
      43A     -0.442883    44A     -0.432244

  @DF-RHF Final Energy:  -501.03976688654541

   => Energetics <=

    Nuclear Repulsion Energy =            604.0475752129299281
    One-Electron Energy =               -1879.2495786815391057
    Two-Electron Energy =                 774.1622365820633149
    DFT Exchange-Correlation Energy =       0.0000000000000000
    Empirical Dispersion Energy =           0.0000000000000000
    PCM Polarization Energy =               0.0000000000000000
    EFP Energy =                            0.0000000000000000
    Total Energy =                       -501.0397668865459764

  Mulliken Charges: (a.u.)
   Center  Symbol    Alpha    Beta     Spin     Total
       1     O     4.28572  4.28572  0.00000 -0.57144
       2     C     2.60572  2.60572  0.00000  0.78857
       3     C     3.21046  3.21046  0.00000 -0.42092
       4     O     4.30757  4.30757  0.00000 -0.61515
       5     C     3.15528  3.15528  0.00000 -0.31056
       6     H     0.39985  0.39985  0.00000  0.20031
       7     H     0.40071  0.40071  0.00000  0.19858
       8     C     3.15745  3.15745  0.00000 -0.31489
       9     H     0.41066  0.41066  0.00000  0.17868
      10     H     0.40804  0.40804  0.00000  0.18391
      11     C     3.15379  3.15379  0.00000 -0.30758
      12     H     0.42285  0.42285  0.00000  0.15430
      13     H     0.41922  0.41922  0.00000  0.16156
      14     C     3.15162  3.15162  0.00000 -0.30324
      15     H     0.42355  0.42355  0.00000  0.15290
      16     H     0.42080  0.42080  0.00000  0.15841
      17     C     3.15149  3.15149  0.00000 -0.30299
      18     H     0.42432  0.42432  0.00000  0.15137
      19     H     0.42380  0.42380  0.00000  0.15241
      20     C     3.23924  3.23924  0.00000 -0.47849
      21     H     0.42306  0.42306  0.00000  0.15388
      22     H     0.42266  0.42266  0.00000  0.15468
      23     H     0.41925  0.41925  0.00000  0.16151
      24     H     0.42202  0.42202  0.00000  0.15596
      25     H     0.42179  0.42179  0.00000  0.15642
      26     C     3.09242  3.09242  0.00000 -0.18483
      27     H     0.40905  0.40905  0.00000  0.18189
      28     H     0.40850  0.40850  0.00000  0.18300
      29     H     0.40912  0.40912  0.00000  0.18176

   Total alpha = 44.00000, Total beta = 44.00000, Total charge = -0.00000
