  ==> Input File <==

--------------------------------------------------------------------------
set {
	reference rhf
	basis 6-31G*
}

set_num_threads( 1 )
memory 2 gb

molecule MOL {
0 1

H	 -2.698709	 -0.000305	 0.034435
C	 -1.693833	 0.000034	 0.434417
O	 -0.828952	 -0.000968	 -0.659236
H	 -1.574200	 0.882896	 1.055746
H	 -1.574147	 -0.881698	 1.057355
C	 0.429480	 0.617584	 -0.524161
C	 0.319230	 2.120921	 -0.277708
C	 1.315219	 -0.076585	 0.508580
H	 0.880651	 0.473377	 -1.498677
H	 -0.355648	 2.571606	 -0.997410
H	 1.293468	 2.587130	 -0.386082
H	 -0.041815	 2.348405	 0.720321
H	 1.329134	 -1.146929	 0.333577
H	 2.332854	 0.293914	 0.433643
H	 0.977894	 0.100510	 1.524794

	symmetry c1
}
set optking {
	frozen_dihedral = ("
		9 6 3 2
	")
}

ee = energy('scf')
oeprop('DIPOLE', 'QUADRUPOLE', 'MULLIKEN_CHARGES')
f=open( 'psi4out.xyz', 'w' )
f.write( "15  " )
f.write( str(ee) + "\n" )
f.write( MOL.save_string_xyz() )
f.close()
--------------------------------------------------------------------------

    Molecular point group: c1

    Geometry (in Angstrom), charge = 0, multiplicity = 1:

       Center              X                  Y                   Z               Mass
    ------------   -----------------  -----------------  -----------------  -----------------
           H         -2.587414629691    -0.529692901483     0.122933479149     1.007825032070
           C         -1.582538629691    -0.529353901483     0.522915479149    12.000000000000
           O         -0.717657629691    -0.530355901483    -0.570737520851    15.994914619560
           H         -1.462905629691     0.353508098517     1.144244479149     1.007825032070
           H         -1.462852629691    -1.411085901483     1.145853479149     1.007825032070
           C          0.540774370309     0.088196098517    -0.435662520851    12.000000000000
           C          0.430524370309     1.591533098517    -0.189209520851    12.000000000000
           C          1.426513370309    -0.605972901483     0.597078479149    12.000000000000
           H          0.991945370309    -0.056010901483    -1.410178520851     1.007825032070
           H         -0.244353629691     2.042218098517    -0.908911520851     1.007825032070
           H          1.404762370309     2.057742098517    -0.297583520851     1.007825032070
           H          0.069479370309     1.819017098517     0.808819479149     1.007825032070
           H          1.440428370309    -1.676316901483     0.422075479149     1.007825032070
           H          2.444148370309    -0.235473901483     0.522141479149     1.007825032070
           H          1.089188370309    -0.428877901483     1.613292479149     1.007825032070

  Charge       = 0
  Multiplicity = 1
  Basis Set: 6-31G*
  Basis Set:

    Orbital Energies (a.u.)
    -----------------------

    Doubly Occupied:

       1A    -20.547388     2A    -11.274644     3A    -11.260740
       4A    -11.210865     5A    -11.210458     6A     -1.370064
       7A     -1.050606     8A     -0.939737     9A     -0.931194
      10A     -0.781391    11A     -0.675735    12A     -0.639554
      13A     -0.632739    14A     -0.571504    15A     -0.564514
      16A     -0.552883    17A     -0.535885    18A     -0.498789
      19A     -0.497107    20A     -0.442895    21A     -0.404926

  @DF-RHF Final Energy:  -232.13631667820061

   => Energetics <=

    Nuclear Repulsion Energy =            198.7843187957172972
    One-Electron Energy =                -708.6539461810862122
    Two-Electron Energy =                 277.7333107071669929
    DFT Exchange-Correlation Energy =       0.0000000000000000
    Empirical Dispersion Energy =           0.0000000000000000
    PCM Polarization Energy =               0.0000000000000000
    EFP Energy =                            0.0000000000000000
    Total Energy =                       -232.1363166782019221

  Mulliken Charges: (a.u.)
   Center  Symbol    Alpha    Beta     Spin     Total
       1     H     0.41496  0.41496  0.00000  0.17008
       2     C     3.07998  3.07998  0.00000 -0.15996
       3     O     4.31278  4.31278  0.00000 -0.62556
       4     H     0.43069  0.43069  0.00000  0.13861
       5     H     0.42639  0.42639  0.00000  0.14722
       6     C     2.90998  2.90998  0.00000  0.18004
       7     C     3.25289  3.25289  0.00000 -0.50577
       8     C     3.25211  3.25211  0.00000 -0.50422
       9     H     0.41531  0.41531  0.00000  0.16937
      10     H     0.41129  0.41129  0.00000  0.17742
      11     H     0.41915  0.41915  0.00000  0.16170
      12     H     0.42141  0.42141  0.00000  0.15717
      13     H     0.41138  0.41138  0.00000  0.17724
      14     H     0.41975  0.41975  0.00000  0.16050
      15     H     0.42192  0.42192  0.00000  0.15615

   Total alpha = 21.00000, Total beta = 21.00000, Total charge =  0.00000
