                              Psi4 1.0.54 Driver

  ==> Input File <==

--------------------------------------------------------------------------
set {
	reference rhf
	basis cc-pvtz
}

set_num_threads( 4 )
memory 2 gb

molecule MOL {
0 1

O	 -2.817892	 1.304218	 0.001046
C	 -2.664867	 0.129909	 0.003507
C	 -3.798103	 -0.860060	 -0.001145
O	 -1.481412	 -0.452668	 0.001092
H	 -4.409031	 -0.679649	 -0.875387
H	 -3.443681	 -1.878403	 -0.002770
H	 -4.412318	 -0.683648	 0.871605
C	 -0.332250	 0.384052	 -0.000250
C	 0.892057	 -0.506019	 -0.000295
H	 -0.361017	 1.020245	 -0.874146
H	 -0.360012	 1.021350	 0.872861
C	 2.188004	 0.299513	 -0.001416
H	 0.856851	 -1.152741	 -0.871031
H	 0.857715	 -1.151758	 0.871202
C	 3.436956	 -0.577553	 -0.000991
H	 2.209370	 0.950747	 -0.871712
H	 2.209867	 0.952274	 0.867721
C	 4.732204	 0.227022	 -0.000914
H	 3.417126	 -1.229082	 -0.869998
H	 3.416798	 -1.228667	 0.868337
H	 4.797708	 0.863491	 -0.876963
H	 5.598322	 -0.424396	 -0.000420
H	 4.797220	 0.864158	 0.874691

	symmetry c1
}
ee,wfn = energy('scf', return_wfn=True)
oeprop( wfn, 'DIPOLE', 'QUADRUPOLE', 'MULLIKEN_CHARGES')
oeprop( wfn, 'GRID_ESP')
f=open( 'psi4out.xyz', 'w' )
f.write( "23  " )
f.write( str(ee) + "\n" )
f.write( MOL.save_string_xyz() )
f.close()
--------------------------------------------------------------------------

    Molecular point group: c1

    Geometry (in Angstrom), charge = 0, multiplicity = 1:

       Center              X                  Y                   Z               Mass
    ------------   -----------------  -----------------  -----------------  -----------------
           O         -2.817697332019     1.304178090988     0.001045893553    15.994914619560
           C         -2.664672332019     0.129869090988     0.003506893553    12.000000000000
           C         -3.797908332019    -0.860099909012    -0.001145106447    12.000000000000
           O         -1.481217332019    -0.452707909012     0.001091893553    15.994914619560
           H         -4.408836332019    -0.679688909012    -0.875387106447     1.007825032070
           H         -3.443486332019    -1.878442909012    -0.002770106447     1.007825032070
           H         -4.412123332019    -0.683687909012     0.871604893553     1.007825032070
           C         -0.332055332019     0.384012090988    -0.000250106447    12.000000000000
           C          0.892251667981    -0.506058909012    -0.000295106447    12.000000000000
           H         -0.360822332019     1.020205090988    -0.874146106447     1.007825032070
           H         -0.359817332019     1.021310090988     0.872860893553     1.007825032070
           C          2.188198667981     0.299473090988    -0.001416106447    12.000000000000
           H          0.857045667981    -1.152780909012    -0.871031106447     1.007825032070
           H          0.857909667981    -1.151797909012     0.871201893553     1.007825032070
           C          3.437150667981    -0.577592909012    -0.000991106447    12.000000000000
           H          2.209564667981     0.950707090988    -0.871712106447     1.007825032070
           H          2.210061667981     0.952234090988     0.867720893553     1.007825032070
           C          4.732398667981     0.226982090988    -0.000914106447    12.000000000000
           H          3.417320667981    -1.229121909012    -0.869998106447     1.007825032070
           H          3.416992667981    -1.228706909012     0.868336893553     1.007825032070
           H          4.797902667981     0.863451090988    -0.876963106447     1.007825032070
           H          5.598516667981    -0.424435909012    -0.000420106447     1.007825032070
           H          4.797414667981     0.864118090988     0.874690893553     1.007825032070

  Charge       = 0
  Multiplicity = 1
  Basis Set: CC-PVTZ
  Basis Set:

    Orbital Energies (a.u.)
    -----------------------

    Doubly Occupied:

       1A    -20.595915     2A    -20.529506     3A    -11.366367
       4A    -11.279450     5A    -11.230607     6A    -11.222331
       7A    -11.221374     8A    -11.219490     9A    -11.210882
      10A     -1.471084    11A     -1.363993    12A     -1.095346
      13A     -1.043284    14A     -1.004278    15A     -0.931726
      16A     -0.842364    17A     -0.803115    18A     -0.776051
      19A     -0.694870    20A     -0.688301    21A     -0.671157
      22A     -0.648208    23A     -0.607070    24A     -0.589218
      25A     -0.584104    26A     -0.567188    27A     -0.559690
      28A     -0.538575    29A     -0.524116    30A     -0.505636
      31A     -0.491774    32A     -0.478283    33A     -0.471393
      34A     -0.466901    35A     -0.455241    36A     -0.438897

  @DF-RHF Final Energy:  -423.13481496697540

   => Energetics <=

    Nuclear Repulsion Energy =            450.4520538533896001
    One-Electron Energy =               -1468.7979558675265253
    Two-Electron Energy =                 595.2110870471617545
    DFT Exchange-Correlation Energy =       0.0000000000000000
    Empirical Dispersion Energy =           0.0000000000000000
    PCM Polarization Energy =               0.0000000000000000
    EFP Energy =                            0.0000000000000000
    Total Energy =                       -423.1348149669752274

  Mulliken Charges: (a.u.)
   Center  Symbol    Alpha    Beta     Spin     Total
       1     O     4.20243  4.20243  0.00000 -0.40486
       2     C     2.81524  2.81524  0.00000  0.36953
       3     C     3.14006  3.14006  0.00000 -0.28013
       4     O     4.14466  4.14466  0.00000 -0.28931
       5     H     0.44203  0.44203  0.00000  0.11593
       6     H     0.44185  0.44185  0.00000  0.11630
       7     H     0.44222  0.44222  0.00000  0.11557
       8     C     2.97901  2.97901  0.00000  0.04198
       9     C     3.08097  3.08097  0.00000 -0.16195
      10     H     0.45398  0.45398  0.00000  0.09204
      11     H     0.45404  0.45404  0.00000  0.09193
      12     C     3.09772  3.09772  0.00000 -0.19545
      13     H     0.45082  0.45082  0.00000  0.09836
      14     H     0.45082  0.45082  0.00000  0.09836
      15     C     3.08504  3.08504  0.00000 -0.17009
      16     H     0.45289  0.45289  0.00000  0.09422
      17     H     0.45291  0.45291  0.00000  0.09419
      18     C     3.14958  3.14958  0.00000 -0.29915
      19     H     0.45347  0.45347  0.00000  0.09305
      20     H     0.45349  0.45349  0.00000  0.09302
      21     H     0.45454  0.45454  0.00000  0.09091
      22     H     0.44768  0.44768  0.00000  0.10464
      23     H     0.45455  0.45455  0.00000  0.09091

   Total alpha = 36.00000, Total beta = 36.00000, Total charge =  0.00000

*** Psi4 exiting successfully. Buy a developer a beer!
