  ==> Input File <==

--------------------------------------------------------------------------
set {
	reference rhf
	basis 6-31G*
}

set_num_threads( 1 )
memory 2 gb

molecule MOL {
0 1

H	 -3.135461	 -1.215070	 0.001379
O	 -2.310168	 -0.871793	 -0.309793
C	 -2.026376	 0.340750	 0.341611
C	 -0.673256	 0.843270	 -0.132153
H	 -2.792215	 1.080697	 0.115987
H	 -2.013526	 0.200402	 1.421792
C	 0.486613	 -0.083066	 0.235839
H	 -0.715586	 0.970948	 -1.210718
H	 -0.508072	 1.829858	 0.297090
C	 0.150548	 -1.563186	 0.045788
H	 0.771832	 0.096711	 1.267267
H	 1.353664	 0.168714	 -0.373810
C	 1.311602	 -2.488637	 0.407958
H	 -0.714798	 -1.816215	 0.654779
H	 -0.141966	 -1.739617	 -0.987533
H	 1.604525	 -2.360512	 1.446066
H	 1.043985	 -3.531273	 0.265702
H	 2.183019	 -2.283910	 -0.207859

	symmetry c1
}
set optking {
	frozen_dihedral = ("
		14 10 7 11,
		2 3 4 8,
		1 2 3 4
	")
}

ee = energy('scf')
oeprop('DIPOLE', 'QUADRUPOLE', 'MULLIKEN_CHARGES')
f=open( 'psi4out.xyz', 'w' )
f.write( "18  " )
f.write( str(ee) + "\n" )
f.write( MOL.save_string_xyz() )
f.close()
--------------------------------------------------------------------------

    Molecular point group: c1

    Geometry (in Angstrom), charge = 0, multiplicity = 1:

       Center              X                  Y                   Z               Mass
    ------------   -----------------  -----------------  -----------------  -----------------
           H         -2.578637213690    -0.556402504722    -0.095620782121     1.007825032070
           O         -1.753344213690    -0.213125504722    -0.406792782121    15.994914619560
           C         -1.469552213690     0.999417495278     0.244611217879    12.000000000000
           C         -0.116432213690     1.501937495278    -0.229152782121    12.000000000000
           H         -2.235391213690     1.739364495278     0.018987217879     1.007825032070
           H         -1.456702213690     0.859069495278     1.324792217879     1.007825032070
           C          1.043436786310     0.575601495278     0.138839217879    12.000000000000
           H         -0.158762213690     1.629615495278    -1.307717782121     1.007825032070
           H          0.048751786310     2.488525495278     0.200090217879     1.007825032070
           C          0.707371786310    -0.904518504722    -0.051211782121    12.000000000000
           H          1.328655786310     0.755378495278     1.170267217879     1.007825032070
           H          1.910487786310     0.827381495278    -0.470809782121     1.007825032070
           C          1.868425786310    -1.829969504722     0.310958217879    12.000000000000
           H         -0.157974213690    -1.157547504722     0.557779217879     1.007825032070
           H          0.414857786310    -1.080949504722    -1.084532782121     1.007825032070
           H          2.161348786310    -1.701844504722     1.349066217879     1.007825032070
           H          1.600808786310    -2.872605504722     0.168702217879     1.007825032070
           H          2.739842786310    -1.625242504722    -0.304858782121     1.007825032070

  Charge       = 0
  Multiplicity = 1
  Basis Set: 6-31G*
  Basis Set:

    Orbital Energies (a.u.)
    -----------------------

    Doubly Occupied:

       1A    -20.552891     2A    -11.270024     3A    -11.212785
       4A    -11.206309     5A    -11.194351     6A    -11.192614
       7A     -1.364286     8A     -1.071366     9A     -1.002357
      10A     -0.910627    11A     -0.823979    12A     -0.770423
      13A     -0.703437    14A     -0.657843    15A     -0.609735
      16A     -0.571331    17A     -0.568848    18A     -0.552210
      19A     -0.533345    20A     -0.499857    21A     -0.490419
      22A     -0.459206    23A     -0.447560    24A     -0.441988
      25A     -0.416059

  @DF-RHF Final Energy:  -271.16565310531030

   => Energetics <=

    Nuclear Repulsion Energy =            260.4983335720035029
    One-Electron Energy =                -884.2801347869284427
    Two-Electron Energy =                 352.6161481096139596
    DFT Exchange-Correlation Energy =       0.0000000000000000
    Empirical Dispersion Energy =           0.0000000000000000
    PCM Polarization Energy =               0.0000000000000000
    EFP Energy =                            0.0000000000000000
    Total Energy =                       -271.1656531053109802

  Mulliken Charges: (a.u.)
   Center  Symbol    Alpha    Beta     Spin     Total
       1     H     0.28104  0.28104  0.00000  0.43792
       2     O     4.36701  4.36701  0.00000 -0.73401
       3     C     3.00556  3.00556  0.00000 -0.01112
       4     C     3.15966  3.15966  0.00000 -0.31931
       5     H     0.42612  0.42612  0.00000  0.14776
       6     H     0.43192  0.43192  0.00000  0.13615
       7     C     3.15460  3.15460  0.00000 -0.30920
       8     H     0.41475  0.41475  0.00000  0.17051
       9     H     0.42150  0.42150  0.00000  0.15699
      10     C     3.14272  3.14272  0.00000 -0.28544
      11     H     0.42632  0.42632  0.00000  0.14736
      12     H     0.42252  0.42252  0.00000  0.15495
      13     C     3.23827  3.23827  0.00000 -0.47655
      14     H     0.41447  0.41447  0.00000  0.17105
      15     H     0.41744  0.41744  0.00000  0.16511
      16     H     0.42719  0.42719  0.00000  0.14561
      17     H     0.42228  0.42228  0.00000  0.15544
      18     H     0.42661  0.42661  0.00000  0.14677

   Total alpha = 25.00000, Total beta = 25.00000, Total charge = -0.00000
