  ==> Input File <==

--------------------------------------------------------------------------
set {
	reference rhf
	basis 6-31G*
}

set_num_threads( 4 )
memory 2 gb

molecule MOL {
0 1

O	 1.123784	 -2.011821	 -4.812821
C	 0.737682	 -1.012592	 -4.286607
C	 0.502283	 -0.963412	 -2.787116
C	 0.495513	 0.256299	 -5.073147
C	 1.829372	 -0.797765	 -2.029133
H	 0.034015	 -1.897660	 -2.496924
H	 -0.174327	 -0.152521	 -2.532791
C	 1.631333	 -0.777471	 -0.511575
H	 2.487117	 -1.609917	 -2.317513
H	 2.315646	 0.125867	 -2.339276
C	 2.915987	 -0.544314	 0.291766
H	 1.176484	 -1.715090	 -0.197392
H	 0.919029	 0.005998	 -0.261280
C	 3.373361	 0.914346	 0.347591
H	 3.708709	 -1.142521	 -0.150311
H	 2.780642	 -0.921148	 1.303579
H	 3.506512	 1.320010	 -0.651625
H	 4.322697	 0.999599	 0.867103
H	 2.660624	 1.545032	 0.868198
H	 -0.564556	 0.495896	 -5.062596
H	 0.824114	 0.126952	 -6.094947
H	 1.017590	 1.094538	 -4.620824

	symmetry c1
}
set optking {
	frozen_dihedral = ("
		12 8 11 15
	")
}

ee = optimize('scf')
oeprop('DIPOLE', 'QUADRUPOLE', 'MULLIKEN_CHARGES')
f=open( 'psi4out.xyz', 'w' )
f.write( "22  " )
f.write( str(ee) + "\n" )
f.write( MOL.save_string_xyz() )
f.close()
--------------------------------------------------------------------------

    Molecular point group: c1
  Charge       = 0
  Multiplicity = 1
  Basis Set: 6-31G*
  Basis Set:
  @DF-RHF Final Energy:  -348.09737203551651
    Total Energy =                       -348.0973720355162868
    Molecular point group: c1
  Basis Set: 6-31G*
  Basis Set:
  Basis Set: 6-31G*
  Basis Set:
  @DF-RHF Final Energy:  -348.09746667495381
    Total Energy =                       -348.0974666749532958
  Basis Set: 6-31G*
  Basis Set:
  Basis Set: 6-31G*
  Basis Set:
  @DF-RHF Final Energy:  -348.09594748602450
    Total Energy =                       -348.0959474860246701
  Basis Set: 6-31G*
  Basis Set:
  Basis Set: 6-31G*
  Basis Set:
  @DF-RHF Final Energy:  -348.09759181892082
    Total Energy =                       -348.0975918189209324
  Basis Set: 6-31G*
  Basis Set:
  @DF-RHF Final Energy:  -348.09741669204828
    Total Energy =                       -348.0974166920486823
  @DF-RHF Final Energy:  -348.09748083137191
    Total Energy =                       -348.0974808313721383
  Basis Set: 6-31G*
  Basis Set:
  @DF-RHF Final Energy:  -348.09758626768428
    Total Energy =                       -348.0975862676844486
  Basis Set: 6-31G*
  Basis Set:
  Basis Set: 6-31G*
  Basis Set:
  @DF-RHF Final Energy:  -348.09762667226840
    Total Energy =                       -348.0976266722685750
  Basis Set: 6-31G*
  Basis Set:
  Basis Set: 6-31G*
  Basis Set:
  @DF-RHF Final Energy:  -348.09763957759537
    Total Energy =                       -348.0976395775952597
  Basis Set: 6-31G*
  Basis Set:
  Charge       = 0
  Multiplicity = 1
  Basis Set: 6-31G*
  Basis Set:

    Orbital Energies (a.u.)
    -----------------------

    Doubly Occupied:

       1A    -20.547409     2A    -11.324523     3A    -11.230089
       4A    -11.229197     5A    -11.228261     6A    -11.222376
       7A    -11.220762     8A    -11.213324     9A     -1.393163
      10A     -1.095816    11A     -1.044772    12A     -0.999996
      13A     -0.938235    14A     -0.855384    15A     -0.790530
      16A     -0.732982    17A     -0.660490    18A     -0.646839
      19A     -0.626623    20A     -0.618195    21A     -0.599258
      22A     -0.585113    23A     -0.554450    24A     -0.548104
      25A     -0.536433    26A     -0.517229    27A     -0.499617
      28A     -0.487941    29A     -0.471485    30A     -0.464512
      31A     -0.460428    32A     -0.396267

  @DF-RHF Final Energy:  -348.09764051435428

   => Energetics <=

    Nuclear Repulsion Energy =            372.3551234212706618
    One-Electron Energy =               -1209.4259230024194949
    Two-Electron Energy =                 488.9731590667944943
    DFT Exchange-Correlation Energy =       0.0000000000000000
    Empirical Dispersion Energy =           0.0000000000000000
    PCM Polarization Energy =               0.0000000000000000
    EFP Energy =                            0.0000000000000000
    Total Energy =                       -348.0976405143542820
    Molecular point group: c1
  Basis Set: 6-31G*
  Basis Set:

  -Total Gradient:
     Atom            X                  Y                   Z
    ------   -----------------  -----------------  -----------------
       1        0.000060416087     0.000001108589     0.000006395648
       2       -0.000106332946    -0.000014340434    -0.000020039794
       3        0.000056942677     0.000041807256     0.000027267110
       4        0.000005761883    -0.000005907918    -0.000006404800
       5        0.000015736335    -0.000049029405    -0.000026590486
       6       -0.000001589354     0.000005284548    -0.000002562736
       7       -0.000004564027     0.000005129970     0.000007878765
       8        0.001513136139    -0.000897309306    -0.002227294105
       9       -0.000030432192    -0.000003155249    -0.000055938296
      10        0.000013422606    -0.000012958312     0.000008391762
      11       -0.000882825757    -0.001889846378     0.001967227943
      12       -0.001128130977     0.001101129574     0.001608626165
      13       -0.000040379971    -0.000027384904     0.000009856011
      14       -0.000019926438    -0.000004136540     0.000035631324
      15        0.000542758896     0.001692874464    -0.001354282992
      16        0.000003163105     0.000021509556    -0.000001693288
      17        0.000020532515    -0.000022206063     0.000014410557
      18       -0.000020300443     0.000014472123     0.000010252182
      19       -0.000016895548     0.000037626228    -0.000016119386
      20        0.000008466388     0.000004321596     0.000005115697
      21        0.000002377591    -0.000003856157     0.000003827598
      22        0.000008663428     0.000004866761     0.000006045130

  **** Optimization is complete! (in 10 steps) ****
    Final optimized geometry and variables:
    Molecular point group: c1

    Geometry (in Angstrom), charge = 0, multiplicity = 1:

    O           -0.470137606971    -1.411828600479    -2.449797973117
    C           -0.850813263936    -0.410700089606    -1.923447131931
    C           -1.086839011260    -0.360019168296    -0.424116555909
    C           -1.091573220815     0.858206632308    -2.710789330228
    C            0.236918958870    -0.170960271763     0.333533837629
    H           -1.541481675872    -1.299865253789    -0.130638153982
    H           -1.775069101267     0.442152103662    -0.173027378353
    C            0.043659767510    -0.160238212952     1.851185774284
    H            0.910842500987    -0.975695462405     0.056126896355
    H            0.708687728526     0.755663483457     0.014590640033
    C            1.341267514515     0.049058194132     2.644801802645
    H           -0.419587455332    -1.094668233026     2.158866725983
    H           -0.666625804803     0.620494544481     2.119621132608
    C            1.797290020497     1.508892872071     2.705807474553
    H            2.135123609582    -0.547574480929     2.201093990336
    H            1.203488622295    -0.317481617937     3.657939086395
    H            1.989132684982     1.913841355362     1.716915083133
    H            2.713662638344     1.605521912723     3.279716772635
    H            1.044232656461     2.133330976251     3.178448854997
    H           -2.151782550479     1.097126305084    -2.702812021596
    H           -0.760727897748     0.728397545818    -3.731783285393
    H           -0.571071647901     1.697071245528    -2.257914085366

  Mulliken Charges: (a.u.)
   Center  Symbol    Alpha    Beta     Spin     Total
       1     O     4.26220  4.26220  0.00000 -0.52441
       2     C     2.73725  2.73725  0.00000  0.52550
       3     C     3.19990  3.19990  0.00000 -0.39980
       4     C     3.28957  3.28957  0.00000 -0.57913
       5     C     3.16323  3.16323  0.00000 -0.32646
       6     H     0.40114  0.40114  0.00000  0.19772
       7     H     0.41675  0.41675  0.00000  0.16650
       8     C     3.15371  3.15371  0.00000 -0.30743
       9     H     0.40583  0.40583  0.00000  0.18834
      10     H     0.41961  0.41961  0.00000  0.16078
      11     C     3.15475  3.15475  0.00000 -0.30950
      12     H     0.41799  0.41799  0.00000  0.16401
      13     H     0.42358  0.42358  0.00000  0.15283
      14     C     3.24083  3.24083  0.00000 -0.48166
      15     H     0.42033  0.42033  0.00000  0.15935
      16     H     0.41847  0.41847  0.00000  0.16306
      17     H     0.42171  0.42171  0.00000  0.15659
      18     H     0.41776  0.41776  0.00000  0.16447
      19     H     0.42170  0.42170  0.00000  0.15661
      20     H     0.40680  0.40680  0.00000  0.18640
      21     H     0.39706  0.39706  0.00000  0.20589
      22     H     0.40983  0.40983  0.00000  0.18034

   Total alpha = 32.00000, Total beta = 32.00000, Total charge = -0.00000
