  ==> Input File <==

--------------------------------------------------------------------------
set {
	reference rhf
	basis cc-pvtz
}

set_num_threads( 4 )
memory 2 gb

molecule MOL {
0 1

H	 2.646708	 0.758099	 0.000000
O	 2.258158	 -0.097743	 0.000000
C	 0.911162	 -0.015915	 0.000000
C	 0.309113	 0.635917	 1.063698
C	 0.136781	 -0.553535	 -1.010801
H	 0.925545	 1.046772	 1.838753
C	 -1.064064	 0.743887	 1.106145
H	 0.603869	 -1.059427	 -1.836363
C	 -1.240865	 -0.437595	 -0.955045
H	 -1.525152	 1.250110	 1.932908
C	 -1.850703	 0.209283	 0.099269
H	 -1.834804	 -0.857995	 -1.744239
H	 -2.918672	 0.297270	 0.139223

	symmetry c1
}
set optking {
	frozen_dihedral = ("
		4 3 2 1
	")
}

ee = optimize('scf')
oeprop('DIPOLE', 'QUADRUPOLE', 'MULLIKEN_CHARGES')
f=open( 'psi4out.xyz', 'w' )
f.write( "13  " )
f.write( str(ee) + "\n" )
f.write( MOL.save_string_xyz() )
f.close()
--------------------------------------------------------------------------

    Molecular point group: c1
  Charge       = 0
  Multiplicity = 1
  Basis Set: CC-PVTZ
  Basis Set:
  @DF-RHF Final Energy:  -305.66591466780432
    Total Energy =                       -305.6659146678043157
    Molecular point group: c1
  Basis Set: CC-PVTZ
  Basis Set:
  Basis Set: CC-PVTZ
  Basis Set:
  @DF-RHF Final Energy:  -305.66722613790176
    Total Energy =                       -305.6672261379017073
  Basis Set: CC-PVTZ
  Basis Set:
  Basis Set: CC-PVTZ
  Basis Set:
  @DF-RHF Final Energy:  -305.66730980402571
    Total Energy =                       -305.6673098040257059
  Basis Set: CC-PVTZ
  Basis Set:
  Basis Set: CC-PVTZ
  Basis Set:
  @DF-RHF Final Energy:  -305.66731944183942
    Total Energy =                       -305.6673194418393678
  Basis Set: CC-PVTZ
  Basis Set:
  Charge       = 0
  Multiplicity = 1
  Basis Set: CC-PVTZ
  Basis Set:

    Orbital Energies (a.u.)
    -----------------------

    Doubly Occupied:

       1A    -20.574612     2A    -11.291004     3A    -11.234065
       4A    -11.233063     5A    -11.226253     6A    -11.224094
       7A    -11.223373     8A     -1.402316     9A     -1.153139
      10A     -1.022397    11A     -1.008379    12A     -0.842781
      13A     -0.827846    14A     -0.739055    15A     -0.685369
      16A     -0.652168    17A     -0.628578    18A     -0.597920
      19A     -0.591897    20A     -0.534258    21A     -0.517338
      22A     -0.497455    23A     -0.475764    24A     -0.342125
      25A     -0.325220

  @DF-RHF Final Energy:  -305.66732155212333

   => Energetics <=

    Nuclear Repulsion Energy =            273.4439418126811461
    One-Electron Energy =                -956.5215887366052812
    Two-Electron Energy =                 377.4103253718004680
    DFT Exchange-Correlation Energy =       0.0000000000000000
    Empirical Dispersion Energy =           0.0000000000000000
    PCM Polarization Energy =               0.0000000000000000
    EFP Energy =                            0.0000000000000000
    Total Energy =                       -305.6673215521236671
    Molecular point group: c1
  Basis Set: CC-PVTZ
  Basis Set:

  -Total Gradient:
     Atom            X                  Y                   Z
    ------   -----------------  -----------------  -----------------
       1       -0.000087586243     0.000075249268    -0.002168991730
       2        0.000137254638    -0.000837987635     0.003115079806
       3       -0.000080459567     0.002069216228    -0.001855853339
       4       -0.000092814218    -0.001390401832     0.000830719300
       5        0.000208574819     0.000022431004     0.000024232549
       6       -0.000045192199    -0.000001953904    -0.000016029033
       7        0.000107577699     0.000061428502     0.000015104786
       8        0.000055813163     0.000006483212     0.000018388852
       9       -0.000191292693     0.000078062314     0.000088978179
      10       -0.000043204949    -0.000013954149     0.000001988212
      11        0.000013020688    -0.000098990209    -0.000130453684
      12        0.000022449212     0.000004967209     0.000017045845
      13       -0.000004140350     0.000025449993     0.000059790260

  **** Optimization is complete! (in 5 steps) ****
    Final optimized geometry and variables:
    Molecular point group: c1

    Geometry (in Angstrom), charge = 0, multiplicity = 1:

    H            2.687024603387     0.628454336484    -0.069802455219
    O            2.258403415266    -0.208758899453    -0.083799474989
    C            0.904413040313    -0.057655623866    -0.035880866534
    C            0.295322001221     0.576072798491     1.031607888724
    C            0.140053850992    -0.609785671903    -1.044659530083
    H            0.898493090267     0.978238571487     1.823449894982
    C           -1.082015979493     0.676430673593     1.072987886992
    H            0.631550783509    -1.108426368137    -1.856832963198
    C           -1.237676739516    -0.515724707826    -0.988506072526
    H           -1.551452773482     1.172935594448     1.900846058576
    C           -1.855017620559     0.130883896140     0.065394733723
    H           -1.828712923445    -0.946732260077    -1.774005485135
    H           -2.924479861829     0.204683865264     0.104380035403

  Mulliken Charges: (a.u.)
   Center  Symbol    Alpha    Beta     Spin     Total
       1     H     0.38625  0.38625  0.00000  0.22749
       2     O     4.18873  4.18873  0.00000 -0.37745
       3     C     2.86948  2.86948  0.00000  0.26103
       4     C     3.11956  3.11956  0.00000 -0.23911
       5     C     3.10754  3.10754  0.00000 -0.21508
       6     H     0.42208  0.42208  0.00000  0.15584
       7     C     3.06806  3.06806  0.00000 -0.13612
       8     H     0.41651  0.41651  0.00000  0.16699
       9     C     3.06490  3.06490  0.00000 -0.12979
      10     H     0.42201  0.42201  0.00000  0.15598
      11     C     3.08972  3.08972  0.00000 -0.17943
      12     H     0.42186  0.42186  0.00000  0.15627
      13     H     0.42331  0.42331  0.00000  0.15338

   Total alpha = 25.00000, Total beta = 25.00000, Total charge =  0.00000
