  ==> Input File <==

--------------------------------------------------------------------------
set {
	reference rhf
	basis 6-31G*
}

set_num_threads( 4 )
memory 2 gb

molecule MOL {
0 1

H	 -3.407059	 -1.043082	 0.000000
O	 -3.119761	 -0.140267	 0.000000
C	 -1.777559	 -0.059267	 0.000000
C	 -1.108397	 1.161071	 -0.000000
C	 -1.065958	 -1.252452	 0.000000
H	 -1.667498	 2.081243	 -0.000000
C	 0.270489	 1.183266	 -0.000000
H	 -1.604818	 -2.180838	 0.000000
C	 0.312790	 -1.213867	 -0.000000
H	 0.799760	 2.117595	 -0.000000
C	 0.997528	 -0.002769	 0.000000
H	 0.864714	 -2.138228	 -0.000000
C	 2.473455	 0.022756	 0.000000
O	 3.135595	 1.013881	 -0.000000
H	 2.952367	 -0.962033	 -0.000000

	symmetry c1
}
set optking {
	frozen_dihedral = ("
		5 3 2 1
	")
}

ee = optimize('scf')
oeprop('DIPOLE', 'QUADRUPOLE', 'MULLIKEN_CHARGES')
f=open( 'psi4out.xyz', 'w' )
f.write( "15  " )
f.write( str(ee) + "\n" )
f.write( MOL.save_string_xyz() )
f.close()
--------------------------------------------------------------------------

    Molecular point group: c1
  Charge       = 0
  Multiplicity = 1
  Basis Set: 6-31G*
  Basis Set:
  @DF-RHF Final Energy:  -418.28763063924816
    Total Energy =                       -418.2876306392479364
    Molecular point group: c1
  Basis Set: 6-31G*
  Basis Set:
  Basis Set: 6-31G*
  Basis Set:
  @DF-RHF Final Energy:  -418.28965604145446
    Total Energy =                       -418.2896560414543501
  Basis Set: 6-31G*
  Basis Set:
  Basis Set: 6-31G*
  Basis Set:
  @DF-RHF Final Energy:  -418.28984290690732
    Total Energy =                       -418.2898429069073245
  Basis Set: 6-31G*
  Basis Set:
  Basis Set: 6-31G*
  Basis Set:
  @DF-RHF Final Energy:  -418.28986460665192
    Total Energy =                       -418.2898646066519177
  Basis Set: 6-31G*
  Basis Set:
  Charge       = 0
  Multiplicity = 1
  Basis Set: 6-31G*
  Basis Set:

    Orbital Energies (a.u.)
    -----------------------

    Doubly Occupied:

       1A    -20.611411     2A    -20.555607     3A    -11.327809
       4A    -11.324148     5A    -11.263514     6A    -11.253710
       7A    -11.245261     8A    -11.238786     9A    -11.237734
      10A     -1.432509    11A     -1.396854    12A     -1.170626
      13A     -1.043050    14A     -1.037020    15A     -0.893843
      16A     -0.858524    17A     -0.802832    18A     -0.756823
      19A     -0.695495    20A     -0.685774    21A     -0.639298
      22A     -0.624310    23A     -0.609134    24A     -0.608480
      25A     -0.582107    26A     -0.557360    27A     -0.549199
      28A     -0.506688    29A     -0.483751    30A     -0.418282
      31A     -0.357409    32A     -0.326944

  @DF-RHF Final Energy:  -418.28986769311189

   => Energetics <=

    Nuclear Repulsion Energy =            401.3527366473249458
    One-Electron Energy =               -1365.0966201531578008
    Two-Electron Energy =                 545.4540158127206269
    DFT Exchange-Correlation Energy =       0.0000000000000000
    Empirical Dispersion Energy =           0.0000000000000000
    PCM Polarization Energy =               0.0000000000000000
    EFP Energy =                            0.0000000000000000
    Total Energy =                       -418.2898676931122282
    Molecular point group: c1
  Basis Set: 6-31G*
  Basis Set:

  -Total Gradient:
     Atom            X                  Y                   Z
    ------   -----------------  -----------------  -----------------
       1       -0.000030918653     0.000010731470     0.000000000001
       2       -0.000030509554    -0.000045589047    -0.000000000001
       3       -0.000001950131     0.000110511818    -0.000000000009
       4        0.000031021500     0.000028634234     0.000000000025
       5       -0.000016609354    -0.000065123771     0.000000000039
       6       -0.000043538313    -0.000026717986     0.000000000006
       7        0.000060569886    -0.000051681311    -0.000000000042
       8        0.000023024628     0.000020103534     0.000000000008
       9       -0.000006579879    -0.000020681740    -0.000000000043
      10       -0.000016528180    -0.000002132519     0.000000000001
      11       -0.000020784925     0.000076539758    -0.000000000581
      12        0.000039548400     0.000005647416    -0.000000000017
      13       -0.000015328497    -0.000058381155     0.000000002053
      14        0.000025034066     0.000006235490    -0.000000000733
      15        0.000003549007     0.000011903810    -0.000000000707

  **** Optimization is complete! (in 5 steps) ****
    Final optimized geometry and variables:
    Molecular point group: c1

    Geometry (in Angstrom), charge = 0, multiplicity = 1:

    H           -3.471309846309    -1.026897448258    -0.000000001457
    O           -3.114499166045    -0.149290257163    -0.000000001270
    C           -1.770135435294    -0.173085025996    -0.000000000358
    C           -1.112672516889     1.056770638486     0.000000000073
    C           -1.047774314116    -1.356805269475     0.000000000204
    H           -1.698636269501     1.956438957712    -0.000000000345
    C            0.260963518859     1.090242800536     0.000000001051
    H           -1.559068429659    -2.304058548432    -0.000000000107
    C            0.335818224010    -1.306567534791     0.000000001175
    H            0.782602511226     2.028849804972     0.000000001461
    C            1.004013008120    -0.092720977164     0.000000001670
    H            0.895229031119    -2.226366999298     0.000000001620
    C            2.479414145191    -0.054781490474     0.000000002962
    O            3.133592102476     0.941506256586    -0.000000003657
    H            2.966585598062    -1.035625708523    -0.000000003656

  Mulliken Charges: (a.u.)
   Center  Symbol    Alpha    Beta     Spin     Total
       1     H     0.26880  0.26880  0.00000  0.46240
       2     O     4.37251  4.37251  0.00000 -0.74503
       3     C     2.78492  2.78492  0.00000  0.43016
       4     C     3.12663  3.12663  0.00000 -0.25327
       5     C     3.14934  3.14934  0.00000 -0.29867
       6     H     0.38545  0.38545  0.00000  0.22910
       7     C     3.07889  3.07889  0.00000 -0.15778
       8     H     0.39890  0.39890  0.00000  0.20220
       9     C     3.09178  3.09178  0.00000 -0.18356
      10     H     0.37469  0.37469  0.00000  0.25062
      11     C     3.06785  3.06785  0.00000 -0.13570
      12     H     0.38985  0.38985  0.00000  0.22029
      13     C     2.83064  2.83064  0.00000  0.33871
      14     O     4.25421  4.25421  0.00000 -0.50843
      15     H     0.42553  0.42553  0.00000  0.14895

   Total alpha = 32.00000, Total beta = 32.00000, Total charge = -0.00000
