                              Psi4 1.0.54 Driver

  ==> Input File <==

--------------------------------------------------------------------------
set {
	reference rhf
	basis cc-pvtz
}

set_num_threads( 4 )
memory 2 gb

molecule MOL {
0 1

H	 -2.171709	 0.882708	 0.500286
C	 -2.016894	 0.001719	 -0.114152
O	 -0.775228	 0.000056	 -0.739966
H	 -2.760846	 0.003757	 -0.898169
H	 -2.174774	 -0.879864	 0.498643
C	 0.400460	 0.177412	 0.025267
C	 1.522744	 0.113761	 -1.004933
C	 0.407126	 1.541447	 0.718092
C	 0.568573	 -0.948031	 1.047867
H	 1.394185	 0.892930	 -1.745522
H	 1.507662	 -0.841202	 -1.514759
H	 2.490179	 0.239792	 -0.533601
H	 0.222293	 2.329667	 -0.001780
H	 1.370835	 1.720535	 1.179701
H	 -0.342509	 1.606617	 1.496784
H	 0.497342	 -1.912871	 0.560321
H	 1.539386	 -0.877494	 1.523708
H	 -0.179604	 -0.903563	 1.829418

	symmetry c1
}
set optking {
	frozen_dihedral = ("
		6 3 2 5
	")
}

ee,wfn = optimize('scf', return_wfn=True)
oeprop( wfn, 'DIPOLE', 'QUADRUPOLE', 'MULLIKEN_CHARGES')
f=open( 'psi4out.xyz', 'w' )
f.write( "18  " )
f.write( str(ee) + "\n" )
f.write( MOL.save_string_xyz() )
f.close()
--------------------------------------------------------------------------

    Molecular point group: c1
  Charge       = 0
  Multiplicity = 1
  Basis Set: CC-PVTZ
  Basis Set:
  @DF-RHF Final Energy:  -271.27661919504067
    Total Energy =                       -271.2766191950406665
    Molecular point group: c1
  Basis Set: CC-PVTZ
  Basis Set:
  Basis Set: CC-PVTZ
  Basis Set:
  @DF-RHF Final Energy:  -271.26156070315176
    Total Energy =                       -271.2615607031520426
  Basis Set: CC-PVTZ
  Basis Set:
  Basis Set: CC-PVTZ
  Basis Set:
  @DF-RHF Final Energy:  -271.27637840350320
    Total Energy =                       -271.2763784035030312
  Basis Set: CC-PVTZ
  Basis Set:
  Basis Set: CC-PVTZ
  Basis Set:
  @DF-RHF Final Energy:  -271.27668182536138
    Total Energy =                       -271.2766818253611518
  Basis Set: CC-PVTZ
  Basis Set:
  Basis Set: CC-PVTZ
  Basis Set:
  @DF-RHF Final Energy:  -271.27669254624215
    Total Energy =                       -271.2766925462420886
  Basis Set: CC-PVTZ
  Basis Set:
  Basis Set: CC-PVTZ
  Basis Set:
  @DF-RHF Final Energy:  -271.27669293398532
    Total Energy =                       -271.2766929339856006
  Basis Set: CC-PVTZ
  Basis Set:
  Basis Set: CC-PVTZ
  Basis Set:
  @DF-RHF Final Energy:  -271.27670588929283
    Total Energy =                       -271.2767058892926002
  Basis Set: CC-PVTZ
  Basis Set:
  Charge       = 0
  Multiplicity = 1
  Basis Set: CC-PVTZ
  Basis Set:

    Orbital Energies (a.u.)
    -----------------------

    Doubly Occupied:

       1A    -20.540547     2A    -11.280122     3A    -11.258183
       4A    -11.207682     5A    -11.206470     6A    -11.201826
       7A     -1.373568     8A     -1.074603     9A     -0.946942
      10A     -0.940657    11A     -0.913191    12A     -0.753492
      13A     -0.656634    14A     -0.646774    15A     -0.639541
      16A     -0.593498    17A     -0.575465    18A     -0.553293
      19A     -0.534560    20A     -0.525002    21A     -0.515141
      22A     -0.489021    23A     -0.487743    24A     -0.440831
      25A     -0.407375

  @DF-RHF Final Energy:  -271.27670572213617

   => Energetics <=

    Nuclear Repulsion Energy =            272.6851023023413063
    One-Electron Energy =                -908.3992987018390295
    Two-Electron Energy =                 364.4374906773614384
    DFT Exchange-Correlation Energy =       0.0000000000000000
    Empirical Dispersion Energy =           0.0000000000000000
    PCM Polarization Energy =               0.0000000000000000
    EFP Energy =                            0.0000000000000000
    Total Energy =                       -271.2767057221362847
    Molecular point group: c1
  Basis Set: CC-PVTZ
  Basis Set:

  -Total Gradient:
     Atom            X                  Y                   Z
    ------   -----------------  -----------------  -----------------
       1       -0.000030837017     0.000038427221     0.000043655100
       2        0.000143511865     0.000312928439     0.000571195877
       3        0.000091876285    -0.000590628946    -0.000259666448
       4        0.000001472451    -0.000004118497    -0.000011492331
       5       -0.000142425277    -0.000165229898    -0.000387173127
       6       -0.000043832790     0.000416352228     0.000047108771
       7        0.000007460338    -0.000028107870    -0.000013908248
       8       -0.000014242243    -0.000010772984     0.000011106198
       9       -0.000005378784    -0.000035264852    -0.000015032617
      10       -0.000013615720     0.000009959945     0.000024396307
      11        0.000006014241     0.000003502986    -0.000028292779
      12        0.000005053897    -0.000020983457    -0.000001838168
      13        0.000027219506     0.000014398389    -0.000017760202
      14        0.000000392290    -0.000011500002     0.000013406831
      15       -0.000032437686     0.000016538848     0.000029318655
      16        0.000001085128     0.000050654505     0.000042121359
      17       -0.000038344070    -0.000002815765    -0.000010804917
      18        0.000037027585     0.000006659712    -0.000036340259

  **** Optimization is complete! (in 8 steps) ****
    Final optimized geometry and variables:
    Molecular point group: c1

    Geometry (in Angstrom), charge = 0, multiplicity = 1:

    H           -2.239817922303     0.503526399071     0.492164896524
    C           -1.984341324580    -0.130434128468    -0.350452764773
    O           -0.691283111879     0.085840554376    -0.814680604251
    H           -2.652827552297     0.109226798542    -1.165399032697
    H           -2.152595501168    -1.165579180447    -0.070233770245
    C            0.398506995171     0.024164493765     0.084242294146
    C            1.624230868761     0.173002428171    -0.810329303202
    C            0.343800833658     1.179597425980     1.085920366408
    C            0.444016288564    -1.320243851385     0.812176614610
    H            1.579839531361     1.110405373737    -1.350112157105
    H            1.658752181924    -0.631220766023    -1.534333257036
    H            2.536362812048     0.152824186725    -0.225818402398
    H            0.259463863030     2.124305940690     0.562761403549
    H            1.247319227510     1.199689475605     1.683811194371
    H           -0.493095297672     1.090417164754     1.767129666904
    H            0.420750490471    -2.136507944427     0.100189648113
    H            1.356322913670    -1.399731256029     1.390861929776
    H           -0.386894633751    -1.439631130237     1.496409349015

  Mulliken Charges: (a.u.)
   Center  Symbol    Alpha    Beta     Spin     Total
       1     H     0.47025  0.47025  0.00000  0.05950
       2     C     3.04458  3.04458  0.00000 -0.08917
       3     O     4.19018  4.19018  0.00000 -0.38035
       4     H     0.44096  0.44096  0.00000  0.11809
       5     H     0.46804  0.46804  0.00000  0.06392
       6     C     2.87382  2.87382  0.00000  0.25236
       7     C     3.14150  3.14150  0.00000 -0.28301
       8     C     3.16112  3.16112  0.00000 -0.32224
       9     C     3.16679  3.16679  0.00000 -0.33359
      10     H     0.44847  0.44847  0.00000  0.10305
      11     H     0.44922  0.44922  0.00000  0.10156
      12     H     0.45934  0.45934  0.00000  0.08132
      13     H     0.44581  0.44581  0.00000  0.10838
      14     H     0.44946  0.44946  0.00000  0.10108
      15     H     0.44927  0.44927  0.00000  0.10146
      16     H     0.44496  0.44496  0.00000  0.11008
      17     H     0.44733  0.44733  0.00000  0.10535
      18     H     0.44890  0.44890  0.00000  0.10220

   Total alpha = 25.00000, Total beta = 25.00000, Total charge = -0.00000

*** Psi4 exiting successfully. Buy a developer a beer!
