                              Psi4 1.0.54 Driver

  ==> Input File <==

--------------------------------------------------------------------------
set {
	reference rhf
	basis cc-pvtz
}

set_num_threads( 4 )
memory 2 gb

molecule MOL {
0 1

O	 1.848501	 1.292910	 -0.057204
C	 1.704209	 0.119472	 -0.000093
C	 0.380337	 -0.600947	 -0.000234
O	 2.714386	 -0.731774	 0.072975
C	 -0.824290	 0.329213	 -0.000115
H	 0.371455	 -1.255476	 -0.865660
H	 0.371410	 -1.255787	 0.864952
C	 -2.146151	 -0.432825	 -0.000068
H	 -0.773936	 0.979158	 -0.866319
H	 -0.773838	 0.979034	 0.866186
C	 -3.366283	 0.483552	 0.000557
H	 -2.189286	 -1.084450	 -0.869996
H	 -2.188867	 -1.085083	 0.869399
C	 -4.687436	 -0.278003	 0.000108
H	 -3.325150	 1.134819	 -0.867957
H	 -3.325087	 1.133730	 0.869885
H	 -4.773783	 -0.912098	 -0.876078
H	 -5.531922	 0.401392	 0.000363
H	 -4.773901	 -0.912898	 0.875703
C	 4.019837	 -0.190436	 0.081771
H	 4.206907	 0.368596	 -0.823049
H	 4.690530	 -1.031896	 0.144725
H	 4.157075	 0.460214	 0.932673

	symmetry c1
}
set optking {
	frozen_dihedral = ("
		1 2 3 6
	")
}

ee,wfn = optimize('scf', return_wfn=True)
oeprop( wfn, 'DIPOLE', 'QUADRUPOLE', 'MULLIKEN_CHARGES')
f=open( 'psi4out.xyz', 'w' )
f.write( "23  " )
f.write( str(ee) + "\n" )
f.write( MOL.save_string_xyz() )
f.close()
--------------------------------------------------------------------------

    Molecular point group: c1
  Charge       = 0
  Multiplicity = 1
  Basis Set: CC-PVTZ
  Basis Set:
  @DF-RHF Final Energy:  -423.13108675582987
    Total Energy =                       -423.1310867558297559
    Molecular point group: c1
  Basis Set: CC-PVTZ
  Basis Set:
  Basis Set: CC-PVTZ
  Basis Set:
  @DF-RHF Final Energy:  -423.13103909313293
    Total Energy =                       -423.1310390931331540
  Basis Set: CC-PVTZ
  Basis Set:
  Basis Set: CC-PVTZ
  Basis Set:
  @DF-RHF Final Energy:  -423.13109127117980
    Total Energy =                       -423.1310912711797982
  Basis Set: CC-PVTZ
  Basis Set:
  Basis Set: CC-PVTZ
  Basis Set:
  @DF-RHF Final Energy:  -423.13109238290713
    Total Energy =                       -423.1310923829073545
  Basis Set: CC-PVTZ
  Basis Set:
  Charge       = 0
  Multiplicity = 1
  Basis Set: CC-PVTZ
  Basis Set:

    Orbital Energies (a.u.)
    -----------------------

    Doubly Occupied:

       1A    -20.596302     2A    -20.534084     3A    -11.364539
       4A    -11.278463     5A    -11.233772     6A    -11.217179
       7A    -11.215822     8A    -11.214508     9A    -11.207764
      10A     -1.472186    11A     -1.365750    12A     -1.094521
      13A     -1.044795    14A     -0.988045    15A     -0.932724
      16A     -0.844084    17A     -0.795573    18A     -0.769295
      19A     -0.699092    20A     -0.686910    21A     -0.675356
      22A     -0.652899    23A     -0.609771    24A     -0.600993
      25A     -0.573653    26A     -0.559806    27A     -0.557824
      28A     -0.525262    29A     -0.522235    30A     -0.508254
      31A     -0.484875    32A     -0.470185    33A     -0.467231
      34A     -0.463313    35A     -0.459092    36A     -0.438378

  @DF-RHF Final Energy:  -423.13109240520578

   => Energetics <=

    Nuclear Repulsion Energy =            452.8975626885068095
    One-Electron Energy =               -1473.8082409036469471
    Two-Electron Energy =                 597.7795858099341331
    DFT Exchange-Correlation Energy =       0.0000000000000000
    Empirical Dispersion Energy =           0.0000000000000000
    PCM Polarization Energy =               0.0000000000000000
    EFP Energy =                            0.0000000000000000
    Total Energy =                       -423.1310924052060045
    Molecular point group: c1
  Basis Set: CC-PVTZ
  Basis Set:

  -Total Gradient:
     Atom            X                  Y                   Z
    ------   -----------------  -----------------  -----------------
       1        0.000011629674    -0.000014940758    -0.000142020637
       2       -0.000020186214     0.000037745713     0.000201503372
       3        0.000063102111    -0.000120708139     0.000012088458
       4       -0.000001647120     0.000004769611     0.000012108264
       5       -0.000001427059    -0.000000190372     0.000007288190
       6       -0.000056525573     0.000091996473    -0.000072662439
       7        0.000003079953     0.000003705141    -0.000001877498
       8        0.000000397815    -0.000000612514    -0.000001302981
       9        0.000000216989    -0.000000100462    -0.000001092367
      10        0.000000577614    -0.000000105687    -0.000001590080
      11        0.000000401111     0.000000289343    -0.000001561911
      12       -0.000000608786     0.000000109965    -0.000000368927
      13        0.000000215382    -0.000000911682    -0.000000526584
      14       -0.000000117787    -0.000000123055     0.000002331105
      15        0.000000029722    -0.000000036766    -0.000000274466
      16       -0.000000229132     0.000000370633    -0.000000511507
      17        0.000000447061     0.000000751610     0.000000080146
      18        0.000000038834    -0.000000054702     0.000000611747
      19       -0.000000490164    -0.000000694087    -0.000000145999
      20        0.000005353332    -0.000001842597    -0.000023003834
      21        0.000003576431     0.000001146631     0.000004496965
      22        0.000001849331     0.000000503851     0.000003376005
      23       -0.000009683516    -0.000001068146     0.000003054976

  **** Optimization is complete! (in 5 steps) ****
    Final optimized geometry and variables:
    Molecular point group: c1

    Geometry (in Angstrom), charge = 0, multiplicity = 1:

    O            1.848295254260     1.292924689697    -0.043247672502
    C            1.704095499655     0.119428379384     0.013106403527
    C            0.380548642010    -0.601496630446     0.002268496279
    O            2.714357315230    -0.731563283548     0.088550125246
    C           -0.824056727058     0.328622529959    -0.015600478986
    H            0.382296423092    -1.255444958520    -0.864054829721
    H            0.360887131372    -1.256065149501     0.867002482252
    C           -2.145755301224    -0.433506527350    -0.032330218228
    H           -0.761585586567     0.977348841698    -0.881694224857
    H           -0.785811952006     0.979609181724     0.850698292323
    C           -3.365779664392     0.482801295986    -0.049469810734
    H           -2.176970830694    -1.086134776165    -0.902023266999
    H           -2.200328038645    -1.084725539744     0.837250708313
    C           -4.686772823881    -0.278823792725    -0.066363531725
    H           -3.313021926471     1.132696587986    -0.918370889924
    H           -3.336272889815     1.134305592287     0.819350980770
    H           -4.761498960861    -0.914040120288    -0.942809805935
    H           -5.531224066649     0.400526218694    -0.078130673596
    H           -4.784751322746    -0.912618299534     0.808825472109
    C            4.019663082524    -0.190054781843     0.096803574312
    H            4.207163728991     0.367290513492    -0.808997532421
    H            4.690524356544    -1.031256550535     0.161689937048
    H            4.156452258050     0.462259981972     0.946501042033

  Mulliken Charges: (a.u.)
   Center  Symbol    Alpha    Beta     Spin     Total
       1     O     4.19705  4.19705  0.00000 -0.39410
       2     C     2.80703  2.80703  0.00000  0.38594
       3     C     3.10101  3.10101  0.00000 -0.20202
       4     O     4.14644  4.14644  0.00000 -0.29287
       5     C     3.08335  3.08335  0.00000 -0.16669
       6     H     0.44056  0.44056  0.00000  0.11889
       7     H     0.43976  0.43976  0.00000  0.12048
       8     C     3.08934  3.08934  0.00000 -0.17867
       9     H     0.44569  0.44569  0.00000  0.10861
      10     H     0.44704  0.44704  0.00000  0.10591
      11     C     3.08400  3.08400  0.00000 -0.16800
      12     H     0.45577  0.45577  0.00000  0.08847
      13     H     0.45584  0.45584  0.00000  0.08833
      14     C     3.15039  3.15039  0.00000 -0.30078
      15     H     0.45321  0.45321  0.00000  0.09357
      16     H     0.45334  0.45334  0.00000  0.09333
      17     H     0.45531  0.45531  0.00000  0.08938
      18     H     0.44773  0.44773  0.00000  0.10454
      19     H     0.45534  0.45534  0.00000  0.08932
      20     C     3.03777  3.03777  0.00000 -0.07555
      21     H     0.45436  0.45436  0.00000  0.09127
      22     H     0.44533  0.44533  0.00000  0.10933
      23     H     0.45435  0.45435  0.00000  0.09131

   Total alpha = 36.00000, Total beta = 36.00000, Total charge = -0.00000

*** Psi4 exiting successfully. Buy a developer a beer!
