  ==> Input File <==

--------------------------------------------------------------------------
set {
	reference rhf
	basis 6-31G*
}

set_num_threads( 1 )
memory 2 gb

molecule MOL {
0 1

H	 -3.346325	 -0.645989	 -0.899800
O	 -3.517110	 -0.026191	 -0.205115
C	 -2.306886	 0.532354	 0.237577
C	 -1.177863	 -0.397191	 -0.171080
H	 -2.156308	 1.517575	 -0.201710
H	 -2.315015	 0.655684	 1.319734
C	 0.198102	 0.111031	 0.262842
H	 -1.208843	 -0.518759	 -1.250427
H	 -1.368741	 -1.376554	 0.258909
C	 1.331804	 -0.827780	 -0.158768
H	 0.361943	 1.100838	 -0.156218
H	 0.217265	 0.229072	 1.345532
C	 2.723619	 -0.410569	 0.329459
H	 1.342964	 -0.912588	 -1.244120
H	 1.116806	 -1.824343	 0.220779
C	 3.243875	 0.895854	 -0.272975
H	 3.424222	 -1.207124	 0.091250
H	 2.714788	 -0.329854	 1.414619
H	 3.251977	 0.848779	 -1.358681
H	 2.637085	 1.747371	 0.016682
H	 4.259473	 1.094070	 0.055697

	symmetry c1
}
set optking {
	frozen_dihedral = ("
		2 3 4 8,
		8 4 7 10,
		4 7 10 14,
		16 13 10 14
	")
}

ee = energy('scf')
oeprop('DIPOLE', 'QUADRUPOLE', 'MULLIKEN_CHARGES')
f=open( 'psi4out.xyz', 'w' )
f.write( "21  " )
f.write( str(ee) + "\n" )
f.write( MOL.save_string_xyz() )
f.close()
--------------------------------------------------------------------------

    Molecular point group: c1

    Geometry (in Angstrom), charge = 0, multiplicity = 1:

       Center              X                  Y                   Z               Mass
    ------------   -----------------  -----------------  -----------------  -----------------
           H         -3.355111261015    -0.634300994456    -0.890525918802     1.007825032070
           O         -3.525896261015    -0.014502994456    -0.195840918802    15.994914619560
           C         -2.315672261015     0.544042005544     0.246851081198    12.000000000000
           C         -1.186649261015    -0.385502994456    -0.161805918802    12.000000000000
           H         -2.165094261015     1.529263005544    -0.192435918802     1.007825032070
           H         -2.323801261015     0.667372005544     1.329008081198     1.007825032070
           C          0.189315738985     0.122719005544     0.272116081198    12.000000000000
           H         -1.217629261015    -0.507070994456    -1.241152918802     1.007825032070
           H         -1.377527261015    -1.364865994456     0.268183081198     1.007825032070
           C          1.323017738985    -0.816091994456    -0.149493918802    12.000000000000
           H          0.353156738985     1.112526005544    -0.146943918802     1.007825032070
           H          0.208478738985     0.240760005544     1.354806081198     1.007825032070
           C          2.714832738985    -0.398880994456     0.338733081198    12.000000000000
           H          1.334177738985    -0.900899994456    -1.234845918802     1.007825032070
           H          1.108019738985    -1.812654994456     0.230053081198     1.007825032070
           C          3.235088738985     0.907542005544    -0.263700918802    12.000000000000
           H          3.415435738985    -1.195435994456     0.100524081198     1.007825032070
           H          2.706001738985    -0.318165994456     1.423893081198     1.007825032070
           H          3.243190738985     0.860467005544    -1.349406918802     1.007825032070
           H          2.628298738985     1.759059005544     0.025956081198     1.007825032070
           H          4.250686738985     1.105758005544     0.064971081198     1.007825032070

  Charge       = 0
  Multiplicity = 1
  Basis Set: 6-31G*
  Basis Set:

    Orbital Energies (a.u.)
    -----------------------

    Doubly Occupied:

       1A    -20.548392     2A    -11.267253     3A    -11.222454
       4A    -11.221857     5A    -11.219414     6A    -11.218823
       7A    -11.211480     8A     -1.358186     9A     -1.092032
      10A     -1.037481    11A     -0.956796    12A     -0.880827
      13A     -0.827294    14A     -0.783817    15A     -0.676070
      16A     -0.653228    17A     -0.626982    18A     -0.622737
      19A     -0.593465    20A     -0.574376    21A     -0.549378
      22A     -0.529696    23A     -0.506750    24A     -0.500231
      25A     -0.486338    26A     -0.466798    27A     -0.461177
      28A     -0.444205    29A     -0.428362

  @DF-RHF Final Energy:  -310.20906472813107

   => Energetics <=

    Nuclear Repulsion Energy =            313.3768781730471460
    One-Electron Energy =               -1041.2403060764543170
    Two-Electron Energy =                 417.6543631752763304
    DFT Exchange-Correlation Energy =       0.0000000000000000
    Empirical Dispersion Energy =           0.0000000000000000
    PCM Polarization Energy =               0.0000000000000000
    EFP Energy =                            0.0000000000000000
    Total Energy =                       -310.2090647281308975

  Mulliken Charges: (a.u.)
   Center  Symbol    Alpha    Beta     Spin     Total
       1     H     0.27913  0.27913  0.00000  0.44175
       2     O     4.37719  4.37719  0.00000 -0.75439
       3     C     2.97075  2.97075  0.00000  0.05849
       4     C     3.18703  3.18703  0.00000 -0.37405
       5     H     0.42914  0.42914  0.00000  0.14172
       6     H     0.42157  0.42157  0.00000  0.15686
       7     C     3.16034  3.16034  0.00000 -0.32069
       8     H     0.42463  0.42463  0.00000  0.15073
       9     H     0.41522  0.41522  0.00000  0.16956
      10     C     3.15234  3.15234  0.00000 -0.30467
      11     H     0.41901  0.41901  0.00000  0.16198
      12     H     0.42095  0.42095  0.00000  0.15810
      13     C     3.15282  3.15282  0.00000 -0.30564
      14     H     0.42378  0.42378  0.00000  0.15244
      15     H     0.42131  0.42131  0.00000  0.15739
      16     C     3.24154  3.24154  0.00000 -0.48308
      17     H     0.42013  0.42013  0.00000  0.15973
      18     H     0.42268  0.42268  0.00000  0.15465
      19     H     0.42202  0.42202  0.00000  0.15596
      20     H     0.42010  0.42010  0.00000  0.15979
      21     H     0.41831  0.41831  0.00000  0.16337

   Total alpha = 29.00000, Total beta = 29.00000, Total charge =  0.00000
