                              Psi4 1.0.54 Driver

  ==> Input File <==

--------------------------------------------------------------------------
set {
	reference rhf
	basis cc-pvtz
}

set_num_threads( 4 )
memory 2 gb

molecule MOL {
0 1

H	 -0.000105	 1.988529	 0.748933
O	 -0.000098	 1.879786	 -0.188206
C	 -0.000014	 0.545691	 -0.532416
C	 -1.155657	 -0.178541	 0.160227
C	 1.377277	 -0.066804	 -0.272238
H	 -0.178496	 0.477190	 -1.595484
F	 -2.289597	 0.367759	 -0.203910
F	 -1.203864	 -1.449436	 -0.149956
F	 -1.067002	 -0.079202	 1.469290
F	 2.275481	 0.569127	 -0.983348
F	 1.428591	 -1.333314	 -0.599399
F	 1.719005	 0.043713	 0.993615

	symmetry c1
}
set optking {
	frozen_dihedral = ("
		6 3 2 1
	")
}

ee,wfn = optimize('scf', return_wfn=True)
oeprop( wfn, 'DIPOLE', 'QUADRUPOLE', 'MULLIKEN_CHARGES')
f=open( 'psi4out.xyz', 'w' )
f.write( "12  " )
f.write( str(ee) + "\n" )
f.write( MOL.save_string_xyz() )
f.close()
--------------------------------------------------------------------------

    Molecular point group: c1
  Charge       = 0
  Multiplicity = 1
  Basis Set: CC-PVTZ
  Basis Set:
  @DF-RHF Final Energy:  -786.58928935946392
    Total Energy =                       -786.5892893594642601
    Molecular point group: c1
  Basis Set: CC-PVTZ
  Basis Set:
  Basis Set: CC-PVTZ
  Basis Set:
  @DF-RHF Final Energy:  -786.58931030574308
    Total Energy =                       -786.5893103057435383
  Basis Set: CC-PVTZ
  Basis Set:
  Basis Set: CC-PVTZ
  Basis Set:
  @DF-RHF Final Energy:  -786.58932114615516
    Total Energy =                       -786.5893211461548162
  Basis Set: CC-PVTZ
  Basis Set:
  Charge       = 0
  Multiplicity = 1
  Basis Set: CC-PVTZ
  Basis Set:

    Orbital Energies (a.u.)
    -----------------------

    Doubly Occupied:

       1A    -26.360485     2A    -26.358975     3A    -26.356493
       4A    -26.355677     5A    -26.355490     6A    -26.352161
       7A    -20.609805     8A    -11.521624     9A    -11.518041
      10A    -11.351609    11A     -1.772556    12A     -1.766017
      13A     -1.668454    14A     -1.664261    15A     -1.662442
      16A     -1.660214    17A     -1.439709    18A     -1.103245
      19A     -1.002002    20A     -0.945346    21A     -0.871284
      22A     -0.869056    23A     -0.859751    24A     -0.852017
      25A     -0.839849    26A     -0.821759    27A     -0.749829
      28A     -0.734834    29A     -0.730804    30A     -0.725504
      31A     -0.696488    32A     -0.692467    33A     -0.690371
      34A     -0.681339    35A     -0.677317    36A     -0.669817
      37A     -0.663041    38A     -0.657984    39A     -0.625228
      40A     -0.553915    41A     -0.510192

  @DF-RHF Final Energy:  -786.58932196333228

   => Energetics <=

    Nuclear Repulsion Energy =            670.8575670158919593
    One-Electron Energy =               -2428.8988678572868594
    Two-Electron Energy =                 971.4519788780623912
    DFT Exchange-Correlation Energy =       0.0000000000000000
    Empirical Dispersion Energy =           0.0000000000000000
    PCM Polarization Energy =               0.0000000000000000
    EFP Energy =                            0.0000000000000000
    Total Energy =                       -786.5893219633323952
    Molecular point group: c1
  Basis Set: CC-PVTZ
  Basis Set:

  -Total Gradient:
     Atom            X                  Y                   Z
    ------   -----------------  -----------------  -----------------
       1       -0.001326428879    -0.000032029641    -0.000033862234
       2        0.001385549787     0.000029019685     0.000075353460
       3        0.001085221197     0.000101713955    -0.000240442689
       4       -0.000020003232     0.000064456178     0.000103005634
       5        0.000055294453    -0.000160879054    -0.000024596653
       6       -0.001160716654    -0.000064816058     0.000170763310
       7        0.000062467632     0.000009900508    -0.000022617278
       8        0.000020582939    -0.000093591023    -0.000072063034
       9        0.000005472027     0.000028102350     0.000006256349
      10       -0.000041448363     0.000065901894    -0.000009679186
      11       -0.000024740911     0.000012596449     0.000004693440
      12       -0.000041249985     0.000039624762     0.000043188884

  **** Optimization is complete! (in 4 steps) ****
    Final optimized geometry and variables:
    Molecular point group: c1

    Geometry (in Angstrom), charge = 0, multiplicity = 1:

    H           -0.159837190905     1.983084736859     0.760506037559
    O           -0.140384654982     1.876144726752    -0.176485246166
    C           -0.108606281921     0.543025812273    -0.524255261087
    C           -1.267509759649    -0.204760791672     0.137034987763
    C            1.272323109230    -0.045298879249    -0.230533803002
    H           -0.265944694032     0.473028675008    -1.590667127151
    F           -2.402861891627     0.295983081046    -0.284936396470
    F           -1.262219128949    -1.482859388982    -0.142252650581
    F           -1.236958185947    -0.070355746841     1.446393668350
    F            2.180525147606     0.634740295792    -0.885105413757
    F            1.364581130690    -1.298304207033    -0.601214629249
    F            1.563269711062     0.025915613803     1.049931375035

  Mulliken Charges: (a.u.)
   Center  Symbol    Alpha    Beta     Spin     Total
       1     H     0.38128  0.38128  0.00000  0.23743
       2     O     4.18999  4.18999  0.00000 -0.37997
       3     C     3.00459  3.00459  0.00000 -0.00917
       4     C     2.68589  2.68589  0.00000  0.62822
       5     C     2.68475  2.68475  0.00000  0.63050
       6     H     0.42476  0.42476  0.00000  0.15049
       7     F     4.60225  4.60225  0.00000 -0.20449
       8     F     4.60123  4.60123  0.00000 -0.20246
       9     F     4.61069  4.61069  0.00000 -0.22138
      10     F     4.60176  4.60176  0.00000 -0.20352
      11     F     4.60338  4.60338  0.00000 -0.20676
      12     F     4.60945  4.60945  0.00000 -0.21889

   Total alpha = 41.00000, Total beta = 41.00000, Total charge = -0.00000

*** Psi4 exiting successfully. Buy a developer a beer!
