  ==> Input File <==

--------------------------------------------------------------------------
set {
	reference rhf
	basis cc-pvtz
}

set_num_threads( 4 )
memory 2 gb

molecule MOL {
0 1

H	 -3.401682	 -1.036167	 -0.000000
O	 -3.113760	 -0.140926	 -0.000000
C	 -1.775087	 -0.058754	 -0.000000
C	 -0.966322	 -1.188504	 0.000000
C	 -1.211474	 1.206364	 0.000000
H	 -1.410986	 -2.166615	 -0.000000
C	 0.401078	 -1.047398	 -0.000000
H	 -1.853132	 2.064440	 -0.000000
C	 0.159522	 1.330443	 0.000000
H	 1.035984	 -1.911113	 -0.000000
C	 0.981121	 0.213562	 0.000000
H	 0.597857	 2.311453	 -0.000000
C	 2.447402	 0.371303	 0.000000
O	 3.227427	 -0.521847	 0.000000
H	 2.796538	 1.409525	 0.000000

	symmetry c1
}
set optking {
	frozen_dihedral = ("
		7 11 13 14
	")
}

ee = optimize('scf')
oeprop('DIPOLE', 'QUADRUPOLE', 'MULLIKEN_CHARGES')
f=open( 'psi4out.xyz', 'w' )
f.write( "15  " )
f.write( str(ee) + "\n" )
f.write( MOL.save_string_xyz() )
f.close()
--------------------------------------------------------------------------

    Molecular point group: c1
  Charge       = 0
  Multiplicity = 1
  Basis Set: CC-PVTZ
  Basis Set:

    Orbital Energies (a.u.)
    -----------------------

    Doubly Occupied:

       1A    -20.604951     2A    -20.545420     3A    -11.322701
       4A    -11.322635     5A    -11.258280     6A    -11.254727
       7A    -11.242394     8A    -11.236743     9A    -11.236599
      10A     -1.438133    11A     -1.401614    12A     -1.175309
      13A     -1.044926    14A     -1.042568    15A     -0.892199
      16A     -0.871166    17A     -0.797474    18A     -0.762657
      19A     -0.717909    20A     -0.670938    21A     -0.646191
      22A     -0.631393    23A     -0.615389    24A     -0.610920
      25A     -0.587511    26A     -0.562634    27A     -0.555376
      28A     -0.509158    29A     -0.490284    30A     -0.421557
      31A     -0.362620    32A     -0.331514

  @DF-RHF Final Energy:  -418.44265919864046

   => Energetics <=

    Nuclear Repulsion Energy =            402.3178368124917483
    One-Electron Energy =               -1367.1932211771716084
    Two-Electron Energy =                 546.4327251660400862
    DFT Exchange-Correlation Energy =       0.0000000000000000
    Empirical Dispersion Energy =           0.0000000000000000
    PCM Polarization Energy =               0.0000000000000000
    EFP Energy =                            0.0000000000000000
    Total Energy =                       -418.4426591986397170
    Molecular point group: c1
  Basis Set: CC-PVTZ
  Basis Set:

  -Total Gradient:
     Atom            X                  Y                   Z
    ------   -----------------  -----------------  -----------------
       1       -0.000007730205     0.000165330016     0.000000000000
       2       -0.000201747339    -0.000189613450    -0.000000000000
       3        0.000283586649    -0.000300046931     0.000000000000
       4       -0.000366638707     0.000141620615    -0.000000000000
       5        0.000277432521     0.000213449277     0.000000000000
       6        0.000039854417     0.000029028827     0.000000000000
       7        0.000264138672     0.000128029980     0.000000000000
       8       -0.000020702387    -0.000066931814     0.000000000000
       9       -0.000317185902     0.000136120940    -0.000000000000
      10       -0.000010166410     0.000049433308    -0.000000000000
      11        0.000120302813    -0.000248642669    -0.000000000000
      12        0.000015839111    -0.000036811685    -0.000000000000
      13       -0.000284343752     0.000198728579     0.000000000000
      14        0.000152833197    -0.000099426523     0.000000000000
      15        0.000054527323    -0.000120268473    -0.000000000000

  **** Optimization is complete! (in 1 steps) ****
    Final optimized geometry and variables:
    Molecular point group: c1

    Geometry (in Angstrom), charge = 0, multiplicity = 1:

    H           -3.401682497547    -1.036166771723     0.000000000000
    O           -3.113760497547    -0.140925771723     0.000000000000
    C           -1.775087497547    -0.058753771723     0.000000000000
    C           -0.966322497547    -1.188503771723     0.000000000000
    C           -1.211474497547     1.206364228277     0.000000000000
    H           -1.410986497547    -2.166614771723     0.000000000000
    C            0.401077502453    -1.047397771723     0.000000000000
    H           -1.853132497547     2.064440228277     0.000000000000
    C            0.159521502453     1.330443228277     0.000000000000
    H            1.035983502453    -1.911112771723     0.000000000000
    C            0.981120502453     0.213562228277     0.000000000000
    H            0.597856502453     2.311453228277     0.000000000000
    C            2.447401502453     0.371303228277     0.000000000000
    O            3.227426502453    -0.521846771723     0.000000000000
    H            2.796537502453     1.409525228277     0.000000000000

  Mulliken Charges: (a.u.)
   Center  Symbol    Alpha    Beta     Spin     Total
       1     H     0.38538  0.38538  0.00000  0.22925
       2     O     4.16619  4.16619  0.00000 -0.33238
       3     C     2.84401  2.84401  0.00000  0.31199
       4     C     3.13262  3.13262  0.00000 -0.26523
       5     C     3.10867  3.10867  0.00000 -0.21733
       6     H     0.43099  0.43099  0.00000  0.13802
       7     C     3.06648  3.06648  0.00000 -0.13296
       8     H     0.41665  0.41665  0.00000  0.16669
       9     C     3.06582  3.06582  0.00000 -0.13163
      10     H     0.40706  0.40706  0.00000  0.18588
      11     C     3.00405  3.00405  0.00000 -0.00810
      12     H     0.42140  0.42140  0.00000  0.15721
      13     C     2.91094  2.91094  0.00000  0.17811
      14     O     4.17923  4.17923  0.00000 -0.35847
      15     H     0.46052  0.46052  0.00000  0.07896

   Total alpha = 32.00000, Total beta = 32.00000, Total charge = -0.00000
