  ==> Input File <==

--------------------------------------------------------------------------
set {
	reference rhf
	basis 6-31G*
}

set_num_threads( 4 )
memory 2 gb

molecule MOL {
0 1

H	 3.354422	 -1.036825	 3.687608
C	 2.826132	 -1.325014	 2.784499
C	 1.538487	 -0.518984	 2.619422
H	 3.497973	 -1.167683	 1.945389
H	 2.620877	 -2.389946	 2.848033
C	 0.763616	 -0.894581	 1.360494
H	 1.762727	 0.542533	 2.583550
H	 0.903681	 -0.672391	 3.490559
N	 -0.434209	 -0.089828	 1.222491
H	 1.387940	 -0.716871	 0.488942
H	 0.545696	 -1.967789	 1.371057
C	 -1.217365	 -0.386708	 0.039277
H	 -1.006791	 -0.202684	 2.037631
C	 -2.452633	 0.504241	 -0.042481
H	 -0.589723	 -0.209800	 -0.830048
H	 -1.520361	 -1.438105	 -0.006980
C	 -3.758029	 -0.289423	 -0.010781
H	 -2.394220	 1.093569	 -0.952170
H	 -2.440793	 1.210787	 0.785871
H	 -3.816659	 -0.981993	 -0.845726
H	 -4.617837	 0.370165	 -0.069296
H	 -3.847478	 -0.867502	 0.904682

	symmetry c1
}
set optking {
	frozen_dihedral = ("
		15 12 14 18
	")
}

ee = optimize('scf')
oeprop('DIPOLE', 'QUADRUPOLE', 'MULLIKEN_CHARGES')
f=open( 'psi4out.xyz', 'w' )
f.write( "22  " )
f.write( str(ee) + "\n" )
f.write( MOL.save_string_xyz() )
f.close()
--------------------------------------------------------------------------

    Molecular point group: c1
  Charge       = 0
  Multiplicity = 1
  Basis Set: 6-31G*
  Basis Set:
  @DF-RHF Final Energy:  -290.37668791582638
    Total Energy =                       -290.3766879158263805
    Molecular point group: c1
  Basis Set: 6-31G*
  Basis Set:
  Basis Set: 6-31G*
  Basis Set:
  @DF-RHF Final Energy:  -290.37705711831103
    Total Energy =                       -290.3770571183106313
  Basis Set: 6-31G*
  Basis Set:
  Basis Set: 6-31G*
  Basis Set:
  @DF-RHF Final Energy:  -290.37716823755511
    Total Energy =                       -290.3771682375549972
  Basis Set: 6-31G*
  Basis Set:
  Charge       = 0
  Multiplicity = 1
  Basis Set: 6-31G*
  Basis Set:

    Orbital Energies (a.u.)
    -----------------------

    Doubly Occupied:

       1A    -15.534065     2A    -11.238126     3A    -11.237615
       4A    -11.213510     5A    -11.213276     6A    -11.210339
       7A    -11.209675     8A     -1.205078     9A     -1.057402
      10A     -1.024532    11A     -0.927757    12A     -0.870784
      13A     -0.809738    14A     -0.794211    15A     -0.666332
      16A     -0.631196    17A     -0.617994    18A     -0.596055
      19A     -0.575749    20A     -0.564329    21A     -0.545759
      22A     -0.527191    23A     -0.505967    24A     -0.488613
      25A     -0.480337    26A     -0.471243    27A     -0.465136
      28A     -0.450260    29A     -0.358136

  @DF-RHF Final Energy:  -290.37716913955080

   => Energetics <=

    Nuclear Repulsion Energy =            314.0675405533055482
    One-Electron Energy =               -1013.9086074257581913
    Two-Electron Energy =                 409.4638977329019554
    DFT Exchange-Correlation Energy =       0.0000000000000000
    Empirical Dispersion Energy =           0.0000000000000000
    PCM Polarization Energy =               0.0000000000000000
    EFP Energy =                            0.0000000000000000
    Total Energy =                       -290.3771691395506878
    Molecular point group: c1
  Basis Set: 6-31G*
  Basis Set:

  -Total Gradient:
     Atom            X                  Y                   Z
    ------   -----------------  -----------------  -----------------
       1        0.000016347336    -0.000008154436     0.000003418752
       2        0.000017901181     0.000011453433     0.000031619872
       3        0.000044543370    -0.000026125881    -0.000013560964
       4       -0.000003214343     0.000000588324     0.000000842693
       5       -0.000002921239     0.000004449147    -0.000000428670
       6       -0.000025813821     0.000027301465     0.000032258723
       7        0.000000355335    -0.000004941637     0.000000666070
       8       -0.000000654448    -0.000005139027    -0.000004631223
       9       -0.000011530102    -0.000005277646    -0.000096448537
      10        0.000005424015    -0.000006360751     0.000012194357
      11        0.000010602023    -0.000006514003    -0.000006700630
      12        0.000408980565     0.000681373507     0.000547187751
      13       -0.000014591929    -0.000002524902    -0.000054175187
      14       -0.000467965728    -0.000665007966    -0.000510603954
      15       -0.000293646945    -0.000460101664    -0.000278192681
      16        0.000013331145     0.000000256282    -0.000002463716
      17       -0.000016377336    -0.000016935761     0.000022669747
      18        0.000308121369     0.000468279313     0.000316488762
      19       -0.000018709684    -0.000013543567    -0.000004110246
      20        0.000019179976     0.000017427440     0.000001783654
      21        0.000004118858     0.000015191862     0.000000907293
      22        0.000006520399    -0.000005693531     0.000001278134

  **** Optimization is complete! (in 4 steps) ****
    Final optimized geometry and variables:
    Molecular point group: c1

    Geometry (in Angstrom), charge = 0, multiplicity = 1:

    H            3.747170973357    -0.607486733344     2.551963640963
    C            3.218528364018    -0.893769835216     1.648418571072
    C            1.937429503328    -0.078310858453     1.478714056853
    H            3.893235977918    -0.743600986645     0.810336057516
    H            3.004960601647    -1.956942900311     1.714040405776
    C            1.162809846050    -0.450112301587     0.218414476017
    H            2.169884670531     0.981349372149     1.441578139072
    H            1.299300563420    -0.225421726440     2.348580219314
    N           -0.027670523069     0.364022408325     0.074990174429
    H            1.790810706178    -0.279353975968    -0.652023588858
    H            0.936299054587    -1.521666671902     0.230140223053
    C           -0.809595227772     0.063645166258    -1.110936783392
    H           -0.604531099133     0.255451713118     0.888117485523
    C           -2.074392641500     0.941941115911    -1.194960777226
    H           -0.174943728757     0.237255273249    -1.973887461583
    H           -1.091641075598    -0.992989649625    -1.154191788475
    C           -3.379385090174     0.146220915764    -1.152761714415
    H           -2.048402978315     1.539898568407    -2.100805381667
    H           -2.053406225569     1.652311708813    -0.374388674647
    H           -3.450228028096    -0.539251541016    -1.992401099551
    H           -4.241714513369     0.804694856187    -1.190220693916
    H           -3.451906804417    -0.442664786238    -0.241969989486

  Mulliken Charges: (a.u.)
   Center  Symbol    Alpha    Beta     Spin     Total
       1     H     0.41775  0.41775  0.00000  0.16449
       2     C     3.24324  3.24324  0.00000 -0.48649
       3     C     3.15534  3.15534  0.00000 -0.31068
       4     H     0.42069  0.42069  0.00000  0.15863
       5     H     0.42169  0.42169  0.00000  0.15662
       6     C     3.04793  3.04793  0.00000 -0.09586
       7     H     0.41292  0.41292  0.00000  0.17415
       8     H     0.42677  0.42677  0.00000  0.14646
       9     N     3.85650  3.85650  0.00000 -0.71300
      10     H     0.42173  0.42173  0.00000  0.15655
      11     H     0.43627  0.43627  0.00000  0.12745
      12     C     3.05248  3.05248  0.00000 -0.10495
      13     H     0.33558  0.33558  0.00000  0.32884
      14     C     3.16367  3.16367  0.00000 -0.32734
      15     H     0.41898  0.41898  0.00000  0.16204
      16     H     0.43308  0.43308  0.00000  0.13384
      17     C     3.24113  3.24113  0.00000 -0.48225
      18     H     0.41758  0.41758  0.00000  0.16483
      19     H     0.41237  0.41237  0.00000  0.17525
      20     H     0.42104  0.42104  0.00000  0.15792
      21     H     0.41930  0.41930  0.00000  0.16141
      22     H     0.42396  0.42396  0.00000  0.15209

   Total alpha = 29.00000, Total beta = 29.00000, Total charge = -0.00000
