  ==> Input File <==

--------------------------------------------------------------------------
set {
	reference rhf
	basis cc-pvtz
}

set_num_threads( 4 )
memory 2 gb

molecule MOL {
0 1

O	 1.299877	 -2.661084	 -0.735478
C	 0.400409	 -1.973662	 -0.391549
C	 -1.039054	 -2.399307	 -0.342253
O	 0.550743	 -0.719877	 0.000412
H	 -1.414109	 -2.294636	 0.667590
H	 -1.124200	 -3.423638	 -0.666336
H	 -1.629867	 -1.755319	 -0.980734
C	 1.863204	 -0.194033	 0.000410
H	 2.031502	 0.409177	 -0.879273
H	 2.524488	 -1.045142	 0.000793
H	 2.031291	 0.409823	 0.879686

	symmetry c1
}
set optking {
	frozen_dihedral = ("
		2 4 8 9
	")
}

ee = optimize('scf')
oeprop('DIPOLE', 'QUADRUPOLE', 'MULLIKEN_CHARGES')
f=open( 'psi4out.xyz', 'w' )
f.write( "11  " )
f.write( str(ee) + "\n" )
f.write( MOL.save_string_xyz() )
f.close()
--------------------------------------------------------------------------

    Molecular point group: c1
  Charge       = 0
  Multiplicity = 1
  Basis Set: CC-PVTZ
  Basis Set:
  @DF-RHF Final Energy:  -266.93577175539895
    Total Energy =                       -266.9357717553987186
    Molecular point group: c1
  Basis Set: CC-PVTZ
  Basis Set:
  Basis Set: CC-PVTZ
  Basis Set:
  @DF-RHF Final Energy:  -266.93693906904912
    Total Energy =                       -266.9369390690490036
  Basis Set: CC-PVTZ
  Basis Set:
  Basis Set: CC-PVTZ
  Basis Set:
  @DF-RHF Final Energy:  -266.93760685419227
    Total Energy =                       -266.9376068541924951
  Basis Set: CC-PVTZ
  Basis Set:
  Basis Set: CC-PVTZ
  Basis Set:
  @DF-RHF Final Energy:  -266.93745120482509
    Total Energy =                       -266.9374512048251518
  Basis Set: CC-PVTZ
  Basis Set:
  Basis Set: CC-PVTZ
  Basis Set:
  @DF-RHF Final Energy:  -266.93768235608883
    Total Energy =                       -266.9376823560886010
  Basis Set: CC-PVTZ
  Basis Set:
  Charge       = 0
  Multiplicity = 1
  Basis Set: CC-PVTZ
  Basis Set:

    Orbital Energies (a.u.)
    -----------------------

    Doubly Occupied:

       1A    -20.597970     2A    -20.534686     3A    -11.369826
       4A    -11.278898     5A    -11.232764     6A     -1.472287
       7A     -1.368100     8A     -1.037007     9A     -0.954100
      10A     -0.779295    11A     -0.699167    12A     -0.682641
      13A     -0.681046    14A     -0.597532    15A     -0.592864
      16A     -0.561690    17A     -0.529966    18A     -0.521806
      19A     -0.459503    20A     -0.445866

  @DF-RHF Final Energy:  -266.93768387263481

   => Energetics <=

    Nuclear Repulsion Energy =            183.3415160683063334
    One-Electron Energy =                -727.7643718078306847
    Two-Electron Energy =                 277.4851718668894591
    DFT Exchange-Correlation Energy =       0.0000000000000000
    Empirical Dispersion Energy =           0.0000000000000000
    PCM Polarization Energy =               0.0000000000000000
    EFP Energy =                            0.0000000000000000
    Total Energy =                       -266.9376838726349206
    Molecular point group: c1
  Basis Set: CC-PVTZ
  Basis Set:

  -Total Gradient:
     Atom            X                  Y                   Z
    ------   -----------------  -----------------  -----------------
       1        0.000019185734     0.000089659675     0.000008527783
       2        0.000161138282    -0.000401193051     0.001147626525
       3       -0.000031911686     0.000007469188    -0.000009930818
       4       -0.000263130074     0.000873681128    -0.001451916733
       5       -0.000005280928     0.000003712753     0.000002505605
       6       -0.000000355928     0.000001603648    -0.000002907780
       7        0.000002317743    -0.000007987493     0.000001181474
       8        0.000580676007    -0.001594816593    -0.000353102486
       9       -0.000476204561     0.001063290588     0.000657981457
      10        0.000050998480    -0.000016994370     0.000000217663
      11       -0.000037433069    -0.000018425469    -0.000000182688

  **** Optimization is complete! (in 6 steps) ****
    Final optimized geometry and variables:
    Molecular point group: c1

    Geometry (in Angstrom), charge = 0, multiplicity = 1:

    O            0.643488072323    -1.109901157129    -0.472251101414
    C           -0.231885989357    -0.403140784355    -0.107157070178
    C           -1.678605949786    -0.800926656686    -0.031889715539
    O           -0.059126268335     0.848010777300     0.287223274992
    H           -2.032216514907    -0.693516267863     0.985332308405
    H           -1.790107309609    -1.821681386870    -0.359231107002
    H           -2.268191621406    -0.142064232699    -0.656120069121
    C            1.248419577461     1.388384285994     0.307765054709
    H            1.398808120941     1.993420668692    -0.575472833013
    H            1.989322555724     0.608692420330     0.350452228765
    H            1.311321065811     2.016910079097     1.182665823962

  Mulliken Charges: (a.u.)
   Center  Symbol    Alpha    Beta     Spin     Total
       1     O     4.19709  4.19709  0.00000 -0.39417
       2     C     2.79885  2.79885  0.00000  0.40230
       3     C     3.13930  3.13930  0.00000 -0.27859
       4     O     4.14939  4.14939  0.00000 -0.29878
       5     H     0.44580  0.44580  0.00000  0.10841
       6     H     0.43795  0.43795  0.00000  0.12410
       7     H     0.44537  0.44537  0.00000  0.10925
       8     C     3.03564  3.03564  0.00000 -0.07128
       9     H     0.45579  0.45579  0.00000  0.08843
      10     H     0.44523  0.44523  0.00000  0.10953
      11     H     0.44960  0.44960  0.00000  0.10079

   Total alpha = 20.00000, Total beta = 20.00000, Total charge = -0.00000
