  ==> Input File <==

--------------------------------------------------------------------------
set {
	reference rhf
	basis 6-31G*
}

set_num_threads( 1 )
memory 2 gb

molecule MOL {
0 1

O	 0.557120	 1.273517	 0.435775
C	 0.486307	 0.169203	 0.000779
C	 1.608116	 -0.841643	 0.000302
O	 -0.610159	 -0.328094	 -0.554256
C	 2.990107	 -0.200498	 -0.000684
H	 1.468623	 -1.481519	 -0.865924
H	 1.469683	 -1.481289	 0.866878
H	 3.129736	 0.423364	 -0.875135
H	 3.757882	 -0.966877	 -0.001197
H	 3.130964	 0.423383	 0.873533
C	 -1.753700	 0.517390	 -0.624058
C	 -2.860268	 -0.270235	 -1.292985
H	 -1.500797	 1.406796	 -1.184933
H	 -2.028455	 0.822220	 0.376532
H	 -2.567484	 -0.572742	 -2.291948
H	 -3.754910	 0.339496	 -1.367099
H	 -3.098154	 -1.160524	 -0.721976

	symmetry c1
}
set optking {
	frozen_dihedral = ("
		2 4 11 13,
		11 4 2 3
	")
}

ee = energy('scf')
oeprop('DIPOLE', 'QUADRUPOLE', 'MULLIKEN_CHARGES')
f=open( 'psi4out.xyz', 'w' )
f.write( "17  " )
f.write( str(ee) + "\n" )
f.write( MOL.save_string_xyz() )
f.close()
--------------------------------------------------------------------------

    Molecular point group: c1

    Geometry (in Angstrom), charge = 0, multiplicity = 1:

       Center              X                  Y                   Z               Mass
    ------------   -----------------  -----------------  -----------------  -----------------
           O          0.510038354024     1.221127615136     0.730938154390    15.994914619560
           C          0.439225354024     0.116813615136     0.295942154390    12.000000000000
           C          1.561034354024    -0.894032384864     0.295465154390    12.000000000000
           O         -0.657240645976    -0.380483384864    -0.259092845610    15.994914619560
           C          2.943025354024    -0.252887384864     0.294479154390    12.000000000000
           H          1.421541354024    -1.533908384864    -0.570760845610     1.007825032070
           H          1.422601354024    -1.533678384864     1.162041154390     1.007825032070
           H          3.082654354024     0.370974615136    -0.579971845610     1.007825032070
           H          3.710800354024    -1.019266384864     0.293966154390     1.007825032070
           H          3.083882354024     0.370993615136     1.168696154390     1.007825032070
           C         -1.800781645976     0.465000615136    -0.328894845610    12.000000000000
           C         -2.907349645976    -0.322624384864    -0.997821845610    12.000000000000
           H         -1.547878645976     1.354406615136    -0.889769845610     1.007825032070
           H         -2.075536645976     0.769830615136     0.671695154390     1.007825032070
           H         -2.614565645976    -0.625131384864    -1.996784845610     1.007825032070
           H         -3.801991645976     0.287106615136    -1.071935845610     1.007825032070
           H         -3.145235645976    -1.212913384864    -0.426812845610     1.007825032070

  Charge       = 0
  Multiplicity = 1
  Basis Set: 6-31G*
  Basis Set:

    Orbital Energies (a.u.)
    -----------------------

    Doubly Occupied:

       1A    -20.601655     2A    -20.543540     3A    -11.371242
       4A    -11.284686     5A    -11.236924     6A    -11.222360
       7A    -11.217643     8A     -1.467637     9A     -1.361690
      10A     -1.070355    11A     -1.031940    12A     -0.910933
      13A     -0.848108    14A     -0.773627    15A     -0.694882
      16A     -0.688761    17A     -0.664925    18A     -0.626929
      19A     -0.585275    20A     -0.573219    21A     -0.557623
      22A     -0.525528    23A     -0.523817    24A     -0.511479
      25A     -0.504277    26A     -0.491628    27A     -0.452553
      28A     -0.434997

  @DF-RHF Final Energy:  -344.91120586914866

   => Energetics <=

    Nuclear Repulsion Energy =            314.7425259220177054
    One-Electron Energy =               -1093.7510482462460004
    Two-Electron Energy =                 434.0973164550792944
    DFT Exchange-Correlation Energy =       0.0000000000000000
    Empirical Dispersion Energy =           0.0000000000000000
    PCM Polarization Energy =               0.0000000000000000
    EFP Energy =                            0.0000000000000000
    Total Energy =                       -344.9112058691490574

  Mulliken Charges: (a.u.)
   Center  Symbol    Alpha    Beta     Spin     Total
       1     O     4.28637  4.28637  0.00000 -0.57275
       2     C     2.60439  2.60439  0.00000  0.79122
       3     C     3.20674  3.20674  0.00000 -0.41348
       4     O     4.31273  4.31273  0.00000 -0.62547
       5     C     3.24133  3.24133  0.00000 -0.48267
       6     H     0.40118  0.40118  0.00000  0.19764
       7     H     0.39965  0.39965  0.00000  0.20069
       8     H     0.41390  0.41390  0.00000  0.17220
       9     H     0.41696  0.41696  0.00000  0.16608
      10     H     0.40526  0.40526  0.00000  0.18948
      11     C     3.00265  3.00265  0.00000 -0.00531
      12     C     3.24845  3.24845  0.00000 -0.49689
      13     H     0.41005  0.41005  0.00000  0.17990
      14     H     0.41032  0.41032  0.00000  0.17937
      15     H     0.41191  0.41191  0.00000  0.17619
      16     H     0.41627  0.41627  0.00000  0.16746
      17     H     0.41183  0.41183  0.00000  0.17634

   Total alpha = 28.00000, Total beta = 28.00000, Total charge = -0.00000
