  ==> Input File <==

--------------------------------------------------------------------------
set {
	reference rhf
	basis 6-31G*
}

set_num_threads( 4 )
memory 2 gb

molecule MOL {
0 1

O	 -0.470385	 0.133758	 -0.704364
C	 0.486307	 0.169203	 0.000779
C	 1.608116	 -0.841643	 0.000302
O	 0.695813	 1.120551	 0.900030
C	 2.990107	 -0.200498	 -0.000684
H	 1.468623	 -1.481519	 -0.865924
H	 1.469683	 -1.481289	 0.866878
H	 3.129736	 0.423364	 -0.875135
H	 3.757882	 -0.966877	 -0.001197
H	 3.130964	 0.423383	 0.873533
C	 -0.285369	 2.146130	 1.013481
C	 0.176875	 3.098703	 2.095722
H	 -1.238473	 1.696765	 1.256894
H	 -0.386752	 2.644286	 0.058938
H	 0.278746	 2.583408	 3.044010
H	 -0.545301	 3.899740	 2.215929
H	 1.135109	 3.536226	 1.839564

	symmetry c1
}
set optking {
	frozen_dihedral = ("
		4 2 3 6
	")
}

ee = optimize('scf')
oeprop('DIPOLE', 'QUADRUPOLE', 'MULLIKEN_CHARGES')
f=open( 'psi4out.xyz', 'w' )
f.write( "17  " )
f.write( str(ee) + "\n" )
f.write( MOL.save_string_xyz() )
f.close()
--------------------------------------------------------------------------

    Molecular point group: c1
  Charge       = 0
  Multiplicity = 1
  Basis Set: 6-31G*
  Basis Set:
  @DF-RHF Final Energy:  -344.90989668077208
    Total Energy =                       -344.9098966807722491
    Molecular point group: c1
  Basis Set: 6-31G*
  Basis Set:
  Basis Set: 6-31G*
  Basis Set:
  @DF-RHF Final Energy:  -344.90998946909997
    Total Energy =                       -344.9099894690998553
  Basis Set: 6-31G*
  Basis Set:
  Basis Set: 6-31G*
  Basis Set:
  @DF-RHF Final Energy:  -344.91018210495059
    Total Energy =                       -344.9101821049503656
  Basis Set: 6-31G*
  Basis Set:
  Basis Set: 6-31G*
  Basis Set:
  @DF-RHF Final Energy:  -344.91025706967906
    Total Energy =                       -344.9102570696792327
  Basis Set: 6-31G*
  Basis Set:
  Basis Set: 6-31G*
  Basis Set:
  @DF-RHF Final Energy:  -344.91026011040066
    Total Energy =                       -344.9102601104006567
  Basis Set: 6-31G*
  Basis Set:
  Charge       = 0
  Multiplicity = 1
  Basis Set: 6-31G*
  Basis Set:

    Orbital Energies (a.u.)
    -----------------------

    Doubly Occupied:

       1A    -20.602016     2A    -20.542263     3A    -11.370695
       4A    -11.285183     5A    -11.237113     6A    -11.223258
       7A    -11.222826     8A     -1.467550     9A     -1.360575
      10A     -1.072791    11A     -1.030189    12A     -0.906269
      13A     -0.858555    14A     -0.777847    15A     -0.691517
      16A     -0.677918    17A     -0.672054    18A     -0.624260
      19A     -0.586320    20A     -0.572829    21A     -0.552888
      22A     -0.544623    23A     -0.524613    24A     -0.511373
      25A     -0.504408    26A     -0.493790    27A     -0.451992
      28A     -0.431102

  @DF-RHF Final Energy:  -344.91026028113885

   => Energetics <=

    Nuclear Repulsion Energy =            317.3399079758038965
    One-Electron Energy =               -1098.9066986356656344
    Two-Electron Energy =                 436.6565303787230050
    DFT Exchange-Correlation Energy =       0.0000000000000000
    Empirical Dispersion Energy =           0.0000000000000000
    PCM Polarization Energy =               0.0000000000000000
    EFP Energy =                            0.0000000000000000
    Total Energy =                       -344.9102602811386760
    Molecular point group: c1
  Basis Set: 6-31G*
  Basis Set:

  -Total Gradient:
     Atom            X                  Y                   Z
    ------   -----------------  -----------------  -----------------
       1        0.000012099417    -0.000042323019    -0.000027259272
       2       -0.000306929275    -0.000313110278     0.000404733067
       3       -0.000410571337    -0.000421940182     0.000282729250
       4        0.000317063881     0.000358412666    -0.000348524434
       5        0.000002741123     0.000002197581     0.000024018995
       6        0.000364002999     0.000429873146    -0.000352755242
       7        0.000008508742     0.000006554970     0.000003800744
       8        0.000014753202     0.000001539394    -0.000008095462
       9       -0.000000625826     0.000002940106     0.000001650758
      10        0.000002838375     0.000012646586    -0.000002764187
      11       -0.000049036729    -0.000057607589     0.000064218231
      12        0.000022411678     0.000004081204    -0.000016724723
      13        0.000007402511     0.000020384889    -0.000007518291
      14        0.000010976869    -0.000002908493    -0.000016415814
      15       -0.000001894062    -0.000003269595    -0.000002442999
      16        0.000000405015    -0.000005241136    -0.000006935959
      17        0.000005853418     0.000007769750     0.000008285338

  **** Optimization is complete! (in 6 steps) ****
    Final optimized geometry and variables:
    Molecular point group: c1

    Geometry (in Angstrom), charge = 0, multiplicity = 1:

    O           -1.203658009577    -0.684390680468    -1.180100485630
    C           -0.244893139517    -0.640402415331    -0.477602301165
    C            0.867765243801    -1.662335314818    -0.486851928631
    O           -0.047142109761     0.311800429838     0.423090510817
    C            2.273728684019    -1.058173361324    -0.485690620204
    H            0.712480875218    -2.284335789528    -1.358161169871
    H            0.735381064468    -2.287506719790     0.392305707721
    H            2.426015847115    -0.418455895848    -1.349024769519
    H            3.015491131415    -1.848413528452    -0.524023686700
    H            2.448411659184    -0.469784347971     0.405583586914
    C           -1.043505719852     1.322211578372     0.541712923199
    C           -0.586076004955     2.286967088270     1.615121228359
    H           -1.986644409122     0.858299884739     0.796065251105
    H           -1.161773839772     1.813695729682    -0.414147337498
    H           -0.466934198656     1.777986173817     2.564869257307
    H           -1.319889482629     3.076823649683     1.738678898442
    H            0.362388001950     2.738889017998     1.347723464742

  Mulliken Charges: (a.u.)
   Center  Symbol    Alpha    Beta     Spin     Total
       1     O     4.28728  4.28728  0.00000 -0.57456
       2     C     2.60924  2.60924  0.00000  0.78153
       3     C     3.20098  3.20098  0.00000 -0.40197
       4     O     4.30954  4.30954  0.00000 -0.61908
       5     C     3.24605  3.24605  0.00000 -0.49209
       6     H     0.39765  0.39765  0.00000  0.20471
       7     H     0.40259  0.40259  0.00000  0.19483
       8     H     0.41499  0.41499  0.00000  0.17003
       9     H     0.41437  0.41437  0.00000  0.17126
      10     H     0.40654  0.40654  0.00000  0.18691
      11     C     3.00216  3.00216  0.00000 -0.00431
      12     C     3.24882  3.24882  0.00000 -0.49763
      13     H     0.41011  0.41011  0.00000  0.17978
      14     H     0.40969  0.40969  0.00000  0.18062
      15     H     0.41196  0.41196  0.00000  0.17608
      16     H     0.41607  0.41607  0.00000  0.16786
      17     H     0.41197  0.41197  0.00000  0.17605

   Total alpha = 28.00000, Total beta = 28.00000, Total charge =  0.00000
