  ==> Input File <==

--------------------------------------------------------------------------
set {
	reference rhf
	basis cc-pvtz
}

set_num_threads( 4 )
memory 2 gb

molecule MOL {
0 1

H	 -2.285297	 -0.172161	 3.288042
C	 -2.323600	 -0.387642	 2.239991
C	 -1.206582	 -0.517280	 1.567080
H	 -3.280362	 -0.493781	 1.767613
O	 -1.189946	 -0.765863	 0.237511
H	 -0.242381	 -0.421310	 2.032091
C	 0.026572	 -0.995256	 -0.379403
C	 1.057223	 0.049888	 -0.004615
H	 -0.054361	 -1.010670	 -1.459674
H	 0.397526	 -1.952058	 -0.044198
F	 2.203233	 -0.234060	 -0.590375
F	 0.698147	 1.254887	 -0.392621
F	 1.266440	 0.094219	 1.288722

	symmetry c1
}
set optking {
	frozen_dihedral = ("
		3 5 7 9
	")
}

ee = optimize('scf')
oeprop('DIPOLE', 'QUADRUPOLE', 'MULLIKEN_CHARGES')
f=open( 'psi4out.xyz', 'w' )
f.write( "13  " )
f.write( str(ee) + "\n" )
f.write( MOL.save_string_xyz() )
f.close()
--------------------------------------------------------------------------

    Molecular point group: c1
  Charge       = 0
  Multiplicity = 1
  Basis Set: CC-PVTZ
  Basis Set:
  @DF-RHF Final Energy:  -527.72374244442540
    Total Energy =                       -527.7237424444253975
    Molecular point group: c1
  Basis Set: CC-PVTZ
  Basis Set:
  Basis Set: CC-PVTZ
  Basis Set:
  @DF-RHF Final Energy:  -527.73481511782438
    Total Energy =                       -527.7348151178251783
  Basis Set: CC-PVTZ
  Basis Set:
  Basis Set: CC-PVTZ
  Basis Set:
  @DF-RHF Final Energy:  -527.73724754991758
    Total Energy =                       -527.7372475499176971
  Basis Set: CC-PVTZ
  Basis Set:
  Basis Set: CC-PVTZ
  Basis Set:
  @DF-RHF Final Energy:  -527.73793949109881
    Total Energy =                       -527.7379394910988140
  Basis Set: CC-PVTZ
  Basis Set:
  @DF-RHF Final Energy:  -527.73818448129248
    Total Energy =                       -527.7381844812925920
  @DF-RHF Final Energy:  -527.73825565442962
    Total Energy =                       -527.7382556544297358
  @DF-RHF Final Energy:  -527.73827498593721
    Total Energy =                       -527.7382749859372097
  @DF-RHF Final Energy:  -527.73828059581820
    Total Energy =                       -527.7382805958181962
  @DF-RHF Final Energy:  -527.73828046422386
    Total Energy =                       -527.7382804642239762
  @DF-RHF Final Energy:  -527.73827824853674
    Total Energy =                       -527.7382782485369717
  @DF-RHF Final Energy:  -527.73827579182375
    Total Energy =                       -527.7382757918239804
  @DF-RHF Final Energy:  -527.73210910430112
    Total Energy =                       -527.7321091043013439
  @DF-RHF Final Energy:  -527.65518958046061
    Total Energy =                       -527.6551895804602736
  @DF-RHF Final Energy:  -527.72567669852083
    Total Energy =                       -527.7256766985208287
  @DF-RHF Final Energy:  -527.73674232104781
    Total Energy =                       -527.7367423210480410
  @DF-RHF Final Energy:  -527.73798754082054
    Total Energy =                       -527.7379875408199723
  @DF-RHF Final Energy:  -527.73817724174523
    Total Energy =                       -527.7381772417450065
  @DF-RHF Final Energy:  -527.73824324215673
    Total Energy =                       -527.7382432421560452
  @DF-RHF Final Energy:  -527.73827212909634
    Total Energy =                       -527.7382721290962309
  @DF-RHF Final Energy:  -527.73828086993808
    Total Energy =                       -527.7382808699380803
  Basis Set: CC-PVTZ
  Basis Set:
  @DF-RHF Final Energy:  -527.73750000447285
    Total Energy =                       -527.7375000044728495
  Basis Set: CC-PVTZ
  Basis Set:
  Basis Set: CC-PVTZ
  Basis Set:
  @DF-RHF Final Energy:  -527.73827530383346
    Total Energy =                       -527.7382753038334613
  Basis Set: CC-PVTZ
  Basis Set:
  Basis Set: CC-PVTZ
  Basis Set:
  @DF-RHF Final Energy:  -527.73828322441113
    Total Energy =                       -527.7382832244111341
  Basis Set: CC-PVTZ
  Basis Set:
  Charge       = 0
  Multiplicity = 1
  Basis Set: CC-PVTZ
  Basis Set:

    Orbital Energies (a.u.)
    -----------------------

    Doubly Occupied:

       1A    -26.342298     2A    -26.342273     3A    -26.339927
       4A    -20.600524     5A    -11.500157     6A    -11.319453
       7A    -11.294911     8A    -11.215058     9A     -1.752149
      10A     -1.647760    11A     -1.647387    12A     -1.439349
      13A     -1.085563    14A     -1.022131    15A     -0.933435
      16A     -0.844132    17A     -0.840271    18A     -0.835775
      19A     -0.783534    20A     -0.726933    21A     -0.720059
      22A     -0.700354    23A     -0.683373    24A     -0.669549
      25A     -0.663010    26A     -0.652365    27A     -0.644341
      28A     -0.595873    29A     -0.565220    30A     -0.524989
      31A     -0.502667    32A     -0.360042

  @DF-RHF Final Energy:  -527.73828365573524

   => Energetics <=

    Nuclear Repulsion Energy =            417.6640828535382752
    One-Electron Energy =               -1559.2150056996649710
    Two-Electron Energy =                 613.8126391903913373
    DFT Exchange-Correlation Energy =       0.0000000000000000
    Empirical Dispersion Energy =           0.0000000000000000
    PCM Polarization Energy =               0.0000000000000000
    EFP Energy =                            0.0000000000000000
    Total Energy =                       -527.7382836557353585
    Molecular point group: c1
  Basis Set: CC-PVTZ
  Basis Set:

  -Total Gradient:
     Atom            X                  Y                   Z
    ------   -----------------  -----------------  -----------------
       1       -0.000000935800    -0.000002265531     0.000002152370
       2       -0.000005563088     0.000002250068    -0.000007430225
       3       -0.000175709400     0.004772490756    -0.000799543175
       4        0.000001011030    -0.000001461348     0.000002212609
       5        0.000406579528    -0.005908533472     0.001270700730
       6       -0.000008434692     0.000001268149    -0.000007808028
       7       -0.000476851851    -0.004231314499    -0.000373109232
       8       -0.000057773423    -0.000011533742     0.000039756906
       9        0.000278861055     0.005412823584    -0.000122039299
      10       -0.000006899179    -0.000030435887    -0.000016328764
      11        0.000010055329    -0.000009286666    -0.000000393679
      12        0.000025499473    -0.000005013899     0.000000360001
      13        0.000010161016     0.000011012489     0.000011469782

  **** Optimization is complete! (in 24 steps) ****
    Final optimized geometry and variables:
    Molecular point group: c1

    Geometry (in Angstrom), charge = 0, multiplicity = 1:

    H           -2.525412385313     0.017121028160     2.815917215717
    C           -2.458763187057    -0.099723123919     1.753469847492
    C           -1.401928834874    -0.669436394015     1.229749426540
    H           -3.268285371283     0.248742958281     1.142541062567
    O           -1.301593165149    -0.902673705690    -0.102175196660
    H           -0.581280504830    -1.020813511069     1.827428127488
    C           -0.052904109095    -0.962737593298    -0.699212664247
    C            0.829537570037     0.253847493592    -0.471099339077
    H           -0.224165796263    -0.975915823145    -1.764408556274
    H            0.507200952865    -1.841348386120    -0.399294969814
    F            1.886816073339     0.156375269583    -1.252290928839
    F            0.210734005553     1.371410914874    -0.764939998653
    F            1.269426939050     0.355264209970     0.766013654214

  Mulliken Charges: (a.u.)
   Center  Symbol    Alpha    Beta     Spin     Total
       1     H     0.42534  0.42534  0.00000  0.14933
       2     C     3.18894  3.18894  0.00000 -0.37788
       3     C     2.96722  2.96722  0.00000  0.06556
       4     H     0.42404  0.42404  0.00000  0.15192
       5     O     4.14684  4.14684  0.00000 -0.29367
       6     H     0.43034  0.43034  0.00000  0.13932
       7     C     3.01707  3.01707  0.00000 -0.03414
       8     C     2.68091  2.68091  0.00000  0.63819
       9     H     0.43849  0.43849  0.00000  0.12303
      10     H     0.45113  0.45113  0.00000  0.09773
      11     F     4.61055  4.61055  0.00000 -0.22111
      12     F     4.60701  4.60701  0.00000 -0.21401
      13     F     4.61213  4.61213  0.00000 -0.22427

   Total alpha = 32.00000, Total beta = 32.00000, Total charge = -0.00000
