  ==> Input File <==

--------------------------------------------------------------------------
set {
	reference rhf
	basis 6-31G*
}

set_num_threads( 4 )
memory 2 gb

molecule MOL {
0 1

H	 -2.200614	 0.731512	 -1.953781
C	 -1.596068	 -0.146326	 -1.734541
O	 -1.392607	 -0.295399	 -0.366433
H	 -2.117340	 -1.026623	 -2.084535
H	 -0.653121	 -0.059009	 -2.272737
C	 -0.719715	 0.768384	 0.229244
C	 0.719720	 0.768376	 -0.229267
H	 -1.185038	 1.714362	 -0.050570
H	 -0.750528	 0.687237	 1.313896
O	 1.392611	 -0.295398	 0.366430
H	 0.750534	 0.687200	 -1.313918
H	 1.185043	 1.714359	 0.050526
C	 2.706965	 -0.449871	 -0.062409
H	 2.756559	 -0.644779	 -1.131878
H	 3.305899	 0.433456	 0.155466
H	 3.125548	 -1.294566	 0.467107

	symmetry c1
}
set optking {
	frozen_dihedral = ("
		2 3 6 7
	")
}

ee = optimize('scf')
oeprop('DIPOLE', 'QUADRUPOLE', 'MULLIKEN_CHARGES')
f=open( 'psi4out.xyz', 'w' )
f.write( "16  " )
f.write( str(ee) + "\n" )
f.write( MOL.save_string_xyz() )
f.close()
--------------------------------------------------------------------------

    Molecular point group: c1
  Charge       = 0
  Multiplicity = 1
  Basis Set: 6-31G*
  Basis Set:
  @DF-RHF Final Energy:  -306.97001647421371
    Total Energy =                       -306.9700164742139350
    Molecular point group: c1
  Basis Set: 6-31G*
  Basis Set:
  Basis Set: 6-31G*
  Basis Set:
  @DF-RHF Final Energy:  -306.97210837609009
    Total Energy =                       -306.9721083760900910
  Basis Set: 6-31G*
  Basis Set:
  Basis Set: 6-31G*
  Basis Set:
  @DF-RHF Final Energy:  -306.97452047016498
    Total Energy =                       -306.9745204701654302
  Basis Set: 6-31G*
  Basis Set:
  Basis Set: 6-31G*
  Basis Set:
  @DF-RHF Final Energy:  -306.97473950585862
    Total Energy =                       -306.9747395058587358
  Basis Set: 6-31G*
  Basis Set:
  Basis Set: 6-31G*
  Basis Set:
  @DF-RHF Final Energy:  -306.97475759489532
    Total Energy =                       -306.9747575948953227
  Basis Set: 6-31G*
  Basis Set:
  Charge       = 0
  Multiplicity = 1
  Basis Set: 6-31G*
  Basis Set:

    Orbital Energies (a.u.)
    -----------------------

    Doubly Occupied:

       1A    -20.557094     2A    -20.552766     3A    -11.271662
       4A    -11.269326     5A    -11.266811     6A    -11.263564
       7A     -1.389402     8A     -1.370503     9A     -1.028273
      10A     -0.945757    11A     -0.899600    12A     -0.815710
      13A     -0.688991    14A     -0.680407    15A     -0.658665
      16A     -0.637561    17A     -0.628565    18A     -0.599793
      19A     -0.557027    20A     -0.528881    21A     -0.516541
      22A     -0.488483    23A     -0.457729    24A     -0.419737
      25A     -0.409477

  @DF-RHF Final Energy:  -306.97475816511184

   => Energetics <=

    Nuclear Repulsion Energy =            262.1829997565466215
    One-Electron Energy =                -938.5108719268287132
    Two-Electron Energy =                 369.3531140051703687
    DFT Exchange-Correlation Energy =       0.0000000000000000
    Empirical Dispersion Energy =           0.0000000000000000
    PCM Polarization Energy =               0.0000000000000000
    EFP Energy =                            0.0000000000000000
    Total Energy =                       -306.9747581651116661
    Molecular point group: c1
  Basis Set: 6-31G*
  Basis Set:

  -Total Gradient:
     Atom            X                  Y                   Z
    ------   -----------------  -----------------  -----------------
       1        0.000001329309     0.000005420509     0.000002811940
       2        0.000211658879    -0.000162539071    -0.000001592366
       3       -0.000362421151     0.000253033589    -0.000095849840
       4       -0.000006957905    -0.000005654719    -0.000018199936
       5        0.000016831853     0.000000411420     0.000005966222
       6        0.000183858780    -0.000245057928     0.000284910984
       7       -0.000079059261     0.000243294506    -0.000190644328
       8        0.000001133834     0.000005944322     0.000007636527
       9        0.000029475430     0.000008135763    -0.000006831417
      10        0.000036910538    -0.000111010431     0.000029858709
      11       -0.000001713428    -0.000026921957     0.000012935770
      12       -0.000006362753     0.000004791146    -0.000008674766
      13       -0.000035515919     0.000034684760    -0.000030057641
      14        0.000019050014    -0.000008031751    -0.000004243638
      15        0.000010399078     0.000000133572     0.000006797195
      16       -0.000018617301     0.000003366270     0.000005176585

  **** Optimization is complete! (in 6 steps) ****
    Final optimized geometry and variables:
    Molecular point group: c1

    Geometry (in Angstrom), charge = 0, multiplicity = 1:

    H           -2.283692099655     0.688555519806    -1.691568217070
    C           -1.860310343580    -0.269168906608    -1.391495454396
    O           -1.624605217565    -0.315631688533    -0.020140531485
    H           -2.572399632082    -1.050249124453    -1.619755333720
    H           -0.958741035521    -0.447052163312    -1.970794373693
    C           -0.889132258456     0.739772864611     0.515306431140
    C            0.576980228274     0.760567158993     0.122096906752
    H           -1.335970910918     1.695021807552     0.235791167641
    H           -0.957375002825     0.636395465080     1.589845986886
    O            1.194353454823    -0.397159399068     0.585129473413
    H            0.694143541663     0.848536849012    -0.957152539256
    H            1.036138119304     1.645346741084     0.566008173800
    C            2.547632842602    -0.486762066891     0.274577303342
    H            2.711435802503    -0.482657736747    -0.801724756372
    H            3.113517996675     0.334437605593     0.711682887743
    H            2.914260421935    -1.419374173825     0.680383224904

  Mulliken Charges: (a.u.)
   Center  Symbol    Alpha    Beta     Spin     Total
       1     H     0.43309  0.43309  0.00000  0.13382
       2     C     3.08150  3.08150  0.00000 -0.16300
       3     O     4.29854  4.29854  0.00000 -0.59709
       4     H     0.41084  0.41084  0.00000  0.17833
       5     H     0.42729  0.42729  0.00000  0.14542
       6     C     2.99636  2.99636  0.00000  0.00729
       7     C     3.00291  3.00291  0.00000 -0.00581
       8     H     0.43225  0.43225  0.00000  0.13550
       9     H     0.40697  0.40697  0.00000  0.18607
      10     O     4.29778  4.29778  0.00000 -0.59556
      11     H     0.43081  0.43081  0.00000  0.13837
      12     H     0.43110  0.43110  0.00000  0.13779
      13     C     3.07948  3.07948  0.00000 -0.15897
      14     H     0.43043  0.43043  0.00000  0.13914
      15     H     0.43063  0.43063  0.00000  0.13874
      16     H     0.41002  0.41002  0.00000  0.17996

   Total alpha = 25.00000, Total beta = 25.00000, Total charge =  0.00000
