                              Psi4 1.0.54 Driver

  ==> Input File <==

--------------------------------------------------------------------------
set {
	reference rhf
	basis cc-pvtz
}

set_num_threads( 4 )
memory 2 gb

molecule MOL {
0 1

H	 -3.436473	 1.252944	 -1.023892
O	 -3.458596	 0.315260	 -0.960865
C	 -3.176635	 -0.080824	 0.355601
C	 -1.763371	 0.265266	 0.799691
H	 -3.321825	 -1.153438	 0.379502
H	 -3.895468	 0.357385	 1.043382
C	 -1.517804	 0.062986	 2.292039
H	 -1.056483	 -0.332817	 0.226567
H	 -1.569928	 1.301390	 0.532455
C	 -0.086355	 0.383152	 2.714433
H	 -1.755227	 -0.961196	 2.557738
H	 -2.207374	 0.690349	 2.851874
C	 0.151412	 0.183494	 4.209977
H	 0.596602	 -0.239064	 2.144075
H	 0.146329	 1.412760	 2.450574
C	 1.549545	 0.568538	 4.696611
H	 -0.043687	 -0.854777	 4.468392
H	 -0.577995	 0.773033	 4.758640
C	 2.677034	 -0.308882	 4.158050
H	 1.560341	 0.520477	 5.781207
H	 1.745915	 1.605908	 4.438306
H	 2.504615	 -1.353670	 4.396304
H	 3.627608	 -0.024262	 4.594676
H	 2.776478	 -0.227250	 3.082386

	symmetry c1
}
set optking {
	frozen_dihedral = ("
		7 4 3 2
	")
}

ee,wfn = optimize('scf', return_wfn=True)
oeprop( wfn, 'DIPOLE', 'QUADRUPOLE', 'MULLIKEN_CHARGES')
f=open( 'psi4out.xyz', 'w' )
f.write( "24  " )
f.write( str(ee) + "\n" )
f.write( MOL.save_string_xyz() )
f.close()
--------------------------------------------------------------------------

    Molecular point group: c1
  Charge       = 0
  Multiplicity = 1
  Basis Set: CC-PVTZ
  Basis Set:
  @DF-RHF Final Energy:  -349.37991104499218
    Total Energy =                       -349.3799110449921841
    Molecular point group: c1
  Basis Set: CC-PVTZ
  Basis Set:
  Basis Set: CC-PVTZ
  Basis Set:
  @DF-RHF Final Energy:  -349.38004583586797
    Total Energy =                       -349.3800458358672358
  Basis Set: CC-PVTZ
  Basis Set:
  Basis Set: CC-PVTZ
  Basis Set:
  @DF-RHF Final Energy:  -349.38006137177882
    Total Energy =                       -349.3800613717791066
  Basis Set: CC-PVTZ
  Basis Set:
  Charge       = 0
  Multiplicity = 1
  Basis Set: CC-PVTZ
  Basis Set:

    Orbital Energies (a.u.)
    -----------------------

    Doubly Occupied:

       1A    -20.545010     2A    -11.264767     3A    -11.217149
       4A    -11.214724     5A    -11.214543     6A    -11.213896
       7A    -11.212849     8A    -11.207001     9A     -1.363280
      10A     -1.094079    11A     -1.052606    12A     -0.987662
      13A     -0.915543    14A     -0.852080    15A     -0.805591
      16A     -0.779728    17A     -0.693562    18A     -0.654382
      19A     -0.626023    20A     -0.609982    21A     -0.605224
      22A     -0.588626    23A     -0.559367    24A     -0.538940
      25A     -0.528995    26A     -0.513270    27A     -0.489541
      28A     -0.484484    29A     -0.472975    30A     -0.462173
      31A     -0.456559    32A     -0.452800    33A     -0.423402

  @DF-RHF Final Energy:  -349.38006213833114

   => Energetics <=

    Nuclear Repulsion Energy =            380.4954150864296025
    One-Electron Energy =               -1227.5493261108254046
    Two-Electron Energy =                 497.6738488860647749
    DFT Exchange-Correlation Energy =       0.0000000000000000
    Empirical Dispersion Energy =           0.0000000000000000
    PCM Polarization Energy =               0.0000000000000000
    EFP Energy =                            0.0000000000000000
    Total Energy =                       -349.3800621383310272
    Molecular point group: c1
  Basis Set: CC-PVTZ
  Basis Set:

  -Total Gradient:
     Atom            X                  Y                   Z
    ------   -----------------  -----------------  -----------------
       1       -0.000018807339    -0.000003545028    -0.000003727517
       2       -0.000669335107     0.001939828904     0.000700492266
       3        0.000746763004    -0.001944981575    -0.000839611994
       4        0.000574093293    -0.001877809915    -0.000212134869
       5       -0.000024609275    -0.000002323834     0.000022315523
       6        0.000005734005     0.000013721494    -0.000014612865
       7       -0.000572558243     0.001884829686     0.000303402341
       8       -0.000056931308     0.000020682182     0.000032495458
       9       -0.000001297062     0.000019869735     0.000003889710
      10        0.000042256054    -0.000011519890     0.000013551643
      11       -0.000009782766    -0.000040023256     0.000034144932
      12       -0.000003857953    -0.000000769373    -0.000022662575
      13       -0.000002758172    -0.000006776679    -0.000003349366
      14        0.000008684942     0.000001479307     0.000001836195
      15       -0.000002897909     0.000007592446     0.000002328958
      16       -0.000003371428     0.000003499465    -0.000018628254
      17       -0.000000908117    -0.000003667427     0.000000894335
      18       -0.000002029813     0.000002420895     0.000003249717
      19        0.000000865156    -0.000002033267    -0.000001367926
      20       -0.000009436012    -0.000002003235    -0.000003697256
      21        0.000001343625     0.000001968508     0.000000309052
      22        0.000000760100    -0.000000556576     0.000000045829
      23       -0.000000070336     0.000000277641     0.000000498546
      24       -0.000001849341    -0.000000160209     0.000000338114

  **** Optimization is complete! (in 4 steps) ****
    Final optimized geometry and variables:
    Molecular point group: c1

    Geometry (in Angstrom), charge = 0, multiplicity = 1:

    H           -2.661559787678     1.069671213656    -3.243556979697
    O           -2.727620044394     0.135165561953    -3.169607455157
    C           -2.434359561297    -0.259240678330    -1.856819622656
    C           -1.014985238512     0.091113160519    -1.434988521926
    H           -2.585160891586    -1.330267436250    -1.822615675356
    H           -3.144848738722     0.186987560590    -1.163762107454
    C           -0.770788081130    -0.113753166898     0.057164399876
    H           -0.313697864837    -0.494439245951    -2.020558630672
    H           -0.827613590203     1.134419995015    -1.683275334551
    C            0.660157480602     0.203303821858     0.484146985258
    H           -1.002795590088    -1.142338557292     0.324898096467
    H           -1.460437107623     0.508986699735     0.621139460281
    C            0.894088799950     0.004195353830     1.980295781815
    H            1.342802646939    -0.419097413920    -0.085289394038
    H            0.892456289613     1.232690170475     0.220089791756
    C            2.291634470390     0.388818590857     2.469046029992
    H            0.698606665120    -1.034014020918     2.239163512625
    H            0.164027454527     0.594503572929     2.527460818365
    C            3.419678118800    -0.488663472287     1.931788369649
    H            2.300526064064     0.340406008696     3.553595793360
    H            2.488326294339     1.426265146728     2.211454964360
    H            3.246269927066    -1.533646437260     2.168362282504
    H            4.369273317987    -0.205046126390     2.371005265368
    H            3.521768883172    -0.405772901987     0.856528408338

  Mulliken Charges: (a.u.)
   Center  Symbol    Alpha    Beta     Spin     Total
       1     H     0.39514  0.39514  0.00000  0.20971
       2     O     4.20156  4.20156  0.00000 -0.40311
       3     C     2.96907  2.96907  0.00000  0.06187
       4     C     3.09225  3.09225  0.00000 -0.18449
       5     H     0.45275  0.45275  0.00000  0.09450
       6     H     0.47274  0.47274  0.00000  0.05451
       7     C     3.10049  3.10049  0.00000 -0.20098
       8     H     0.44941  0.44941  0.00000  0.10118
       9     H     0.46306  0.46306  0.00000  0.07387
      10     C     3.09138  3.09138  0.00000 -0.18276
      11     H     0.45303  0.45303  0.00000  0.09394
      12     H     0.45406  0.45406  0.00000  0.09188
      13     C     3.09474  3.09474  0.00000 -0.18949
      14     H     0.45115  0.45115  0.00000  0.09770
      15     H     0.45448  0.45448  0.00000  0.09104
      16     C     3.09047  3.09047  0.00000 -0.18093
      17     H     0.45382  0.45382  0.00000  0.09237
      18     H     0.44992  0.44992  0.00000  0.10015
      19     C     3.15248  3.15248  0.00000 -0.30496
      20     H     0.44836  0.44836  0.00000  0.10328
      21     H     0.45491  0.45491  0.00000  0.09017
      22     H     0.45478  0.45478  0.00000  0.09043
      23     H     0.44632  0.44632  0.00000  0.10736
      24     H     0.45362  0.45362  0.00000  0.09275

   Total alpha = 33.00000, Total beta = 33.00000, Total charge = -0.00000

*** Psi4 exiting successfully. Buy a developer a beer!
