  ==> Input File <==

--------------------------------------------------------------------------
set {
	reference rhf
	basis 6-31G*
}

set_num_threads( 4 )
memory 2 gb

molecule MOL {
0 1

H	 2.332609	 0.878551	 -1.051851
C	 2.357710	 0.000000	 -0.417167
C	 1.175432	 0.000000	 0.532082
H	 3.291263	 0.000000	 0.136880
H	 2.332609	 -0.878551	 -1.051851
O	 0.000000	 0.000000	 -0.221444
H	 1.206604	 0.877321	 1.177902
H	 1.206604	 -0.877321	 1.177902
C	 -1.175432	 0.000000	 0.532082
C	 -1.329375	 1.358791	 1.186942
H	 -1.135938	 -0.783946	 1.288134
H	 -2.031234	 -0.212305	 -0.108447
H	 -0.483379	 1.564930	 1.832778
H	 -2.236171	 1.394146	 1.782727
H	 -1.379931	 2.137373	 0.434239

	symmetry c1
}
set optking {
	frozen_dihedral = ("
		11 9 6 3
	")
}

ee = optimize('scf')
oeprop('DIPOLE', 'QUADRUPOLE', 'MULLIKEN_CHARGES')
f=open( 'psi4out.xyz', 'w' )
f.write( "15  " )
f.write( str(ee) + "\n" )
f.write( MOL.save_string_xyz() )
f.close()
--------------------------------------------------------------------------

    Molecular point group: c1
  Charge       = 0
  Multiplicity = 1
  Basis Set: 6-31G*
  Basis Set:
  @DF-RHF Final Energy:  -232.13821984175658
    Total Energy =                       -232.1382198417564382
    Molecular point group: c1
  Basis Set: 6-31G*
  Basis Set:
  Basis Set: 6-31G*
  Basis Set:
  @DF-RHF Final Energy:  -232.13969829205914
    Total Energy =                       -232.1396982920590517
  Basis Set: 6-31G*
  Basis Set:
  Basis Set: 6-31G*
  Basis Set:
  @DF-RHF Final Energy:  -232.14182885802910
    Total Energy =                       -232.1418288580290437
  Basis Set: 6-31G*
  Basis Set:
  Basis Set: 6-31G*
  Basis Set:
  @DF-RHF Final Energy:  -232.14205587947325
    Total Energy =                       -232.1420558794732187
  Basis Set: 6-31G*
  Basis Set:
  Basis Set: 6-31G*
  Basis Set:
  @DF-RHF Final Energy:  -232.14207405186272
    Total Energy =                       -232.1420740518625507
  Basis Set: 6-31G*
  Basis Set:
  Charge       = 0
  Multiplicity = 1
  Basis Set: 6-31G*
  Basis Set:

    Orbital Energies (a.u.)
    -----------------------

    Doubly Occupied:

       1A    -20.550149     2A    -11.268329     3A    -11.267550
       4A    -11.211354     5A    -11.208249     6A     -1.374698
       7A     -1.040518     8A     -0.986596     9A     -0.863733
      10A     -0.810943    11A     -0.672894    12A     -0.649397
      13A     -0.640729    14A     -0.578213    15A     -0.547321
      16A     -0.544103    17A     -0.524154    18A     -0.503091
      19A     -0.486998    20A     -0.455585    21A     -0.408301

  @DF-RHF Final Energy:  -232.14207485851173

   => Energetics <=

    Nuclear Repulsion Energy =            192.6563787571054434
    One-Electron Energy =                -696.4110914160352195
    Two-Electron Energy =                 271.6126378004179287
    DFT Exchange-Correlation Energy =       0.0000000000000000
    Empirical Dispersion Energy =           0.0000000000000000
    PCM Polarization Energy =               0.0000000000000000
    EFP Energy =                            0.0000000000000000
    Total Energy =                       -232.1420748585118190
    Molecular point group: c1
  Basis Set: 6-31G*
  Basis Set:

  -Total Gradient:
     Atom            X                  Y                   Z
    ------   -----------------  -----------------  -----------------
       1        0.000003680090    -0.000000096389    -0.000003886383
       2        0.000018247828     0.000018976769     0.000011396197
       3        0.000011882645     0.000369241355    -0.000003303421
       4        0.000003586140    -0.000002390728    -0.000004426235
       5       -0.000005481350     0.000001770712     0.000005844490
       6       -0.000062825941    -0.000637257610    -0.000066271124
       7       -0.000000033255    -0.000006256799    -0.000007603946
       8        0.000011170070    -0.000003154685     0.000010406395
       9        0.000237138914     0.000556371585     0.000382301988
      10        0.000007650340    -0.000001589885    -0.000003616644
      11       -0.000193347589    -0.000303532981    -0.000338332557
      12       -0.000033746909    -0.000008656958     0.000017742325
      13       -0.000004294907     0.000012069761     0.000007173916
      14        0.000009219453    -0.000005532673    -0.000005152184
      15       -0.000002845531     0.000010038526    -0.000002272817

  **** Optimization is complete! (in 6 steps) ****
    Final optimized geometry and variables:
    Molecular point group: c1

    Geometry (in Angstrom), charge = 0, multiplicity = 1:

    H            2.179840042096     0.468394017135    -1.472650820373
    C            2.169470922654    -0.376407276860    -0.793189200677
    C            1.020976609649    -0.249146833805     0.189021237039
    H            3.119023008906    -0.408516139773    -0.267646291938
    H            2.066734803839    -1.282506931666    -1.379406519122
    O           -0.173343003827    -0.210522176099    -0.536810211117
    H            1.141275911313     0.650844233543     0.787444473212
    H            1.012810745152    -1.096386805572     0.874536238093
    C           -1.355394908638    -0.244347422289     0.210443954273
    C           -1.669764302642     1.067175965330     0.919465064696
    H           -1.320940196418    -1.064695294929     0.926613874763
    H           -2.142240439403    -0.468986672681    -0.498908169013
    H           -0.948128011387     1.297326707265     1.695797562124
    H           -2.648814085114     1.011026952976     1.386200884410
    H           -1.676542238174     1.885726770588     0.207677694032

  Mulliken Charges: (a.u.)
   Center  Symbol    Alpha    Beta     Spin     Total
       1     H     0.41333  0.41333  0.00000  0.17333
       2     C     3.24332  3.24332  0.00000 -0.48664
       3     C     2.98968  2.98968  0.00000  0.02063
       4     H     0.42301  0.42301  0.00000  0.15399
       5     H     0.41375  0.41375  0.00000  0.17250
       6     O     4.30995  4.30995  0.00000 -0.61990
       7     H     0.43055  0.43055  0.00000  0.13890
       8     H     0.43294  0.43294  0.00000  0.13412
       9     C     2.99082  2.99082  0.00000  0.01836
      10     C     3.25308  3.25308  0.00000 -0.50617
      11     H     0.43178  0.43178  0.00000  0.13644
      12     H     0.41495  0.41495  0.00000  0.17010
      13     H     0.41924  0.41924  0.00000  0.16153
      14     H     0.42071  0.42071  0.00000  0.15857
      15     H     0.41288  0.41288  0.00000  0.17424

   Total alpha = 21.00000, Total beta = 21.00000, Total charge =  0.00000
