  ==> Input File <==

--------------------------------------------------------------------------
set {
	reference rhf
	basis 6-31G*
}

set_num_threads( 4 )
memory 2 gb

molecule MOL {
0 1

H	 2.845955	 -0.323208	 0.022310
C	 1.900140	 0.071967	 -0.330070
C	 0.778463	 -0.508087	 0.517968
H	 1.782469	 -0.206877	 -1.370777
H	 1.922247	 1.149867	 -0.254252
N	 -0.540928	 0.005139	 0.058438
H	 0.716718	 -1.581298	 0.454712
H	 0.859711	 -0.198647	 1.550086
O	 -0.863362	 -0.225574	 -1.064986
O	 -1.189191	 0.615237	 0.853445

	symmetry c1
}
set optking {
	frozen_dihedral = ("
		9 6 3 2
	")
}

ee = optimize('scf')
oeprop('DIPOLE', 'QUADRUPOLE', 'MULLIKEN_CHARGES')
f=open( 'psi4out.xyz', 'w' )
f.write( "10  " )
f.write( str(ee) + "\n" )
f.write( MOL.save_string_xyz() )
f.close()
--------------------------------------------------------------------------

    Molecular point group: c1
  Charge       = 0
  Multiplicity = 1
  Basis Set: 6-31G*
  Basis Set:
  @DF-RHF Final Energy:  -282.70027410568582
    Total Energy =                       -282.7002741056857076
    Molecular point group: c1
  Basis Set: 6-31G*
  Basis Set:
  Basis Set: 6-31G*
  Basis Set:
  @DF-RHF Final Energy:  -282.70046770723445
    Total Energy =                       -282.7004677072345089
  Basis Set: 6-31G*
  Basis Set:
  Basis Set: 6-31G*
  Basis Set:
  @DF-RHF Final Energy:  -282.70035015974668
    Total Energy =                       -282.7003501597468471
  Basis Set: 6-31G*
  Basis Set:
  Basis Set: 6-31G*
  Basis Set:
  @DF-RHF Final Energy:  -282.70050767396577
    Total Energy =                       -282.7005076739659444
  Basis Set: 6-31G*
  Basis Set:
  Basis Set: 6-31G*
  Basis Set:
  @DF-RHF Final Energy:  -282.70051148416121
    Total Energy =                       -282.7005114841610975
  Basis Set: 6-31G*
  Basis Set:
  Charge       = 0
  Multiplicity = 1
  Basis Set: 6-31G*
  Basis Set:

    Orbital Energies (a.u.)
    -----------------------

    Doubly Occupied:

       1A    -20.604618     2A    -20.600394     3A    -15.848940
       4A    -11.303999     5A    -11.251439     6A     -1.632590
       7A     -1.418111     8A     -1.127174     9A     -0.967422
      10A     -0.836992    11A     -0.761236    12A     -0.738008
      13A     -0.725925    14A     -0.655084    15A     -0.590673
      16A     -0.562695    17A     -0.545416    18A     -0.485916
      19A     -0.478090    20A     -0.450127

  @DF-RHF Final Energy:  -282.70051532556113

   => Energetics <=

    Nuclear Repulsion Energy =            186.1844839978088260
    One-Electron Energy =                -754.6003020920554718
    Two-Electron Energy =                 285.7153027686853761
    DFT Exchange-Correlation Energy =       0.0000000000000000
    Empirical Dispersion Energy =           0.0000000000000000
    PCM Polarization Energy =               0.0000000000000000
    EFP Energy =                            0.0000000000000000
    Total Energy =                       -282.7005153255612981
    Molecular point group: c1
  Basis Set: 6-31G*
  Basis Set:

  -Total Gradient:
     Atom            X                  Y                   Z
    ------   -----------------  -----------------  -----------------
       1       -0.000000950267     0.000008516482     0.000009065889
       2       -0.000010920728    -0.000012070438     0.000000324770
       3        0.000018015171     0.000008954729     0.000010788532
       4       -0.000014460359     0.000004175540     0.000013731356
       5        0.000017973171     0.000014228991    -0.000001895771
       6        0.000037636607    -0.000108318797    -0.000191863553
       7       -0.000006024412    -0.000012910925     0.000007530713
       8        0.000012015992     0.000001285758    -0.000000736753
       9       -0.000009371673     0.000051581372     0.000112406629
      10       -0.000043913497     0.000044557289     0.000040648185

  **** Optimization is complete! (in 6 steps) ****
    Final optimized geometry and variables:
    Molecular point group: c1

    Geometry (in Angstrom), charge = 0, multiplicity = 1:

    H            2.846807407360    -0.313756626342     0.024462032066
    C            1.899056803451     0.069843785178    -0.335118372263
    C            0.779990559611    -0.501889556153     0.522113708071
    H            1.776267000663    -0.217285653107    -1.369925074935
    H            1.923561160283     1.151375425988    -0.268814691945
    N           -0.540241134929     0.009574499824     0.062985088157
    H            0.716877113059    -1.576473534522     0.428339976987
    H            0.861527177729    -0.222365199670     1.558815452541
    O           -0.853710976366    -0.238233003704    -1.061474108529
    O           -1.195199636786     0.628244729440     0.842546753286

  Mulliken Charges: (a.u.)
   Center  Symbol    Alpha    Beta     Spin     Total
       1     H     0.40586  0.40586  0.00000  0.18828
       2     C     3.25701  3.25701  0.00000 -0.51402
       3     C     3.09262  3.09262  0.00000 -0.18524
       4     H     0.39280  0.39280  0.00000  0.21440
       5     H     0.40270  0.40270  0.00000  0.19460
       6     N     3.21881  3.21881  0.00000  0.56237
       7     H     0.38711  0.38711  0.00000  0.22577
       8     H     0.38532  0.38532  0.00000  0.22935
       9     O     4.23043  4.23043  0.00000 -0.46086
      10     O     4.22732  4.22732  0.00000 -0.45465

   Total alpha = 20.00000, Total beta = 20.00000, Total charge = -0.00000
