                              Psi4 1.0.54 Driver

  ==> Input File <==

--------------------------------------------------------------------------
set {
	reference rhf
	basis cc-pvtz
}

set_num_threads( 4 )
memory 2 gb

molecule MOL {
0 1

H	 -1.666894	 -1.802829	 -0.268802
C	 -1.356192	 -1.204880	 -1.119427
O	 -0.775228	 0.000056	 -0.739966
H	 -2.236248	 -0.958302	 -1.696360
H	 -0.700810	 -1.804234	 -1.743031
C	 0.406133	 -0.000384	 0.036994
C	 1.526415	 -0.003194	 -0.997339
C	 0.498772	 1.259027	 0.900673
C	 0.495883	 -1.257378	 0.904465
H	 1.452279	 0.872071	 -1.630204
H	 1.451276	 -0.881020	 -1.626529
H	 2.497919	 -0.002741	 -0.517601
H	 0.368981	 2.144239	 0.289753
H	 1.470064	 1.313479	 1.377660
H	 -0.248448	 1.271586	 1.684297
H	 0.363971	 -2.144195	 0.296316
H	 1.467114	 -1.312636	 1.381470
H	 -0.251246	 -1.265768	 1.688235

	symmetry c1
}
set optking {
	frozen_dihedral = ("
		2 3 6 7
	")
}

ee,wfn = optimize('scf', return_wfn=True)
oeprop( wfn, 'DIPOLE', 'QUADRUPOLE', 'MULLIKEN_CHARGES')
f=open( 'psi4out.xyz', 'w' )
f.write( "18  " )
f.write( str(ee) + "\n" )
f.write( MOL.save_string_xyz() )
f.close()
--------------------------------------------------------------------------

    Molecular point group: c1
  Charge       = 0
  Multiplicity = 1
  Basis Set: CC-PVTZ
  Basis Set:
  @DF-RHF Final Energy:  -271.26990217200228
    Total Energy =                       -271.2699021720020482
    Molecular point group: c1
  Basis Set: CC-PVTZ
  Basis Set:
  Basis Set: CC-PVTZ
  Basis Set:
  @DF-RHF Final Energy:  -271.25922413753727
    Total Energy =                       -271.2592241375375011
  Basis Set: CC-PVTZ
  Basis Set:
  Basis Set: CC-PVTZ
  Basis Set:
  @DF-RHF Final Energy:  -271.27443180354123
    Total Energy =                       -271.2744318035413471
  Basis Set: CC-PVTZ
  Basis Set:
  Basis Set: CC-PVTZ
  Basis Set:
  @DF-RHF Final Energy:  -271.27511214649832
    Total Energy =                       -271.2751121464985999
  Basis Set: CC-PVTZ
  Basis Set:
  Basis Set: CC-PVTZ
  Basis Set:
  @DF-RHF Final Energy:  -271.27526990960274
    Total Energy =                       -271.2752699096025708
  Basis Set: CC-PVTZ
  Basis Set:
  Basis Set: CC-PVTZ
  Basis Set:
  @DF-RHF Final Energy:  -271.27527975200189
    Total Energy =                       -271.2752797520017793
  Basis Set: CC-PVTZ
  Basis Set:
  Basis Set: CC-PVTZ
  Basis Set:
  @DF-RHF Final Energy:  -271.27528401498756
    Total Energy =                       -271.2752840149877898
  Basis Set: CC-PVTZ
  Basis Set:
  Charge       = 0
  Multiplicity = 1
  Basis Set: CC-PVTZ
  Basis Set:

    Orbital Energies (a.u.)
    -----------------------

    Doubly Occupied:

       1A    -20.539452     2A    -11.280236     3A    -11.259008
       4A    -11.210582     5A    -11.204111     6A    -11.201606
       7A     -1.372225     8A     -1.074987     9A     -0.950257
      10A     -0.937365    11A     -0.912620    12A     -0.753037
      13A     -0.657300    14A     -0.647723    15A     -0.639542
      16A     -0.588845    17A     -0.575258    18A     -0.552256
      19A     -0.537075    20A     -0.526314    21A     -0.515299
      22A     -0.491106    23A     -0.486052    24A     -0.442849
      25A     -0.403272

  @DF-RHF Final Energy:  -271.27528429161731

   => Energetics <=

    Nuclear Repulsion Energy =            272.5179697254826010
    One-Electron Energy =                -908.0697472338268881
    Two-Electron Energy =                 364.2764932167270331
    DFT Exchange-Correlation Energy =       0.0000000000000000
    Empirical Dispersion Energy =           0.0000000000000000
    PCM Polarization Energy =               0.0000000000000000
    EFP Energy =                            0.0000000000000000
    Total Energy =                       -271.2752842916171971
    Molecular point group: c1
  Basis Set: CC-PVTZ
  Basis Set:

  -Total Gradient:
     Atom            X                  Y                   Z
    ------   -----------------  -----------------  -----------------
       1       -0.000007277395     0.000007787365     0.000003757370
       2       -0.001631944571    -0.000848089027     0.002528370807
       3        0.002467752175     0.002052763247    -0.003571380756
       4        0.000014970740     0.000023895341     0.000014285326
       5       -0.000010572354     0.000016670045     0.000000459285
       6       -0.001233847342    -0.003607180255    -0.000041653351
       7        0.000342210707     0.002369272248     0.000986674932
       8       -0.000023956194    -0.000023949947     0.000062354237
       9        0.000017188694    -0.000058900706     0.000084484906
      10       -0.000004592312     0.000004282212    -0.000002661830
      11       -0.000001645262    -0.000000867208    -0.000010835999
      12        0.000013404843    -0.000000180831     0.000002533965
      13        0.000005207809     0.000003126573    -0.000026752343
      14       -0.000026083674    -0.000025341023    -0.000015335732
      15        0.000025346388     0.000015976808     0.000019769291
      16        0.000015823490     0.000051309497     0.000062650610
      17       -0.000054524514    -0.000002574058    -0.000031318109
      18        0.000092538771     0.000021999719    -0.000065402607

  **** Optimization is complete! (in 8 steps) ****
    Final optimized geometry and variables:
    Molecular point group: c1

    Geometry (in Angstrom), charge = 0, multiplicity = 1:

    H           -2.077398296775    -1.170405154647    -0.534733099741
    C           -1.626492267227    -0.393992455601    -1.143125278141
    O           -0.866211542410     0.494325171718    -0.391391675547
    H           -2.418848103502     0.182639560720    -1.599145794111
    H           -1.053735189201    -0.866113257417    -1.937191241651
    C            0.333040923469     0.063285335978     0.228432568854
    C            1.490336617104     0.282261947034    -0.746673629527
    C            0.493940187122     0.985258655918     1.433833596043
    C            0.278657179624    -1.390189910755     0.697218415453
    H            1.524587267093     1.320487628642    -1.050772290045
    H            1.373587025426    -0.326023491961    -1.636650634381
    H            2.439173040783     0.024039661099    -0.290236009104
    H            0.475204762932     2.019222769364     1.114019022724
    H            1.431675823205     0.798516289255     1.944263709789
    H           -0.317584674409     0.835118653817     2.135025583548
    H            0.210314686416    -2.086540791231    -0.128799012605
    H            1.181910175925    -1.623306880626     1.246993800198
    H           -0.564944453015    -1.554658734523     1.356429042434

  Mulliken Charges: (a.u.)
   Center  Symbol    Alpha    Beta     Spin     Total
       1     H     0.46694  0.46694  0.00000  0.06613
       2     C     3.04341  3.04341  0.00000 -0.08682
       3     O     4.19434  4.19434  0.00000 -0.38869
       4     H     0.44235  0.44235  0.00000  0.11529
       5     H     0.47027  0.47027  0.00000  0.05946
       6     C     2.87367  2.87367  0.00000  0.25266
       7     C     3.14985  3.14985  0.00000 -0.29971
       8     C     3.14108  3.14108  0.00000 -0.28217
       9     C     3.17367  3.17367  0.00000 -0.34734
      10     H     0.44795  0.44795  0.00000  0.10411
      11     H     0.45040  0.45040  0.00000  0.09920
      12     H     0.45357  0.45357  0.00000  0.09286
      13     H     0.44762  0.44762  0.00000  0.10476
      14     H     0.45941  0.45941  0.00000  0.08119
      15     H     0.45140  0.45140  0.00000  0.09719
      16     H     0.44507  0.44507  0.00000  0.10986
      17     H     0.44403  0.44403  0.00000  0.11193
      18     H     0.44495  0.44495  0.00000  0.11009

   Total alpha = 25.00000, Total beta = 25.00000, Total charge = -0.00000

*** Psi4 exiting successfully. Buy a developer a beer!
