  ==> Input File <==

--------------------------------------------------------------------------
set {
	reference rhf
	basis cc-pvtz
}

set_num_threads( 4 )
memory 2 gb

molecule MOL {
0 1

H	 3.083659	 -1.378387	 0.000000
O	 2.179005	 -1.633391	 0.000000
C	 1.366950	 -0.558201	 0.000000
C	 0.452895	 -0.320507	 1.015227
C	 1.466900	 0.322526	 -1.057521
H	 0.376359	 -1.007633	 1.838288
C	 -0.357919	 0.795543	 0.970857
H	 2.171854	 0.141735	 -1.843140
C	 0.650470	 1.438533	 -1.094082
H	 -1.061397	 0.969153	 1.761934
C	 -0.264177	 1.681488	 -0.083530
C	 0.748242	 2.395000	 -2.227657
H	 -0.893345	 2.550194	 -0.120760
O	 1.492264	 2.284549	 -3.140701
H	 0.062665	 3.245922	 -2.168358

	symmetry c1
}
set optking {
	frozen_dihedral = ("
		4 3 2 1
	")
}

ee = optimize('scf')
oeprop('DIPOLE', 'QUADRUPOLE', 'MULLIKEN_CHARGES')
f=open( 'psi4out.xyz', 'w' )
f.write( "15  " )
f.write( str(ee) + "\n" )
f.write( MOL.save_string_xyz() )
f.close()
--------------------------------------------------------------------------

    Molecular point group: c1
  Charge       = 0
  Multiplicity = 1
  Basis Set: CC-PVTZ
  Basis Set:
  @DF-RHF Final Energy:  -418.43518898641548
    Total Energy =                       -418.4351889864155964
    Molecular point group: c1
  Basis Set: CC-PVTZ
  Basis Set:
  Basis Set: CC-PVTZ
  Basis Set:
  @DF-RHF Final Energy:  -418.43643016682313
    Total Energy =                       -418.4364301668233566
  Basis Set: CC-PVTZ
  Basis Set:
  Basis Set: CC-PVTZ
  Basis Set:
  @DF-RHF Final Energy:  -418.43562385940726
    Total Energy =                       -418.4356238594072011
  Basis Set: CC-PVTZ
  Basis Set:
  Basis Set: CC-PVTZ
  Basis Set:
  @DF-RHF Final Energy:  -418.43653081271196
    Total Energy =                       -418.4365308127119079
  Basis Set: CC-PVTZ
  Basis Set:
  Basis Set: CC-PVTZ
  Basis Set:
  @DF-RHF Final Energy:  -418.43654181738310
    Total Energy =                       -418.4365418173825901
  Basis Set: CC-PVTZ
  Basis Set:
  Charge       = 0
  Multiplicity = 1
  Basis Set: CC-PVTZ
  Basis Set:

    Orbital Energies (a.u.)
    -----------------------

    Doubly Occupied:

       1A    -20.584698     2A    -20.556003     3A    -11.329720
       4A    -11.305129     5A    -11.251430     6A    -11.249481
       7A    -11.248272     8A    -11.245579     9A    -11.242984
      10A     -1.413669    11A     -1.411693    12A     -1.175186
      13A     -1.052958    14A     -1.030033    15A     -0.901501
      16A     -0.853117    17A     -0.801324    18A     -0.752588
      19A     -0.702801    20A     -0.678762    21A     -0.662143
      22A     -0.636673    23A     -0.622956    24A     -0.611577
      25A     -0.563667    26A     -0.551196    27A     -0.535454
      28A     -0.510503    29A     -0.492417    30A     -0.428330
      31A     -0.357370    32A     -0.343130

  @DF-RHF Final Energy:  -418.43654401303803

   => Energetics <=

    Nuclear Repulsion Energy =            403.7138044973123101
    One-Electron Energy =               -1370.0960062143058167
    Two-Electron Energy =                 547.9456577039551348
    DFT Exchange-Correlation Energy =       0.0000000000000000
    Empirical Dispersion Energy =           0.0000000000000000
    PCM Polarization Energy =               0.0000000000000000
    EFP Energy =                            0.0000000000000000
    Total Energy =                       -418.4365440130383149
    Molecular point group: c1
  Basis Set: CC-PVTZ
  Basis Set:

  -Total Gradient:
     Atom            X                  Y                   Z
    ------   -----------------  -----------------  -----------------
       1       -0.000089419956     0.000090325551     0.002421342854
       2        0.000758024140     0.000265954574    -0.002631497950
       3       -0.002055787155    -0.001246314292    -0.000436833511
       4        0.001366173356     0.000758406760     0.000821704599
       5        0.000028632085     0.000012949551    -0.000110540683
       6        0.000019978899    -0.000037101335    -0.000002585642
       7       -0.000026183837     0.000181573019    -0.000089415187
       8       -0.000036692860     0.000026030429     0.000025052329
       9        0.000117920452    -0.000017479917    -0.000039145106
      10        0.000024045699    -0.000020443192    -0.000011726143
      11       -0.000075587118    -0.000079658300     0.000102358293
      12       -0.000061872532     0.000048527926     0.000025161172
      13        0.000017204774     0.000019255708    -0.000059667833
      14        0.000015437889    -0.000014404305    -0.000002383144
      15       -0.000001873834     0.000012377824    -0.000011824047

  **** Optimization is complete! (in 6 steps) ****
    Final optimized geometry and variables:
    Molecular point group: c1

    Geometry (in Angstrom), charge = 0, multiplicity = 1:

    H            2.155209699876    -2.130728238364     0.722381233238
    O            1.241912576062    -2.356269597524     0.703206912629
    C            0.468120738867    -1.237723265589     0.645102020569
    C           -0.439492664487    -1.007037109740     1.667840950605
    C            0.557803420340    -0.359714159402    -0.410505653624
    H           -0.490531518135    -1.705335144930     2.480133010981
    C           -1.263059329217     0.097429716210     1.625180307741
    H            1.249750497366    -0.534437527642    -1.210559595540
    C           -0.263241053621     0.758791712266    -0.443448411249
    H           -1.966536378310     0.267999807040     2.416745049175
    C           -1.175204895425     0.986890151821     0.568895363926
    C           -0.171910314004     1.717225067964    -1.573214942788
    H           -1.812007720339     1.850697773114     0.534508354160
    O            0.583230361054     1.619902660775    -2.479340226759
    H           -0.871499614232     2.557194554260    -1.519096742523

  Mulliken Charges: (a.u.)
   Center  Symbol    Alpha    Beta     Spin     Total
       1     H     0.38419  0.38419  0.00000  0.23161
       2     O     4.18631  4.18631  0.00000 -0.37263
       3     C     2.85876  2.85876  0.00000  0.28248
       4     C     3.10077  3.10077  0.00000 -0.20154
       5     C     3.12898  3.12898  0.00000 -0.25795
       6     H     0.41265  0.41265  0.00000  0.17470
       7     C     3.06389  3.06389  0.00000 -0.12779
       8     H     0.40600  0.40600  0.00000  0.18801
       9     C     2.98093  2.98093  0.00000  0.03813
      10     H     0.41876  0.41876  0.00000  0.16247
      11     C     3.09998  3.09998  0.00000 -0.19997
      12     C     2.90884  2.90884  0.00000  0.18232
      13     H     0.42252  0.42252  0.00000  0.15496
      14     O     4.17148  4.17148  0.00000 -0.34295
      15     H     0.45593  0.45593  0.00000  0.08814

   Total alpha = 32.00000, Total beta = 32.00000, Total charge = -0.00000
