  ==> Input File <==

--------------------------------------------------------------------------
set {
	reference rhf
	basis 6-31G*
}

set_num_threads( 4 )
memory 2 gb

molecule MOL {
0 1

H	 -3.207246	 -0.441601	 1.376215
C	 -3.267652	 -0.340373	 0.285469
C	 -2.660244	 0.921717	 -0.272021
O	 -3.784290	 -1.189589	 -0.365429
C	 -1.220012	 1.144545	 0.209990
H	 -2.716585	 0.879704	 -1.353580
H	 -3.282251	 1.750984	 0.062763
C	 -0.252658	 0.041456	 -0.226725
H	 -0.873521	 2.100229	 -0.171974
H	 -1.211708	 1.231594	 1.295398
C	 1.180775	 0.282413	 0.250794
H	 -0.266029	 -0.034465	 -1.312038
H	 -0.597733	 -0.921000	 0.146291
C	 2.148627	 -0.814315	 -0.201312
H	 1.516199	 1.249228	 -0.115937
H	 1.192670	 0.346017	 1.338083
C	 3.580890	 -0.659131	 0.322722
H	 2.166869	 -0.852443	 -1.289387
H	 1.762857	 -1.776509	 0.128956
C	 4.324889	 0.564933	 -0.213704
H	 4.142010	 -1.551473	 0.056605
H	 3.564836	 -0.624694	 1.410140
H	 4.342616	 0.565491	 -1.300421
H	 3.866655	 1.493402	 0.110242
H	 5.353900	 0.572371	 0.132816

	symmetry c1
}
set optking {
	frozen_dihedral = ("
		6 3 5 8
	")
}

ee = optimize('scf')
oeprop('DIPOLE', 'QUADRUPOLE', 'MULLIKEN_CHARGES')
f=open( 'psi4out.xyz', 'w' )
f.write( "25  " )
f.write( str(ee) + "\n" )
f.write( MOL.save_string_xyz() )
f.close()
--------------------------------------------------------------------------

    Molecular point group: c1
  Charge       = 0
  Multiplicity = 1
  Basis Set: 6-31G*
  Basis Set:
  @DF-RHF Final Energy:  -387.12194298639639
    Total Energy =                       -387.1219429863967889
    Molecular point group: c1
  Basis Set: 6-31G*
  Basis Set:
  Basis Set: 6-31G*
  Basis Set:
  @DF-RHF Final Energy:  -387.12153716405408
    Total Energy =                       -387.1215371640540752
  Basis Set: 6-31G*
  Basis Set:
  Basis Set: 6-31G*
  Basis Set:
  @DF-RHF Final Energy:  -387.12191330035273
    Total Energy =                       -387.1219133003523893
  Basis Set: 6-31G*
  Basis Set:
  Basis Set: 6-31G*
  Basis Set:
  @DF-RHF Final Energy:  -387.12196690731872
    Total Energy =                       -387.1219669073185514
  Basis Set: 6-31G*
  Basis Set:
  Basis Set: 6-31G*
  Basis Set:
  @DF-RHF Final Energy:  -387.12196263731681
    Total Energy =                       -387.1219626373172105
  Basis Set: 6-31G*
  Basis Set:
  Basis Set: 6-31G*
  Basis Set:
  @DF-RHF Final Energy:  -387.12196668757690
    Total Energy =                       -387.1219666875775829
  Basis Set: 6-31G*
  Basis Set:
  Basis Set: 6-31G*
  Basis Set:
  @DF-RHF Final Energy:  -387.12196815929104
    Total Energy =                       -387.1219681592907591
  Basis Set: 6-31G*
  Basis Set:
  Charge       = 0
  Multiplicity = 1
  Basis Set: 6-31G*
  Basis Set:

    Orbital Energies (a.u.)
    -----------------------

    Doubly Occupied:

       1A    -20.561871     2A    -11.326236     3A    -11.235382
       4A    -11.234694     5A    -11.224261     6A    -11.220076
       7A    -11.218170     8A    -11.217132     9A    -11.210791
      10A     -1.401845    11A     -1.104114    12A     -1.069785
      13A     -1.013459    14A     -0.942523    15A     -0.875510
      16A     -0.821856    17A     -0.787024    18A     -0.781575
      19A     -0.665011    20A     -0.661075    21A     -0.633028
      22A     -0.626254    23A     -0.600957    24A     -0.595801
      25A     -0.575566    26A     -0.548899    27A     -0.537356
      28A     -0.524873    29A     -0.507239    30A     -0.495217
      31A     -0.492552    32A     -0.479078    33A     -0.464774
      34A     -0.459149    35A     -0.441392    36A     -0.409556

  @DF-RHF Final Energy:  -387.12196808817868

   => Energetics <=

    Nuclear Repulsion Energy =            439.2773628403160160
    One-Electron Energy =               -1394.8705006343593595
    Two-Electron Energy =                 568.4711697058654636
    DFT Exchange-Correlation Energy =       0.0000000000000000
    Empirical Dispersion Energy =           0.0000000000000000
    PCM Polarization Energy =               0.0000000000000000
    EFP Energy =                            0.0000000000000000
    Total Energy =                       -387.1219680881778231
    Molecular point group: c1
  Basis Set: 6-31G*
  Basis Set:

  -Total Gradient:
     Atom            X                  Y                   Z
    ------   -----------------  -----------------  -----------------
       1       -0.000018435033    -0.000011134743     0.000012505228
       2       -0.000002266031     0.000003901679     0.000038183310
       3        0.000067553478    -0.001608229442     0.000284914739
       4        0.000000423671    -0.000010690253    -0.000000779122
       5        0.000218174555     0.000920759870    -0.000981307685
       6       -0.000146405493     0.001160913826    -0.000025155501
       7        0.000029805963    -0.000002905187    -0.000017138186
       8       -0.000158821277    -0.000428909307     0.000692035325
       9       -0.000011128824     0.000029463900     0.000012950511
      10        0.000000507032    -0.000023835795    -0.000023317912
      11       -0.000009481837    -0.000011870962     0.000016250099
      12       -0.000002901630    -0.000000976395    -0.000004421448
      13        0.000030046262    -0.000000077295    -0.000005004557
      14        0.000011228578    -0.000009942554     0.000010241184
      15       -0.000008173639    -0.000004527448     0.000005328327
      16       -0.000008401375    -0.000000113679     0.000004416975
      17        0.000003145434    -0.000004282149    -0.000025123593
      18       -0.000002466083     0.000003520255     0.000006813483
      19        0.000017643915    -0.000007261182    -0.000001777035
      20        0.000011072133     0.000001673618    -0.000003707773
      21       -0.000002966466    -0.000008466016     0.000007965216
      22       -0.000014630459     0.000007365531    -0.000003068702
      23       -0.000000715650     0.000002867469     0.000002481263
      24        0.000002042060     0.000004113778     0.000004284584
      25       -0.000004849282    -0.000001357519    -0.000007568729

  **** Optimization is complete! (in 8 steps) ****
    Final optimized geometry and variables:
    Molecular point group: c1

    Geometry (in Angstrom), charge = 0, multiplicity = 1:

    H           -3.234323429228    -0.432957422949     1.396028534902
    C           -3.291538487113    -0.326234962538     0.305547153991
    C           -2.665013851509     0.928888752306    -0.245380532286
    O           -3.827560296373    -1.160866915851    -0.348610618639
    C           -1.226802206868     1.142734653042     0.246894835607
    H           -2.715775848472     0.897711003239    -1.327665943055
    H           -3.280813952569     1.763970157310     0.087124961827
    C           -0.256726530790     0.043112505091    -0.193295856413
    H           -0.878332644820     2.103927459029    -0.119466392731
    H           -1.225524900383     1.214071713754     1.333244292488
    C            1.177734474419     0.290608652537     0.277890027351
    H           -0.273740734016    -0.034328290923    -1.278569251415
    H           -0.595675311236    -0.920511902232     0.182342014876
    C            2.146914969365    -0.807124459657    -0.169073012732
    H            1.509818494276     1.255828748366    -0.095845919240
    H            1.192421733222     0.361270313495     1.364624789189
    C            3.579694907924    -0.646384870737     0.351739947467
    H            2.163971397816    -0.850807770717    -1.256835076678
    H            1.763398171901    -1.768339196608     0.166534689100
    C            4.320608154774     0.576552138015    -0.192147039221
    H            4.142052964288    -1.539234536296     0.090197743323
    H            3.564556203114    -0.605946761191     1.439046680727
    H            4.339897591776     0.569660815832    -1.278690052094
    H            3.859373888927     1.506085389120     0.124824908301
    H            5.349040161709     0.589577881245     0.155309030216

  Mulliken Charges: (a.u.)
   Center  Symbol    Alpha    Beta     Spin     Total
       1     H     0.43255  0.43255  0.00000  0.13490
       2     C     2.83074  2.83074  0.00000  0.33851
       3     C     3.20818  3.20818  0.00000 -0.41635
       4     O     4.23798  4.23798  0.00000 -0.47597
       5     C     3.16578  3.16578  0.00000 -0.33156
       6     H     0.39978  0.39978  0.00000  0.20044
       7     H     0.40670  0.40670  0.00000  0.18661
       8     C     3.15539  3.15539  0.00000 -0.31078
       9     H     0.41274  0.41274  0.00000  0.17453
      10     H     0.41973  0.41973  0.00000  0.16055
      11     C     3.15416  3.15416  0.00000 -0.30831
      12     H     0.41764  0.41764  0.00000  0.16473
      13     H     0.41896  0.41896  0.00000  0.16209
      14     C     3.15309  3.15309  0.00000 -0.30619
      15     H     0.42069  0.42069  0.00000  0.15862
      16     H     0.42380  0.42380  0.00000  0.15239
      17     C     3.15277  3.15277  0.00000 -0.30555
      18     H     0.42288  0.42288  0.00000  0.15424
      19     H     0.42073  0.42073  0.00000  0.15855
      20     C     3.24138  3.24138  0.00000 -0.48276
      21     H     0.41991  0.41991  0.00000  0.16018
      22     H     0.42329  0.42329  0.00000  0.15341
      23     H     0.42183  0.42183  0.00000  0.15634
      24     H     0.42068  0.42068  0.00000  0.15865
      25     H     0.41863  0.41863  0.00000  0.16275

   Total alpha = 36.00000, Total beta = 36.00000, Total charge = -0.00000
