  ==> Input File <==

--------------------------------------------------------------------------
set {
	reference rhf
	basis 6-31G*
}

set_num_threads( 1 )
memory 2 gb

molecule MOL {
0 1

O	 2.918212	 1.265264	 0.453546
C	 2.843464	 0.164689	 -0.000222
C	 1.546494	 -0.624492	 -0.000609
C	 4.048971	 -0.520868	 -0.610075
C	 0.291004	 0.242674	 0.000989
H	 1.557904	 -1.283758	 -0.867573
H	 1.558622	 -1.285963	 0.864672
C	 -0.994322	 -0.586602	 0.000262
H	 0.309117	 0.896430	 -0.865270
H	 0.309661	 0.894078	 0.869017
C	 -2.259874	 0.272531	 0.000494
H	 -1.004862	 -1.240012	 -0.870939
H	 -1.005220	 -1.241071	 0.870675
C	 -3.549786	 -0.549746	 -0.000374
H	 -2.250389	 0.926680	 -0.869574
H	 -2.250838	 0.925513	 0.871430
C	 -4.809590	 0.315458	 -0.000369
H	 -3.560515	 -1.202009	 -0.871156
H	 -3.561123	 -1.202955	 0.869711
H	 -4.844746	 0.956611	 -0.876632
H	 -5.706986	 -0.295590	 -0.001609
H	 -4.845960	 0.954827	 0.877144
H	 3.854582	 -0.777480	 -1.647370
H	 4.907596	 0.133779	 -0.554986
H	 4.264528	 -1.446408	 -0.084200

	symmetry c1
}
set optking {
	frozen_dihedral = ("
		9 5 8 12,
		15 11 8 12,
		15 11 14 18,
		9 5 3 6
	")
}

ee = energy('scf')
oeprop('DIPOLE', 'QUADRUPOLE', 'MULLIKEN_CHARGES')
f=open( 'psi4out.xyz', 'w' )
f.write( "25  " )
f.write( str(ee) + "\n" )
f.write( MOL.save_string_xyz() )
f.close()
--------------------------------------------------------------------------

    Molecular point group: c1

    Geometry (in Angstrom), charge = 0, multiplicity = 1:

       Center              X                  Y                   Z               Mass
    ------------   -----------------  -----------------  -----------------  -----------------
           O          2.920489141519     1.261512511238     0.472036239720    15.994914619560
           C          2.845741141519     0.160937511238     0.018268239720    12.000000000000
           C          1.548771141519    -0.628243488762     0.017881239720    12.000000000000
           C          4.051248141519    -0.524619488762    -0.591584760280    12.000000000000
           C          0.293281141519     0.238922511238     0.019479239720    12.000000000000
           H          1.560181141519    -1.287509488762    -0.849082760280     1.007825032070
           H          1.560899141519    -1.289714488762     0.883162239720     1.007825032070
           C         -0.992044858481    -0.590353488762     0.018752239720    12.000000000000
           H          0.311394141519     0.892678511238    -0.846779760280     1.007825032070
           H          0.311938141519     0.890326511238     0.887507239720     1.007825032070
           C         -2.257596858481     0.268779511238     0.018984239720    12.000000000000
           H         -1.002584858481    -1.243763488762    -0.852448760280     1.007825032070
           H         -1.002942858481    -1.244822488762     0.889165239720     1.007825032070
           C         -3.547508858481    -0.553497488762     0.018116239720    12.000000000000
           H         -2.248111858481     0.922928511238    -0.851083760280     1.007825032070
           H         -2.248560858481     0.921761511238     0.889920239720     1.007825032070
           C         -4.807312858481     0.311706511238     0.018121239720    12.000000000000
           H         -3.558237858481    -1.205760488762    -0.852665760280     1.007825032070
           H         -3.558845858481    -1.206706488762     0.888201239720     1.007825032070
           H         -4.842468858481     0.952859511238    -0.858141760280     1.007825032070
           H         -5.704708858481    -0.299341488762     0.016881239720     1.007825032070
           H         -4.843682858481     0.951075511238     0.895634239720     1.007825032070
           H          3.856859141519    -0.781231488762    -1.628879760280     1.007825032070
           H          4.909873141519     0.130027511238    -0.536495760280     1.007825032070
           H          4.266805141519    -1.450159488762    -0.065709760280     1.007825032070

  Charge       = 0
  Multiplicity = 1
  Basis Set: 6-31G*
  Basis Set:

    Orbital Energies (a.u.)
    -----------------------

    Doubly Occupied:

       1A    -20.549718     2A    -11.326096     3A    -11.231414
       4A    -11.228193     5A    -11.219080     6A    -11.217760
       7A    -11.215961     8A    -11.214315     9A    -11.208786
      10A     -1.395189    11A     -1.094598    12A     -1.056876
      13A     -1.014431    14A     -0.969482    15A     -0.891302
      16A     -0.814989    17A     -0.791678    18A     -0.730355
      19A     -0.662446    20A     -0.650725    21A     -0.633695
      22A     -0.620601    23A     -0.596991    24A     -0.584856
      25A     -0.567350    26A     -0.559750    27A     -0.540778
      28A     -0.529136    29A     -0.511813    30A     -0.491362
      31A     -0.487685    32A     -0.473361    33A     -0.464617
      34A     -0.463183    35A     -0.451348    36A     -0.398150

  @DF-RHF Final Energy:  -387.13561507695232

   => Energetics <=

    Nuclear Repulsion Energy =            438.2383145843310217
    One-Electron Energy =               -1393.0317703297769185
    Two-Electron Energy =                 567.6578406684920992
    DFT Exchange-Correlation Energy =       0.0000000000000000
    Empirical Dispersion Energy =           0.0000000000000000
    PCM Polarization Energy =               0.0000000000000000
    EFP Energy =                            0.0000000000000000
    Total Energy =                       -387.1356150769538544

  Mulliken Charges: (a.u.)
   Center  Symbol    Alpha    Beta     Spin     Total
       1     O     4.26189  4.26189  0.00000 -0.52379
       2     C     2.73467  2.73467  0.00000  0.53066
       3     C     3.20947  3.20947  0.00000 -0.41895
       4     C     3.28803  3.28803  0.00000 -0.57606
       5     C     3.15077  3.15077  0.00000 -0.30154
       6     H     0.41509  0.41509  0.00000  0.16982
       7     H     0.40464  0.40464  0.00000  0.19072
       8     C     3.15370  3.15370  0.00000 -0.30740
       9     H     0.41731  0.41731  0.00000  0.16537
      10     H     0.40628  0.40628  0.00000  0.18744
      11     C     3.15094  3.15094  0.00000 -0.30188
      12     H     0.42483  0.42483  0.00000  0.15034
      13     H     0.42376  0.42376  0.00000  0.15249
      14     C     3.15159  3.15159  0.00000 -0.30318
      15     H     0.42301  0.42301  0.00000  0.15398
      16     H     0.42185  0.42185  0.00000  0.15631
      17     C     3.23937  3.23937  0.00000 -0.47873
      18     H     0.42359  0.42359  0.00000  0.15283
      19     H     0.42321  0.42321  0.00000  0.15359
      20     H     0.42153  0.42153  0.00000  0.15695
      21     H     0.41940  0.41940  0.00000  0.16120
      22     H     0.42116  0.42116  0.00000  0.15768
      23     H     0.40843  0.40843  0.00000  0.18314
      24     H     0.39697  0.39697  0.00000  0.20607
      25     H     0.40853  0.40853  0.00000  0.18295

   Total alpha = 36.00000, Total beta = 36.00000, Total charge = -0.00000
