  ==> Input File <==

--------------------------------------------------------------------------
set {
	reference rhf
	basis 6-31G*
}

set_num_threads( 4 )
memory 2 gb

molecule MOL {
0 1

H	 -3.042581	 -0.665861	 0.004336
O	 -2.245037	 -1.176175	 0.000806
C	 -1.162163	 -0.365336	 0.001020
C	 -0.916262	 0.545727	 1.012369
C	 -0.286431	 -0.476468	 -1.072094
H	 -1.595553	 0.634886	 1.843384
C	 0.215882	 1.344967	 0.939052
H	 -0.509522	 -1.193137	 -1.841336
C	 0.842958	 0.320073	 -1.143626
H	 0.408937	 2.056189	 1.722590
C	 1.089756	 1.239615	 -0.124066
C	 1.808536	 0.183412	 -2.297786
H	 1.961839	 1.868011	 -0.167880
H	 2.126539	 1.155671	 -2.658863
H	 1.361698	 -0.353455	 -3.126019
H	 2.698997	 -0.359083	 -1.992622

	symmetry c1
}
set optking {
	frozen_dihedral = ("
		5 3 2 1
	")
}

ee = optimize('scf')
oeprop('DIPOLE', 'QUADRUPOLE', 'MULLIKEN_CHARGES')
f=open( 'psi4out.xyz', 'w' )
f.write( "16  " )
f.write( str(ee) + "\n" )
f.write( MOL.save_string_xyz() )
f.close()
--------------------------------------------------------------------------

    Molecular point group: c1
  Charge       = 0
  Multiplicity = 1
  Basis Set: 6-31G*
  Basis Set:
  @DF-RHF Final Energy:  -344.59124584171559
    Total Energy =                       -344.5912458417155335
    Molecular point group: c1
  Basis Set: 6-31G*
  Basis Set:
  Basis Set: 6-31G*
  Basis Set:
  @DF-RHF Final Energy:  -344.59159516671298
    Total Energy =                       -344.5915951667130912
  Basis Set: 6-31G*
  Basis Set:
  Basis Set: 6-31G*
  Basis Set:
  @DF-RHF Final Energy:  -344.59163396485417
    Total Energy =                       -344.5916339648541680
  Basis Set: 6-31G*
  Basis Set:
  Basis Set: 6-31G*
  Basis Set:
  @DF-RHF Final Energy:  -344.59163824891783
    Total Energy =                       -344.5916382489177181
  Basis Set: 6-31G*
  Basis Set:
  @DF-RHF Final Energy:  -344.59163986008531
    Total Energy =                       -344.5916398600852517
  @DF-RHF Final Energy:  -344.59164131329021
    Total Energy =                       -344.5916413132902107
  @DF-RHF Final Energy:  -344.59164375108281
    Total Energy =                       -344.5916437510832111
  @DF-RHF Final Energy:  -344.59165405979633
    Total Energy =                       -344.5916540597966105
  Basis Set: 6-31G*
  Basis Set:
  @DF-RHF Final Energy:  -344.59166374756433
    Total Energy =                       -344.5916637475644393
  Basis Set: 6-31G*
  Basis Set:
  Basis Set: 6-31G*
  Basis Set:
  @DF-RHF Final Energy:  -344.59166971191416
    Total Energy =                       -344.5916697119142214
  Basis Set: 6-31G*
  Basis Set:
  Basis Set: 6-31G*
  Basis Set:
  @DF-RHF Final Energy:  -344.59167215782020
    Total Energy =                       -344.5916721578203123
  Basis Set: 6-31G*
  Basis Set:
  Charge       = 0
  Multiplicity = 1
  Basis Set: 6-31G*
  Basis Set:

    Orbital Energies (a.u.)
    -----------------------

    Doubly Occupied:

       1A    -20.577742     2A    -11.288857     3A    -11.241077
       4A    -11.233404     5A    -11.222804     6A    -11.221128
       7A    -11.220760     8A    -11.218592     9A     -1.393470
      10A     -1.149809    11A     -1.043003    12A     -1.003728
      13A     -0.936018    14A     -0.824512    15A     -0.812256
      16A     -0.713723    17A     -0.677155    18A     -0.654133
      19A     -0.616999    20A     -0.589187    21A     -0.574277
      22A     -0.568196    23A     -0.551316    24A     -0.513191
      25A     -0.504410    26A     -0.480721    27A     -0.463587
      28A     -0.327887    29A     -0.316169

  @DF-RHF Final Energy:  -344.59167260833965

   => Energetics <=

    Nuclear Repulsion Energy =            345.1111000944406442
    One-Electron Energy =               -1151.5293255030651380
    Two-Electron Energy =                 461.8265528002846736
    DFT Exchange-Correlation Energy =       0.0000000000000000
    Empirical Dispersion Energy =           0.0000000000000000
    PCM Polarization Energy =               0.0000000000000000
    EFP Energy =                            0.0000000000000000
    Total Energy =                       -344.5916726083398203
    Molecular point group: c1
  Basis Set: 6-31G*
  Basis Set:

  -Total Gradient:
     Atom            X                  Y                   Z
    ------   -----------------  -----------------  -----------------
       1       -0.000047627656    -0.000098890224    -0.002126672621
       2       -0.000394171013     0.000583592303     0.002235966111
       3        0.001306295284    -0.001468097638     0.000747422274
       4       -0.000038023008    -0.000029707348    -0.000015131461
       5       -0.000848543677     0.000986719200    -0.000836980831
       6        0.000000523039    -0.000000274439    -0.000000879970
       7        0.000039652969    -0.000002307031    -0.000027609819
       8       -0.000001702588     0.000010238103     0.000006938364
       9       -0.000016786404     0.000012622048    -0.000013586121
      10       -0.000002601418    -0.000000217398    -0.000001077317
      11       -0.000006304304     0.000003617506     0.000042141419
      12       -0.000000971444     0.000014449331     0.000000331665
      13       -0.000000251600     0.000000916426    -0.000011850534
      14        0.000004010398    -0.000004198860    -0.000003726921
      15        0.000003638491    -0.000003501944     0.000003060724
      16        0.000002862938    -0.000004960030     0.000001655040

  **** Optimization is complete! (in 12 steps) ****
    Final optimized geometry and variables:
    Molecular point group: c1

    Geometry (in Angstrom), charge = 0, multiplicity = 1:

    H           -2.896914526685    -0.910215297814     0.415314685807
    O           -2.086416068517    -1.400752982793     0.422096589291
    C           -1.018748499296    -0.548679992556     0.360727807053
    C           -0.804849917187     0.397100857623     1.351580846550
    C           -0.144304057579    -0.659574934181    -0.704175382669
    H           -1.486670797985     0.466857782580     2.180437213605
    C            0.295405621008     1.229862363143     1.258825672916
    H           -0.343879855873    -1.401258413856    -1.456745690014
    C            0.971340298235     0.166084162712    -0.793742255426
    H            0.468383884531     1.968597951436     2.021240266148
    C            1.179387683106     1.116969264538     0.196873832931
    C            1.938178157703     0.013826849196    -1.945108688938
    H            2.032091148662     1.770393283865     0.141003981442
    H            2.572224447309     0.887033866073    -2.045502605729
    H            1.413107249498    -0.129625651007    -2.883441539396
    H            2.582824134768    -0.848036383309    -1.796691285530

  Mulliken Charges: (a.u.)
   Center  Symbol    Alpha    Beta     Spin     Total
       1     H     0.27202  0.27202  0.00000  0.45595
       2     O     4.38709  4.38709  0.00000 -0.77418
       3     C     2.80848  2.80848  0.00000  0.38304
       4     C     3.13130  3.13130  0.00000 -0.26260
       5     C     3.13176  3.13176  0.00000 -0.26351
       6     H     0.39879  0.39879  0.00000  0.20242
       7     C     3.09158  3.09158  0.00000 -0.18317
       8     H     0.39536  0.39536  0.00000  0.20929
       9     C     2.97405  2.97405  0.00000  0.05190
      10     H     0.39865  0.39865  0.00000  0.20269
      11     C     3.12151  3.12151  0.00000 -0.24302
      12     C     3.25370  3.25370  0.00000 -0.50741
      13     H     0.40253  0.40253  0.00000  0.19495
      14     H     0.41299  0.41299  0.00000  0.17402
      15     H     0.41185  0.41185  0.00000  0.17631
      16     H     0.40834  0.40834  0.00000  0.18332

   Total alpha = 29.00000, Total beta = 29.00000, Total charge = -0.00000
