                              Psi4 1.0.54 Driver

  ==> Input File <==

--------------------------------------------------------------------------
set {
	reference rhf
	basis cc-pvtz
}

set_num_threads( 4 )
memory 2 gb

molecule MOL {
0 1

O	 2.279895	 2.276430	 -1.684251
C	 1.940398	 1.579077	 -2.583446
C	 0.655125	 0.777478	 -2.546789
C	 2.777081	 1.444721	 -3.835697
C	 -0.153799	 0.940965	 -1.267827
H	 0.065769	 1.064014	 -3.414905
H	 0.915555	 -0.266264	 -2.707363
C	 -1.437779	 0.116079	 -1.276308
H	 -0.390471	 1.989626	 -1.128506
H	 0.460165	 0.658277	 -0.420319
C	 -2.258482	 0.271340	 0.000669
H	 -2.047373	 0.403239	 -2.130245
H	 -1.192843	 -0.934195	 -1.418410
C	 -3.544441	 -0.550271	 -0.000253
H	 -2.504014	 1.320836	 0.143449
H	 -1.650242	 -0.016218	 0.854766
C	 -4.804551	 0.308747	 0.000556
H	 -3.553737	 -1.201524	 -0.870151
H	 -3.553831	 -1.203282	 0.868313
H	 -4.842050	 0.949078	 -0.874436
H	 -5.698404	 -0.304480	 -0.000254
H	 -4.842277	 0.947103	 0.876982
H	 2.202992	 1.749771	 -4.703691
H	 3.662124	 2.056358	 -3.752088
H	 3.061855	 0.409127	 -3.985666

	symmetry c1
}
set optking {
	frozen_dihedral = ("
		15 11 14 18
	")
}

ee,wfn = optimize('scf', return_wfn=True)
oeprop( wfn, 'DIPOLE', 'QUADRUPOLE', 'MULLIKEN_CHARGES')
f=open( 'psi4out.xyz', 'w' )
f.write( "25  " )
f.write( str(ee) + "\n" )
f.write( MOL.save_string_xyz() )
f.close()
--------------------------------------------------------------------------

    Molecular point group: c1
  Charge       = 0
  Multiplicity = 1
  Basis Set: CC-PVTZ
  Basis Set:
  @DF-RHF Final Energy:  -387.26887370319656
    Total Energy =                       -387.2688737031965047
    Molecular point group: c1
  Basis Set: CC-PVTZ
  Basis Set:
  Basis Set: CC-PVTZ
  Basis Set:
  @DF-RHF Final Energy:  -387.26913011739816
    Total Energy =                       -387.2691301173983902
  Basis Set: CC-PVTZ
  Basis Set:
  Basis Set: CC-PVTZ
  Basis Set:
  @DF-RHF Final Energy:  -387.26920487436013
    Total Energy =                       -387.2692048743595024
  Basis Set: CC-PVTZ
  Basis Set:
  Basis Set: CC-PVTZ
  Basis Set:
  @DF-RHF Final Energy:  -387.26909097812177
    Total Energy =                       -387.2690909781222217
  Basis Set: CC-PVTZ
  Basis Set:
  Basis Set: CC-PVTZ
  Basis Set:
  @DF-RHF Final Energy:  -387.26920668304859
    Total Energy =                       -387.2692066830492195
  Basis Set: CC-PVTZ
  Basis Set:
  Charge       = 0
  Multiplicity = 1
  Basis Set: CC-PVTZ
  Basis Set:

    Orbital Energies (a.u.)
    -----------------------

    Doubly Occupied:

       1A    -20.538919     2A    -11.320551     3A    -11.230262
       4A    -11.226624     5A    -11.215596     6A    -11.214607
       7A    -11.213345     8A    -11.211335     9A    -11.207216
      10A     -1.398961    11A     -1.094355    12A     -1.056123
      13A     -1.015152    14A     -0.969722    15A     -0.891797
      16A     -0.817891    17A     -0.789662    18A     -0.730946
      19A     -0.659766    20A     -0.655140    21A     -0.627534
      22A     -0.624175    23A     -0.605461    24A     -0.588313
      25A     -0.570267    26A     -0.558507    27A     -0.532787
      28A     -0.530367    29A     -0.516619    30A     -0.494474
      31A     -0.485302    32A     -0.479177    33A     -0.463934
      34A     -0.455622    35A     -0.451177    36A     -0.401348

  @DF-RHF Final Energy:  -387.26920689169214

   => Energetics <=

    Nuclear Repulsion Energy =            440.5619204626049736
    One-Electron Energy =               -1397.9761818067777313
    Two-Electron Energy =                 570.1450544524811903
    DFT Exchange-Correlation Energy =       0.0000000000000000
    Empirical Dispersion Energy =           0.0000000000000000
    PCM Polarization Energy =               0.0000000000000000
    EFP Energy =                            0.0000000000000000
    Total Energy =                       -387.2692068916915105
    Molecular point group: c1
  Basis Set: CC-PVTZ
  Basis Set:

  -Total Gradient:
     Atom            X                  Y                   Z
    ------   -----------------  -----------------  -----------------
       1       -0.000005648143     0.000011803975     0.000013377126
       2        0.000011031419    -0.000021662196    -0.000009241390
       3        0.000005524528     0.000016346176    -0.000002576298
       4       -0.000003792025     0.000002915170    -0.000004437677
       5        0.000007976879     0.000010223758    -0.000001004153
       6        0.000000106760    -0.000000859867    -0.000000465989
       7        0.000000826139     0.000002615269     0.000001852402
       8       -0.000012673563    -0.000012734781     0.000035055055
       9        0.000004649549     0.000000128374     0.000001371131
      10       -0.000001333593     0.000000111828    -0.000004045364
      11       -0.000024470576     0.000017368447     0.001383456051
      12       -0.000000447746    -0.000004353564     0.000004119926
      13       -0.000002418379    -0.000004953598    -0.000000807059
      14        0.000659860819    -0.001083771050     0.000561083841
      15       -0.000088144050     0.000158012075    -0.001277597553
      16       -0.000001453644    -0.000002308087    -0.000001349731
      17        0.000014722721    -0.000018812514    -0.000000992737
      18       -0.000565745066     0.000935214479    -0.000696576587
      19        0.000002749959     0.000000631233    -0.000001036848
      20        0.000001974296    -0.000001229274     0.000006549665
      21       -0.000003264667    -0.000000676330    -0.000000288387
      22        0.000002278127    -0.000000688545    -0.000002773714
      23        0.000001522975    -0.000000646662    -0.000004732089
      24       -0.000004894558    -0.000000802474     0.000003694345
      25        0.000001061840    -0.000001871839    -0.000002633965

  **** Optimization is complete! (in 6 steps) ****
    Final optimized geometry and variables:
    Molecular point group: c1

    Geometry (in Angstrom), charge = 0, multiplicity = 1:

    O            2.789142727095     1.479234795919    -0.226014127638
    C            2.451125700185     0.775246802610    -1.120505045318
    C            1.169882812271    -0.032582325234    -1.076577510907
    C            3.285564665819     0.637947416873    -2.374018930276
    C            0.362606630633     0.134447718060     0.203024533129
    H            0.577548728865     0.246052974369    -1.945233130013
    H            1.435301146739    -1.075903967166    -1.231583250950
    C           -0.917278401463    -0.695920498449     0.202210218391
    H            0.121774057041     1.182884193594     0.337218330397
    H            0.979434975689    -0.140801149505     1.051048953841
    C           -1.735007446420    -0.541224170574     1.483316255027
    H           -1.532901412201    -0.414259251982    -0.649755147154
    H           -0.669607886523    -1.745769356455     0.062394523396
    C           -3.050548202715    -1.346156456933     1.473628992155
    H           -1.955938523171     0.512734940770     1.623161222463
    H           -1.121655228115    -0.836857051979     2.327980466845
    C           -4.298579145620    -0.467320576595     1.444923747353
    H           -3.069307833835    -1.998345412304     0.606065921826
    H           -3.096407979939    -1.994726652650     2.341304776385
    H           -4.299232654770     0.181437196730     0.574791235530
    H           -5.201777795692    -1.066287740637     1.411513384134
    H           -4.351470948753     0.164360045162     2.325182221910
    H            2.707785565934     0.935074814896    -3.242301011901
    H            4.167691485974     1.254593648740    -2.296192536051
    H            3.575280059304    -0.397042155387    -2.518626214114

  Mulliken Charges: (a.u.)
   Center  Symbol    Alpha    Beta     Spin     Total
       1     O     4.17075  4.17075  0.00000 -0.34151
       2     C     2.86216  2.86216  0.00000  0.27568
       3     C     3.11353  3.11353  0.00000 -0.22707
       4     C     3.15125  3.15125  0.00000 -0.30249
       5     C     3.08407  3.08407  0.00000 -0.16814
       6     H     0.44560  0.44560  0.00000  0.10880
       7     H     0.44559  0.44559  0.00000  0.10882
       8     C     3.09120  3.09120  0.00000 -0.18240
       9     H     0.44570  0.44570  0.00000  0.10859
      10     H     0.44608  0.44608  0.00000  0.10784
      11     C     3.09516  3.09516  0.00000 -0.19032
      12     H     0.45548  0.45548  0.00000  0.08904
      13     H     0.45486  0.45486  0.00000  0.09028
      14     C     3.09043  3.09043  0.00000 -0.18087
      15     H     0.45357  0.45357  0.00000  0.09286
      16     H     0.44751  0.44751  0.00000  0.10498
      17     C     3.14708  3.14708  0.00000 -0.29415
      18     H     0.45549  0.45549  0.00000  0.08901
      19     H     0.44865  0.44865  0.00000  0.10271
      20     H     0.45588  0.45588  0.00000  0.08824
      21     H     0.44977  0.44977  0.00000  0.10047
      22     H     0.45406  0.45406  0.00000  0.09189
      23     H     0.45039  0.45039  0.00000  0.09921
      24     H     0.43536  0.43536  0.00000  0.12927
      25     H     0.45037  0.45037  0.00000  0.09926

   Total alpha = 36.00000, Total beta = 36.00000, Total charge = -0.00000

*** Psi4 exiting successfully. Buy a developer a beer!
