  ==> Input File <==

--------------------------------------------------------------------------
set {
	reference rhf
	basis 6-31G*
}

set_num_threads( 4 )
memory 2 gb

molecule MOL {
0 1

H	 -0.216825	 0.021369	 -3.357402
C	 0.374198	 0.036393	 -2.447010
C	 -0.521757	 -0.028637	 -1.217342
H	 0.969602	 0.942322	 -2.434777
H	 1.053364	 -0.811668	 -2.481329
N	 0.263400	 0.031178	 0.000000
H	 -1.199035	 0.820290	 -1.219355
H	 -1.147901	 -0.924895	 -1.265384
C	 -0.521757	 -0.028637	 1.217342
H	 0.935769	 -0.712709	 0.000000
C	 0.374950	 -0.203374	 2.435714
H	 -1.072065	 0.903460	 1.305334
H	 -1.268426	 -0.828328	 1.192393
H	 1.092574	 0.606902	 2.497610
H	 -0.211830	 -0.218280	 3.348849
H	 0.927266	 -1.138211	 2.383954

	symmetry c1
}
set optking {
	frozen_dihedral = ("
		12 9 6 3
	")
}

ee = optimize('scf')
oeprop('DIPOLE', 'QUADRUPOLE', 'MULLIKEN_CHARGES')
f=open( 'psi4out.xyz', 'w' )
f.write( "16  " )
f.write( str(ee) + "\n" )
f.write( MOL.save_string_xyz() )
f.close()
--------------------------------------------------------------------------

    Molecular point group: c1
  Charge       = 0
  Multiplicity = 1
  Basis Set: 6-31G*
  Basis Set:
  @DF-RHF Final Energy:  -212.31362275815334
    Total Energy =                       -212.3136227581532012
    Molecular point group: c1
  Basis Set: 6-31G*
  Basis Set:
  Basis Set: 6-31G*
  Basis Set:
  @DF-RHF Final Energy:  -212.31365657160583
    Total Energy =                       -212.3136565716058612
  Basis Set: 6-31G*
  Basis Set:
  Basis Set: 6-31G*
  Basis Set:
  @DF-RHF Final Energy:  -212.31366093405418
    Total Energy =                       -212.3136609340542122
  Basis Set: 6-31G*
  Basis Set:
  Charge       = 0
  Multiplicity = 1
  Basis Set: 6-31G*
  Basis Set:

    Orbital Energies (a.u.)
    -----------------------

    Doubly Occupied:

       1A    -15.534347     2A    -11.240512     3A    -11.240396
       4A    -11.209714     5A    -11.208073     6A     -1.205712
       7A     -1.028465     8A     -0.962867     9A     -0.832169
      10A     -0.821789    11A     -0.660332    12A     -0.628275
      13A     -0.600876    14A     -0.589321    15A     -0.553110
      16A     -0.521132    17A     -0.508389    18A     -0.488435
      19A     -0.483273    20A     -0.472799    21A     -0.360879

  @DF-RHF Final Energy:  -212.31366119529673

   => Energetics <=

    Nuclear Repulsion Energy =            189.2233695154237694
    One-Electron Energy =                -660.7723282870961157
    Two-Electron Energy =                 259.2352975763757854
    DFT Exchange-Correlation Energy =       0.0000000000000000
    Empirical Dispersion Energy =           0.0000000000000000
    PCM Polarization Energy =               0.0000000000000000
    EFP Energy =                            0.0000000000000000
    Total Energy =                       -212.3136611952965609
    Molecular point group: c1
  Basis Set: 6-31G*
  Basis Set:

  -Total Gradient:
     Atom            X                  Y                   Z
    ------   -----------------  -----------------  -----------------
       1       -0.000001165909     0.000000516917     0.000003337004
       2       -0.000000987959    -0.000002477354    -0.000002532716
       3        0.000129375816    -0.001443284436     0.000029437061
       4        0.000000091660    -0.000000104399    -0.000001024491
       5        0.000004122083    -0.000001231473    -0.000003028851
       6        0.000144900758     0.002242024089     0.000230052881
       7       -0.000011645522     0.000001846028    -0.000010616560
       8       -0.000012985938    -0.000005756344    -0.000010039523
       9       -0.001721411957    -0.001546620653    -0.001243152293
      10        0.000003734124     0.000000000457     0.000012718533
      11        0.000011030440     0.000002903315     0.000011825328
      12        0.001449601895     0.000737552209     0.000954770553
      13       -0.000006345713     0.000007230176     0.000004695930
      14        0.000009046101     0.000001470295     0.000009326540
      15       -0.000000178578     0.000003147920     0.000007570276
      16        0.000002818700     0.000002783252     0.000006660327

  **** Optimization is complete! (in 4 steps) ****
    Final optimized geometry and variables:
    Molecular point group: c1

    Geometry (in Angstrom), charge = 0, multiplicity = 1:

    H           -0.218546472463     0.078629487457    -3.355290424655
    C            0.373474099474     0.092650733827    -2.445497368687
    C           -0.520680111147     0.020379116877    -1.215001074416
    H            0.965750979240     1.000515064872    -2.431155191790
    H            1.055724004990    -0.752847097932    -2.483383133087
    N            0.265795923683     0.073732171630     0.002334883210
    H           -1.199507391128     0.868318316917    -1.211998366470
    H           -1.145735624070    -0.876259780816    -1.264978758919
    C           -0.523328224781     0.015778241542     1.218378744599
    H            0.923854045708    -0.683083147359    -0.000626097425
    C            0.373131588634    -0.149321262116     2.439171965786
    H           -1.069963656740     0.949970717070     1.309264533600
    H           -1.264625613262    -0.788043829669     1.195965338438
    H            1.097731509929     0.655877121844     2.489410918736
    H           -0.213254487513    -0.143118802146     3.352422135169
    H            0.916633419438    -1.090171869499     2.403025509735

  Mulliken Charges: (a.u.)
   Center  Symbol    Alpha    Beta     Spin     Total
       1     H     0.42035  0.42035  0.00000  0.15929
       2     C     3.24168  3.24168  0.00000 -0.48337
       3     C     3.05387  3.05387  0.00000 -0.10773
       4     H     0.41193  0.41193  0.00000  0.17614
       5     H     0.42492  0.42492  0.00000  0.15016
       6     N     3.84880  3.84880  0.00000 -0.69759
       7     H     0.42047  0.42047  0.00000  0.15906
       8     H     0.43497  0.43497  0.00000  0.13006
       9     C     3.05071  3.05071  0.00000 -0.10141
      10     H     0.33599  0.33599  0.00000  0.32803
      11     C     3.24584  3.24584  0.00000 -0.49168
      12     H     0.42001  0.42001  0.00000  0.15998
      13     H     0.43500  0.43500  0.00000  0.13001
      14     H     0.41172  0.41172  0.00000  0.17656
      15     H     0.41896  0.41896  0.00000  0.16209
      16     H     0.42479  0.42479  0.00000  0.15042

   Total alpha = 21.00000, Total beta = 21.00000, Total charge =  0.00000
