                              Psi4 1.0.54 Driver

  ==> Input File <==

--------------------------------------------------------------------------
set {
	reference rhf
	basis cc-pvtz
}

set_num_threads( 4 )
memory 2 gb

molecule MOL {
0 1

O	 -0.505008	 -1.869881	 1.383649
C	 -1.440484	 -1.550279	 0.731603
C	 -2.715598	 -2.345508	 0.654271
O	 -1.481217	 -0.452708	 0.001092
H	 -3.118144	 -2.448287	 1.653007
H	 -3.443189	 -1.878832	 0.009706
H	 -2.481033	 -3.336804	 0.290423
C	 -0.332055	 0.384012	 -0.000250
C	 0.892252	 -0.506059	 -0.000295
H	 -0.360822	 1.020205	 -0.874146
H	 -0.359817	 1.021310	 0.872861
C	 2.188199	 0.299473	 -0.001416
H	 0.857046	 -1.152781	 -0.871031
H	 0.857910	 -1.151798	 0.871202
C	 3.437151	 -0.577593	 -0.000991
H	 2.209565	 0.950707	 -0.871712
H	 2.210062	 0.952234	 0.867721
C	 4.732399	 0.226982	 -0.000914
H	 3.417321	 -1.229122	 -0.869998
H	 3.416993	 -1.228707	 0.868337
H	 4.797903	 0.863451	 -0.876963
H	 5.598517	 -0.424436	 -0.000420
H	 4.797415	 0.864118	 0.874691

	symmetry c1
}
set optking {
	frozen_dihedral = ("
		2 4 8 10
	")
}

ee,wfn = optimize('scf', return_wfn=True)
oeprop( wfn, 'DIPOLE', 'QUADRUPOLE', 'MULLIKEN_CHARGES')
f=open( 'psi4out.xyz', 'w' )
f.write( "23  " )
f.write( str(ee) + "\n" )
f.write( MOL.save_string_xyz() )
f.close()
--------------------------------------------------------------------------

    Molecular point group: c1
  Charge       = 0
  Multiplicity = 1
  Basis Set: CC-PVTZ
  Basis Set:
  @DF-RHF Final Energy:  -423.09472712682310
    Total Energy =                       -423.0947271268236136
    Molecular point group: c1
  Basis Set: CC-PVTZ
  Basis Set:
  Basis Set: CC-PVTZ
  Basis Set:
  @DF-RHF Final Energy:  -423.10785228501618
    Total Energy =                       -423.1078522850157242
  Basis Set: CC-PVTZ
  Basis Set:
  Basis Set: CC-PVTZ
  Basis Set:
  @DF-RHF Final Energy:  -423.12508374809084
    Total Energy =                       -423.1250837480910150
  Basis Set: CC-PVTZ
  Basis Set:
  Basis Set: CC-PVTZ
  Basis Set:
  @DF-RHF Final Energy:  -423.12654852595438
    Total Energy =                       -423.1265485259543766
  Basis Set: CC-PVTZ
  Basis Set:
  @DF-RHF Final Energy:  -423.12683038076528
    Total Energy =                       -423.1268303807652273
  @DF-RHF Final Energy:  -423.12672506542515
    Total Energy =                       -423.1267250654243526
  @DF-RHF Final Energy:  -423.12694594354537
    Total Energy =                       -423.1269459435451381
  @DF-RHF Final Energy:  -423.12695912655545
    Total Energy =                       -423.1269591265552208
  @DF-RHF Final Energy:  -423.12696549962914
    Total Energy =                       -423.1269654996290228
  @DF-RHF Final Energy:  -423.12694638264935
    Total Energy =                       -423.1269463826491801
  @DF-RHF Final Energy:  -422.16351483860552
    Total Energy =                       -422.1635148386055789
  @DF-RHF Final Energy:  -422.34620314154677
    Total Energy =                       -422.3462031415465390
  @DF-RHF Final Energy:  -422.56729657720342
    Total Energy =                       -422.5672965772035923
  @DF-RHF Final Energy:  -422.88947387860753
    Total Energy =                       -422.8894738786075322
  @DF-RHF Final Energy:  -422.71772763358695
    Total Energy =                       -422.7177276335870602
  @DF-RHF Final Energy:  -422.96833453802270
    Total Energy =                       -422.9683345380225319
  @DF-RHF Final Energy:  -423.09728166296657
    Total Energy =                       -423.0972816629663384
  @DF-RHF Final Energy:  -423.11827616510107
    Total Energy =                       -423.1182761651010651
  @DF-RHF Final Energy:  -422.61139508217082
    Total Energy =                       -422.6113950821705885
  @DF-RHF Final Energy:  -422.91412529617975
    Total Energy =                       -422.9141252961794635
  @DF-RHF Final Energy:  -422.98596373893321
    Total Energy =                       -422.9859637389330373
  @DF-RHF Final Energy:  -423.09524277745959
    Total Energy =                       -423.0952427774593616
  @DF-RHF Final Energy:  -423.11982619874311
    Total Energy =                       -423.1198261987433398
  @DF-RHF Final Energy:  -423.12426301124890
    Total Energy =                       -423.1242630112488996
  @DF-RHF Final Energy:  -423.12659511538823
    Total Energy =                       -423.1265951153884544
  @DF-RHF Final Energy:  -423.12658705057248
    Total Energy =                       -423.1265870505719704
  @DF-RHF Final Energy:  -423.12727992672978
    Total Energy =                       -423.1272799267296705
  @DF-RHF Final Energy:  -423.12745646996495
    Total Energy =                       -423.1274564699647271
  @DF-RHF Final Energy:  -423.12763863792202
    Total Energy =                       -423.1276386379217911
  @DF-RHF Final Energy:  -423.12754508084043
    Total Energy =                       -423.1275450808408323
  @DF-RHF Final Energy:  -423.12784512607789
    Total Energy =                       -423.1278451260778866
  Basis Set: CC-PVTZ
  Basis Set:
  @DF-RHF Final Energy:  -423.12772710338987
    Total Energy =                       -423.1277271033898160
  Basis Set: CC-PVTZ
  Basis Set:
  Basis Set: CC-PVTZ
  Basis Set:
  @DF-RHF Final Energy:  -423.12787508010581
    Total Energy =                       -423.1278750801061506
  Basis Set: CC-PVTZ
  Basis Set:
  Basis Set: CC-PVTZ
  Basis Set:
  @DF-RHF Final Energy:  -423.12788062860017
    Total Energy =                       -423.1278806285999963
  Basis Set: CC-PVTZ
  Basis Set:
  Charge       = 0
  Multiplicity = 1
  Basis Set: CC-PVTZ
  Basis Set:

    Orbital Energies (a.u.)
    -----------------------

    Doubly Occupied:

       1A    -20.591521     2A    -20.530527     3A    -11.366948
       4A    -11.284137     5A    -11.229551     6A    -11.218836
       7A    -11.216293     8A    -11.215468     9A    -11.208786
      10A     -1.465915    11A     -1.364559    12A     -1.091948
      13A     -1.041528    14A     -1.002144    15A     -0.932391
      16A     -0.856554    17A     -0.798744    18A     -0.753152
      19A     -0.699218    20A     -0.679711    21A     -0.668391
      22A     -0.647255    23A     -0.609368    24A     -0.589664
      25A     -0.581050    26A     -0.568012    27A     -0.555040
      28A     -0.539507    29A     -0.523359    30A     -0.512264
      31A     -0.491653    32A     -0.475580    33A     -0.469063
      34A     -0.467195    35A     -0.443521    36A     -0.432533

  @DF-RHF Final Energy:  -423.12788132164121

   => Energetics <=

    Nuclear Repulsion Energy =            459.1301354939004113
    One-Electron Energy =               -1486.2732616756618427
    Two-Electron Energy =                 604.0152448601198785
    DFT Exchange-Correlation Energy =       0.0000000000000000
    Empirical Dispersion Energy =           0.0000000000000000
    PCM Polarization Energy =               0.0000000000000000
    EFP Energy =                            0.0000000000000000
    Total Energy =                       -423.1278813216416665
    Molecular point group: c1
  Basis Set: CC-PVTZ
  Basis Set:

  -Total Gradient:
     Atom            X                  Y                   Z
    ------   -----------------  -----------------  -----------------
       1        0.000023454171     0.000002935372    -0.000032890155
       2       -0.004113155418     0.003764186550    -0.002693512784
       3       -0.000021197555    -0.000005610916    -0.000000157505
       4        0.005645514341    -0.005145646125     0.003277252684
       5       -0.000012987859    -0.000001958336     0.000026260998
       6        0.000023255601     0.000024173185    -0.000053677065
       7        0.000018873117    -0.000010290756    -0.000000962710
       8        0.001481165288    -0.002068971351     0.004221976618
       9        0.000041188903     0.000032013054    -0.000047636511
      10       -0.003077802584     0.003373123057    -0.004726501411
      11        0.000010438932     0.000029396296    -0.000009151907
      12        0.000009715674    -0.000016743378     0.000011644161
      13       -0.000008709052     0.000003770535     0.000023366226
      14       -0.000017322264     0.000007281591     0.000014130082
      15       -0.000012383639     0.000005000372    -0.000019087291
      16       -0.000004295186     0.000001900553     0.000004492514
      17        0.000011559593    -0.000005958083     0.000013756619
      18        0.000005743046     0.000007731246    -0.000003177491
      19       -0.000008213216     0.000006259235    -0.000011899348
      20        0.000002015520     0.000002797609    -0.000000562784
      21       -0.000003283501    -0.000000584655     0.000002677898
      22       -0.000001688243    -0.000002900642    -0.000003216540
      23        0.000008114330    -0.000001904424     0.000006875703

  **** Optimization is complete! (in 35 steps) ****
    Final optimized geometry and variables:
    Molecular point group: c1

    Geometry (in Angstrom), charge = 0, multiplicity = 1:

    O           -0.125722513530    -2.189840979798    -0.907317975017
    C           -0.963708408246    -2.169409054076    -0.072050401689
    C           -2.180123009350    -3.053713591490    -0.071415081140
    O           -0.944977715365    -1.391552505487     0.994150420275
    H           -2.134027516394    -3.732774616841    -0.907176385601
    H           -2.231080543343    -3.604942014041     0.858111443437
    H           -3.070568029716    -2.441613538918    -0.139455762122
    C           -0.027419969971    -0.311903933849     1.153217335571
    C            0.198675532854     0.567186805049    -0.070202197791
    H           -0.502424367535     0.303025906175     1.903294319727
    H            0.906720815090    -0.701743231164     1.534859914059
    C            0.932234967785     1.848542950707     0.322334007353
    H           -0.765456053772     0.818690628404    -0.503538354047
    H            0.758305937063     0.037946145679    -0.824179919519
    C            1.214399023476     2.759805896299    -0.869038425676
    H            0.350127225005     2.395843153426     1.060160826934
    H            1.873440752911     1.593769844275     0.804567203568
    C            1.945409380769     4.040804993796    -0.481880815866
    H            0.276682216931     3.012750371350    -1.355929204822
    H            1.801643098446     2.216531993883    -1.603316180129
    H            1.366424362668     4.623950410977     0.226634618265
    H            2.130103055815     4.663819820162    -1.349291933395
    H            2.903590721748     3.821282771409    -0.022703116602

  Mulliken Charges: (a.u.)
   Center  Symbol    Alpha    Beta     Spin     Total
       1     O     4.19858  4.19858  0.00000 -0.39715
       2     C     2.80472  2.80472  0.00000  0.39057
       3     C     3.13952  3.13952  0.00000 -0.27904
       4     O     4.15753  4.15753  0.00000 -0.31506
       5     H     0.43881  0.43881  0.00000  0.12238
       6     H     0.44454  0.44454  0.00000  0.11092
       7     H     0.44706  0.44706  0.00000  0.10588
       8     C     2.97539  2.97539  0.00000  0.04923
       9     C     3.10728  3.10728  0.00000 -0.21455
      10     H     0.44769  0.44769  0.00000  0.10461
      11     H     0.45403  0.45403  0.00000  0.09194
      12     C     3.09440  3.09440  0.00000 -0.18880
      13     H     0.45368  0.45368  0.00000  0.09264
      14     H     0.42989  0.42989  0.00000  0.14021
      15     C     3.08285  3.08285  0.00000 -0.16571
      16     H     0.45593  0.45593  0.00000  0.08813
      17     H     0.45426  0.45426  0.00000  0.09149
      18     C     3.15080  3.15080  0.00000 -0.30160
      19     H     0.45383  0.45383  0.00000  0.09234
      20     H     0.45121  0.45121  0.00000  0.09758
      21     H     0.45556  0.45556  0.00000  0.08888
      22     H     0.44761  0.44761  0.00000  0.10479
      23     H     0.45484  0.45484  0.00000  0.09032

   Total alpha = 36.00000, Total beta = 36.00000, Total charge = -0.00000

*** Psi4 exiting successfully. Buy a developer a beer!
