  ==> Input File <==

--------------------------------------------------------------------------
set {
	reference rhf
	basis cc-pvtz
}

set_num_threads( 4 )
memory 2 gb

molecule MOL {
0 1

H	 2.387070	 -0.958279	 0.009063
O	 2.063695	 -0.083403	 -0.105237
C	 0.742924	 0.005675	 0.350750
H	 0.731380	 0.039219	 1.440080
C	 -0.064076	 -1.193495	 -0.124425
C	 -0.047832	 1.190568	 -0.194462
H	 0.194729	 -1.376165	 -1.161308
H	 0.163013	 -2.094508	 0.429933
C	 -1.533112	 -0.752002	 0.006102
H	 0.148003	 1.266545	 -1.259275
H	 0.226235	 2.136493	 0.259722
C	 -1.506634	 0.799189	 0.067162
H	 -2.124360	 -1.110499	 -0.826089
H	 -1.983103	 -1.158030	 0.903403
H	 -2.183808	 1.252169	 -0.644677
H	 -1.813926	 1.138698	 1.049457

	symmetry c1
}
set optking {
	frozen_dihedral = ("
		1 2 3 6
	")
}

ee = optimize('scf')
oeprop('DIPOLE', 'QUADRUPOLE', 'MULLIKEN_CHARGES')
f=open( 'psi4out.xyz', 'w' )
f.write( "16  " )
f.write( str(ee) + "\n" )
f.write( MOL.save_string_xyz() )
f.close()
--------------------------------------------------------------------------

    Molecular point group: c1
  Charge       = 0
  Multiplicity = 1
  Basis Set: CC-PVTZ
  Basis Set:
  @DF-RHF Final Energy:  -270.11469226293360
    Total Energy =                       -270.1146922629336586
    Molecular point group: c1
  Basis Set: CC-PVTZ
  Basis Set:
  Basis Set: CC-PVTZ
  Basis Set:
  @DF-RHF Final Energy:  -270.11614517619353
    Total Energy =                       -270.1161451761932994
  Basis Set: CC-PVTZ
  Basis Set:
  Basis Set: CC-PVTZ
  Basis Set:
  @DF-RHF Final Energy:  -270.11630219834240
    Total Energy =                       -270.1163021983425097
  Basis Set: CC-PVTZ
  Basis Set:
  Basis Set: CC-PVTZ
  Basis Set:
  @DF-RHF Final Energy:  -270.11630759181344
    Total Energy =                       -270.1163075918133245
  Basis Set: CC-PVTZ
  Basis Set:
  Basis Set: CC-PVTZ
  Basis Set:
  @DF-RHF Final Energy:  -270.11630926352348
    Total Energy =                       -270.1163092635235898
  Basis Set: CC-PVTZ
  Basis Set:
  Basis Set: CC-PVTZ
  Basis Set:
  @DF-RHF Final Energy:  -270.11631211296526
    Total Energy =                       -270.1163121129651472
  Basis Set: CC-PVTZ
  Basis Set:
  Basis Set: CC-PVTZ
  Basis Set:
  @DF-RHF Final Energy:  -270.11631311388339
    Total Energy =                       -270.1163131138835638
  Basis Set: CC-PVTZ
  Basis Set:
  Charge       = 0
  Multiplicity = 1
  Basis Set: CC-PVTZ
  Basis Set:

    Orbital Energies (a.u.)
    -----------------------

    Doubly Occupied:

       1A    -20.545093     2A    -11.267091     3A    -11.216471
       4A    -11.214021     5A    -11.213639     6A    -11.207151
       7A     -1.365303     8A     -1.115943     9A     -0.968121
      10A     -0.949548    11A     -0.792896    12A     -0.780590
      13A     -0.695997    14A     -0.662573    15A     -0.619541
      16A     -0.595188    17A     -0.571476    18A     -0.527494
      19A     -0.503438    20A     -0.482978    21A     -0.472113
      22A     -0.457438    23A     -0.446739    24A     -0.426205

  @DF-RHF Final Energy:  -270.11631385318606

   => Energetics <=

    Nuclear Repulsion Energy =            255.6929313278151312
    One-Electron Energy =                -873.4243941822671786
    Two-Electron Energy =                 347.6151490012662180
    DFT Exchange-Correlation Energy =       0.0000000000000000
    Empirical Dispersion Energy =           0.0000000000000000
    PCM Polarization Energy =               0.0000000000000000
    EFP Energy =                            0.0000000000000000
    Total Energy =                       -270.1163138531858294
    Molecular point group: c1
  Basis Set: CC-PVTZ
  Basis Set:

  -Total Gradient:
     Atom            X                  Y                   Z
    ------   -----------------  -----------------  -----------------
       1       -0.000493551735    -0.000351948481    -0.001498421757
       2        0.000497688119     0.000226285338     0.001527372050
       3        0.000264425197     0.000697512096     0.000788821044
       4       -0.000000696952    -0.000020145220     0.000000797524
       5       -0.000003223810     0.000007861500    -0.000008434506
       6       -0.000263110710    -0.000543001383    -0.000813123379
       7        0.000003560720    -0.000014206853     0.000003080707
       8       -0.000003086713     0.000006628321     0.000014129185
       9       -0.000008327160    -0.000005183347     0.000016819724
      10       -0.000006612504    -0.000008163598    -0.000001423620
      11        0.000004548833     0.000006659880    -0.000010861349
      12        0.000004304343    -0.000005831924    -0.000014662923
      13        0.000020270793     0.000012626811    -0.000014743427
      14       -0.000019257529    -0.000008659891    -0.000012342784
      15       -0.000017230745     0.000009684236     0.000015740573
      16        0.000020299853    -0.000010117487     0.000007252938

  **** Optimization is complete! (in 8 steps) ****
    Final optimized geometry and variables:
    Molecular point group: c1

    Geometry (in Angstrom), charge = 0, multiplicity = 1:

    H            2.447736790118    -0.849865625701    -0.009156455699
    O            2.070842514638     0.007484620471    -0.084977336574
    C            0.741597223345    -0.007817568530     0.355479096781
    H            0.718721004760     0.019971902947     1.444665049183
    C           -0.081848198238    -1.196325378583    -0.135116059420
    C           -0.028225026500     1.183136193182    -0.192092110525
    H            0.160028424674    -1.365046094409    -1.179667102282
    H            0.131535343088    -2.113100718213     0.403403519840
    C           -1.543555253354    -0.739483315609     0.016346513799
    H            0.180199464802     1.258145707446    -1.254012276428
    H            0.260729772031     2.120085069239     0.266154418525
    C           -1.495245222325     0.811977104432     0.055549215296
    H           -2.154638880243    -1.105146626830    -0.798147265734
    H           -1.977648080878    -1.128527529768     0.928842936443
    H           -2.155729275214     1.261940215634    -0.673588644773
    H           -1.813679437048     1.169710037445     1.027490606887

  Mulliken Charges: (a.u.)
   Center  Symbol    Alpha    Beta     Spin     Total
       1     H     0.39368  0.39368  0.00000  0.21263
       2     O     4.20241  4.20241  0.00000 -0.40481
       3     C     2.92264  2.92264  0.00000  0.15472
       4     H     0.46427  0.46427  0.00000  0.07146
       5     C     3.11508  3.11508  0.00000 -0.23015
       6     C     3.09555  3.09555  0.00000 -0.19111
       7     H     0.45229  0.45229  0.00000  0.09542
       8     H     0.44594  0.44594  0.00000  0.10812
       9     C     3.11197  3.11197  0.00000 -0.22395
      10     H     0.45354  0.45354  0.00000  0.09292
      11     H     0.44344  0.44344  0.00000  0.11312
      12     C     3.11252  3.11252  0.00000 -0.22504
      13     H     0.44474  0.44474  0.00000  0.11053
      14     H     0.44822  0.44822  0.00000  0.10356
      15     H     0.44370  0.44370  0.00000  0.11260
      16     H     0.45001  0.45001  0.00000  0.09999

   Total alpha = 24.00000, Total beta = 24.00000, Total charge = -0.00000
