                              Psi4 1.0.54 Driver

  ==> Input File <==

--------------------------------------------------------------------------
set {
	reference rhf
	basis cc-pvtz
}

set_num_threads( 4 )
memory 2 gb

molecule MOL {
0 1

O	 0.707562	 2.108937	 -0.196854
C	 -0.355336	 2.460618	 -0.581077
C	 -1.610791	 1.626878	 -0.567847
O	 -0.582133	 3.662936	 -1.084439
C	 -1.413045	 0.229353	 0.001137
H	 -2.356295	 2.178696	 -0.004641
H	 -1.980444	 1.587521	 -1.587292
C	 -2.702562	 -0.586401	 0.000228
H	 -1.027265	 0.305336	 1.011553
H	 -0.651608	 -0.286650	 -0.572884
C	 -3.953810	 0.284959	 -0.000782
H	 -2.717793	 -1.238567	 -0.869075
H	 -2.719108	 -1.238472	 0.869576
H	 -3.983727	 0.924403	 -0.876454
H	 -4.852989	 -0.320147	 -0.001515
H	 -3.985140	 0.924399	 0.874841
C	 0.513052	 4.553240	 -1.156883
H	 0.912707	 4.747054	 -0.172536
H	 0.128803	 5.463246	 -1.588289
H	 1.294897	 4.146055	 -1.780694

	symmetry c1
}
set optking {
	frozen_dihedral = ("
		9 5 8 12
	")
}

ee,wfn = optimize('scf', return_wfn=True)
oeprop( wfn, 'DIPOLE', 'QUADRUPOLE', 'MULLIKEN_CHARGES')
f=open( 'psi4out.xyz', 'w' )
f.write( "20  " )
f.write( str(ee) + "\n" )
f.write( MOL.save_string_xyz() )
f.close()
--------------------------------------------------------------------------

    Molecular point group: c1
  Charge       = 0
  Multiplicity = 1
  Basis Set: CC-PVTZ
  Basis Set:
  @DF-RHF Final Energy:  -384.07259953876991
    Total Energy =                       -384.0725995387703051
    Molecular point group: c1
  Basis Set: CC-PVTZ
  Basis Set:
  Basis Set: CC-PVTZ
  Basis Set:
  @DF-RHF Final Energy:  -384.06823081424676
    Total Energy =                       -384.0682308142471584
  Basis Set: CC-PVTZ
  Basis Set:
  Basis Set: CC-PVTZ
  Basis Set:
  @DF-RHF Final Energy:  -384.07616350542901
    Total Energy =                       -384.0761635054292356
  Basis Set: CC-PVTZ
  Basis Set:
  Basis Set: CC-PVTZ
  Basis Set:
  @DF-RHF Final Energy:  -384.07654543936610
    Total Energy =                       -384.0765454393663276
  Basis Set: CC-PVTZ
  Basis Set:
  Basis Set: CC-PVTZ
  Basis Set:
  @DF-RHF Final Energy:  -384.07569600407857
    Total Energy =                       -384.0756960040785088
  Basis Set: CC-PVTZ
  Basis Set:
  Basis Set: CC-PVTZ
  Basis Set:
  @DF-RHF Final Energy:  -384.07655909706244
    Total Energy =                       -384.0765590970626135
  Basis Set: CC-PVTZ
  Basis Set:
  Basis Set: CC-PVTZ
  Basis Set:
  @DF-RHF Final Energy:  -384.07660919654484
    Total Energy =                       -384.0766091965447231
  Basis Set: CC-PVTZ
  Basis Set:
  Charge       = 0
  Multiplicity = 1
  Basis Set: CC-PVTZ
  Basis Set:

    Orbital Energies (a.u.)
    -----------------------

    Doubly Occupied:

       1A    -20.596143     2A    -20.534103     3A    -11.364564
       4A    -11.278396     5A    -11.233710     6A    -11.218429
       7A    -11.217156     8A    -11.211743     9A     -1.472121
      10A     -1.365722    11A     -1.087709    12A     -1.022889
      13A     -0.968595    14A     -0.899202    15A     -0.799511
      16A     -0.763292    17A     -0.703765    18A     -0.686087
      19A     -0.675254    20A     -0.640007    21A     -0.607941
      22A     -0.592582    23A     -0.569065    24A     -0.549610
      25A     -0.541154    26A     -0.523951    27A     -0.513613
      28A     -0.474668    29A     -0.472906    30A     -0.463453
      31A     -0.454635    32A     -0.441153

  @DF-RHF Final Energy:  -384.07660955951837

   => Energetics <=

    Nuclear Repulsion Energy =            385.8834752516947901
    One-Electron Energy =               -1288.0339119625209605
    Two-Electron Energy =                 518.0738271513077962
    DFT Exchange-Correlation Energy =       0.0000000000000000
    Empirical Dispersion Energy =           0.0000000000000000
    PCM Polarization Energy =               0.0000000000000000
    EFP Energy =                            0.0000000000000000
    Total Energy =                       -384.0766095595183742
    Molecular point group: c1
  Basis Set: CC-PVTZ
  Basis Set:

  -Total Gradient:
     Atom            X                  Y                   Z
    ------   -----------------  -----------------  -----------------
       1       -0.000019394750     0.000060590197    -0.000024520394
       2       -0.000016871937    -0.000059503227     0.000007926363
       3        0.000004930498    -0.000010665065    -0.000001928075
       4        0.000048065813    -0.000036896426     0.000039451408
       5       -0.004420311670     0.004912940294     0.001341134629
       6       -0.000000458920    -0.000001604936    -0.000000190015
       7       -0.000006894943     0.000002463658     0.000009083832
       8       -0.002899478913     0.003693728393    -0.004689260244
       9        0.004133740783    -0.004718170243    -0.000381829570
      10       -0.000005788971    -0.000004455617     0.000002332639
      11        0.000000406203     0.000001543752     0.000010568311
      12        0.003167525699    -0.003919430203     0.003716118665
      13        0.000011293592     0.000001228344     0.000001611553
      14       -0.000010560532    -0.000005451793     0.000008704915
      15        0.000010391197     0.000011811472    -0.000002633203
      16       -0.000015888400    -0.000001234417    -0.000005973640
      17       -0.000001052736     0.000045142221    -0.000032587417
      18       -0.000000249415    -0.000006445868    -0.000010138720
      19        0.000030220566     0.000025701338     0.000000383220
      20       -0.000009623162     0.000008708127     0.000011745743

  **** Optimization is complete! (in 8 steps) ****
    Final optimized geometry and variables:
    Molecular point group: c1

    Geometry (in Angstrom), charge = 0, multiplicity = 1:

    O            1.803702411014     0.477836367943     0.393910041666
    C            0.765217637315     0.724976410972    -0.117229522372
    C           -0.435782370112    -0.185966473400    -0.154126784592
    O            0.518484049476     1.866756344572    -0.739028706999
    C           -0.201949592484    -1.514410783303     0.550051523163
    H           -1.261954826740     0.365453045594     0.278088836830
    H           -0.691058032195    -0.331580984415    -1.198722540562
    C           -1.362725156347    -2.525110902044     0.471550462442
    H            0.078922325939    -1.350804912817     1.583403310279
    H            0.675676769399    -1.975789191708     0.112570142230
    C           -2.775592841900    -1.950975195334     0.437564943363
    H           -1.203429143010    -3.194692336025    -0.367815977434
    H           -1.283529968822    -3.169914652070     1.341533140515
    H           -2.960848784757    -1.368658832757    -0.457186627685
    H           -3.506545697324    -2.750581165476     0.461635761953
    H           -2.963133589578    -1.311573518132     1.294093195019
    C            1.560333636508     2.820603401513    -0.782191156072
    H            1.847481395584     3.117121561474     0.215725282713
    H            1.167795801611     3.666325892945    -1.323107881423
    H            2.423507508686     2.419786933292    -1.292574468779

  Mulliken Charges: (a.u.)
   Center  Symbol    Alpha    Beta     Spin     Total
       1     O     4.19643  4.19643  0.00000 -0.39286
       2     C     2.81031  2.81031  0.00000  0.37937
       3     C     3.09976  3.09976  0.00000 -0.19952
       4     O     4.14659  4.14659  0.00000 -0.29319
       5     C     3.09078  3.09078  0.00000 -0.18156
       6     H     0.43734  0.43734  0.00000  0.12532
       7     H     0.43874  0.43874  0.00000  0.12251
       8     C     3.09081  3.09081  0.00000 -0.18163
       9     H     0.44432  0.44432  0.00000  0.11136
      10     H     0.44423  0.44423  0.00000  0.11153
      11     C     3.15843  3.15843  0.00000 -0.31686
      12     H     0.45096  0.45096  0.00000  0.09808
      13     H     0.44989  0.44989  0.00000  0.10022
      14     H     0.45309  0.45309  0.00000  0.09383
      15     H     0.44355  0.44355  0.00000  0.11290
      16     H     0.45276  0.45276  0.00000  0.09447
      17     C     3.03810  3.03810  0.00000 -0.07621
      18     H     0.45438  0.45438  0.00000  0.09125
      19     H     0.44521  0.44521  0.00000  0.10959
      20     H     0.45431  0.45431  0.00000  0.09139

   Total alpha = 32.00000, Total beta = 32.00000, Total charge = -0.00000

*** Psi4 exiting successfully. Buy a developer a beer!
