  ==> Input File <==

--------------------------------------------------------------------------
set {
	reference rhf
	basis cc-pvtz
}

set_num_threads( 4 )
memory 2 gb

molecule MOL {
0 1

H	 -3.322090	 -2.575747	 0.778630
O	 -2.968324	 -1.893282	 0.238920
C	 -1.712269	 -1.497315	 0.722605
C	 -1.175688	 -0.398187	 -0.171891
H	 -1.794965	 -1.135452	 1.745342
H	 -1.023600	 -2.339654	 0.728036
C	 0.196029	 0.106276	 0.266738
H	 -1.889179	 0.419813	 -0.176937
H	 -1.127082	 -0.775291	 -1.188428
C	 1.330220	 -0.826136	 -0.155230
H	 0.359542	 1.097229	 -0.145561
H	 0.212134	 0.218135	 1.348778
C	 2.719700	 -0.407669	 0.328325
H	 1.339388	 -0.911200	 -1.239363
H	 1.119001	 -1.821953	 0.224128
C	 3.241564	 0.893452	 -0.276737
H	 3.418299	 -1.204729	 0.093035
H	 2.711776	 -0.323368	 1.411960
H	 3.254204	 0.841071	 -1.360784
H	 2.634460	 1.745075	 0.005842
H	 4.254264	 1.092401	 0.054971

	symmetry c1
}
set optking {
	frozen_dihedral = ("
		8 4 7 10
	")
}

ee = optimize('scf')
oeprop('DIPOLE', 'QUADRUPOLE', 'MULLIKEN_CHARGES')
f=open( 'psi4out.xyz', 'w' )
f.write( "21  " )
f.write( str(ee) + "\n" )
f.write( MOL.save_string_xyz() )
f.close()
--------------------------------------------------------------------------

    Molecular point group: c1
  Charge       = 0
  Multiplicity = 1
  Basis Set: CC-PVTZ
  Basis Set:
  @DF-RHF Final Energy:  -310.33045782738418
    Total Energy =                       -310.3304578273844641
    Molecular point group: c1
  Basis Set: CC-PVTZ
  Basis Set:
  Basis Set: CC-PVTZ
  Basis Set:
  @DF-RHF Final Energy:  -310.33073688835395
    Total Energy =                       -310.3307368883539539
  Basis Set: CC-PVTZ
  Basis Set:
  Basis Set: CC-PVTZ
  Basis Set:
  @DF-RHF Final Energy:  -310.33077204409739
    Total Energy =                       -310.3307720440971025
  Basis Set: CC-PVTZ
  Basis Set:
  Basis Set: CC-PVTZ
  Basis Set:
  @DF-RHF Final Energy:  -310.33076809215476
    Total Energy =                       -310.3307680921548126
  Basis Set: CC-PVTZ
  Basis Set:
  Charge       = 0
  Multiplicity = 1
  Basis Set: CC-PVTZ
  Basis Set:

    Orbital Energies (a.u.)
    -----------------------

    Doubly Occupied:

       1A    -20.545229     2A    -11.264621     3A    -11.213841
       4A    -11.213285     5A    -11.211880     6A    -11.209114
       7A    -11.206181     8A     -1.362999     9A     -1.087180
      10A     -1.033190    11A     -0.953026    12A     -0.882673
      13A     -0.810603    14A     -0.774525    15A     -0.698295
      16A     -0.649687    17A     -0.633425    18A     -0.609822
      19A     -0.586454    20A     -0.568046    21A     -0.541549
      22A     -0.521005    23A     -0.514402    24A     -0.492442
      25A     -0.477695    26A     -0.460515    27A     -0.452571
      28A     -0.448502    29A     -0.432569

  @DF-RHF Final Energy:  -310.33077582417047

   => Energetics <=

    Nuclear Repulsion Energy =            315.5994065033363540
    One-Electron Energy =               -1046.1497093123323339
    Two-Electron Energy =                 420.2195269848253361
    DFT Exchange-Correlation Energy =       0.0000000000000000
    Empirical Dispersion Energy =           0.0000000000000000
    PCM Polarization Energy =               0.0000000000000000
    EFP Energy =                            0.0000000000000000
    Total Energy =                       -310.3307758241706438
    Molecular point group: c1
  Basis Set: CC-PVTZ
  Basis Set:

  -Total Gradient:
     Atom            X                  Y                   Z
    ------   -----------------  -----------------  -----------------
       1       -0.000031278379    -0.000011058784    -0.000004552761
       2        0.000005948793    -0.000037321767     0.000016122740
       3       -0.000023881487     0.000031106797    -0.000005728383
       4       -0.000252182235    -0.000108790290     0.001121722150
       5        0.000007309915    -0.000002658675     0.000011285785
       6       -0.000006858254     0.000014857555    -0.000008638020
       7       -0.000050713488    -0.000553732355     0.000787402285
       8        0.000283817581     0.000223429255    -0.001145501023
       9        0.000013467261     0.000001790331    -0.000001446243
      10        0.000058061475     0.000440112471    -0.000753520541
      11        0.000008304104     0.000011826719    -0.000009404746
      12       -0.000009322179    -0.000013698783    -0.000001383753
      13        0.000002271510     0.000000223955    -0.000010333121
      14       -0.000008997935     0.000005040755     0.000007927648
      15       -0.000004829692    -0.000003763547    -0.000002885926
      16        0.000003326956     0.000007699575     0.000005180757
      17        0.000012862234    -0.000005161507     0.000005848223
      18       -0.000004907641     0.000003228126    -0.000012588845
      19       -0.000000862131    -0.000002078294    -0.000001377027
      20        0.000000297756    -0.000000971457     0.000003734925
      21       -0.000001834174    -0.000000080083    -0.000001864124

  **** Optimization is complete! (in 5 steps) ****
    Final optimized geometry and variables:
    Molecular point group: c1

    Geometry (in Angstrom), charge = 0, multiplicity = 1:

    H           -3.547127613604    -1.945966595775     0.616409408555
    O           -3.175220429182    -1.264619765296     0.087659096082
    C           -1.913958151652    -0.901276858022     0.584446730339
    C           -1.350398478158     0.192486061319    -0.302456541608
    H           -1.998213807496    -0.536101397826     1.605966373019
    H           -1.252169778062    -1.762813676957     0.597933141970
    C            0.037192245554     0.684398916528     0.118904327799
    H           -2.050384262078     1.020601475398    -0.299362409486
    H           -1.319236491259    -0.173712182916    -1.323912579064
    C            1.182229488608    -0.239624589794    -0.299271199062
    H            0.195114569789     1.663609351075    -0.317571148234
    H            0.061948251508     0.828906074271     1.197084462203
    C            2.566116401416     0.202034122629     0.181272030944
    H            1.189846240978    -0.322325949853    -1.383471449249
    H            0.996782716133    -1.240402818271     0.077968981568
    C            3.063842477669     1.514038393529    -0.420596878023
    H            3.277972420547    -0.581810372939    -0.058814560881
    H            2.560185062768     0.282710870360     1.265198021334
    H            3.069976951456     1.467230616155    -1.504927439905
    H            2.446377276829     2.355072779637    -0.129534977901
    H            4.075714476583     1.726052633732    -0.094590768802

  Mulliken Charges: (a.u.)
   Center  Symbol    Alpha    Beta     Spin     Total
       1     H     0.39732  0.39732  0.00000  0.20536
       2     O     4.19483  4.19483  0.00000 -0.38966
       3     C     2.95954  2.95954  0.00000  0.08092
       4     C     3.09182  3.09182  0.00000 -0.18364
       5     H     0.47469  0.47469  0.00000  0.05063
       6     H     0.47453  0.47453  0.00000  0.05095
       7     C     3.11315  3.11315  0.00000 -0.22629
       8     H     0.44546  0.44546  0.00000  0.10908
       9     H     0.45190  0.45190  0.00000  0.09619
      10     C     3.09485  3.09485  0.00000 -0.18970
      11     H     0.44394  0.44394  0.00000  0.11212
      12     H     0.45517  0.45517  0.00000  0.08965
      13     C     3.08922  3.08922  0.00000 -0.17843
      14     H     0.45276  0.45276  0.00000  0.09449
      15     H     0.44986  0.44986  0.00000  0.10029
      16     C     3.15265  3.15265  0.00000 -0.30531
      17     H     0.44871  0.44871  0.00000  0.10258
      18     H     0.45496  0.45496  0.00000  0.09009
      19     H     0.45450  0.45450  0.00000  0.09100
      20     H     0.45362  0.45362  0.00000  0.09276
      21     H     0.44654  0.44654  0.00000  0.10693

   Total alpha = 29.00000, Total beta = 29.00000, Total charge =  0.00000
