                              Psi4 1.0.54 Driver

  ==> Input File <==

--------------------------------------------------------------------------
set {
	reference rhf
	basis cc-pvtz
}

set_num_threads( 4 )
memory 2 gb

molecule MOL {
0 1

H	 -0.493415	 -1.744877	 0.812864
C	 -0.214530	 -0.732795	 1.083180
N	 0.526300	 -0.128137	 0.000000
H	 0.407696	 -0.788761	 1.967343
H	 -1.129320	 -0.195665	 1.342451
C	 -0.247113	 0.037112	 -1.209233
H	 0.895961	 0.751013	 0.290008
H	 -0.996493	 -0.743733	 -1.271440
H	 0.397975	 -0.057351	 -2.073512
H	 -0.763794	 0.997171	 -1.271673

	symmetry c1
}
set optking {
	frozen_dihedral = ("
		2 3 6 8
	")
}

ee,wfn = optimize('scf', return_wfn=True)
oeprop( wfn, 'DIPOLE', 'QUADRUPOLE', 'MULLIKEN_CHARGES')
f=open( 'psi4out.xyz', 'w' )
f.write( "10  " )
f.write( str(ee) + "\n" )
f.write( MOL.save_string_xyz() )
f.close()
--------------------------------------------------------------------------

    Molecular point group: c1
  Charge       = 0
  Multiplicity = 1
  Basis Set: CC-PVTZ
  Basis Set:
  @DF-RHF Final Energy:  -134.28986304423580
    Total Energy =                       -134.2898630442357444
    Molecular point group: c1
  Basis Set: CC-PVTZ
  Basis Set:
  Basis Set: CC-PVTZ
  Basis Set:
  @DF-RHF Final Energy:  -134.29013768082464
    Total Energy =                       -134.2901376808246141
  Basis Set: CC-PVTZ
  Basis Set:
  Basis Set: CC-PVTZ
  Basis Set:
  @DF-RHF Final Energy:  -134.29018724803461
    Total Energy =                       -134.2901872480346697
  Basis Set: CC-PVTZ
  Basis Set:
  Basis Set: CC-PVTZ
  Basis Set:
  @DF-RHF Final Energy:  -134.29019056958788
    Total Energy =                       -134.2901905695878781
  Basis Set: CC-PVTZ
  Basis Set:
  Charge       = 0
  Multiplicity = 1
  Basis Set: CC-PVTZ
  Basis Set:

    Orbital Energies (a.u.)
    -----------------------

    Doubly Occupied:

       1A    -15.529539     2A    -11.234462     3A    -11.233940
       4A     -1.197492     5A     -0.947975     6A     -0.855505
       7A     -0.661932     8A     -0.609591     9A     -0.590731
      10A     -0.541312    11A     -0.513019    12A     -0.508439
      13A     -0.358199

  @DF-RHF Final Energy:  -134.29019087680697

   => Energetics <=

    Nuclear Repulsion Energy =             84.5925820540922189
    One-Electron Energy =                -348.2012763017381189
    Two-Electron Energy =                 129.3185033708389540
    DFT Exchange-Correlation Energy =       0.0000000000000000
    Empirical Dispersion Energy =           0.0000000000000000
    PCM Polarization Energy =               0.0000000000000000
    EFP Energy =                            0.0000000000000000
    Total Energy =                       -134.2901908768069177
    Molecular point group: c1
  Basis Set: CC-PVTZ
  Basis Set:

  -Total Gradient:
     Atom            X                  Y                   Z
    ------   -----------------  -----------------  -----------------
       1       -0.000003719525    -0.000004501493     0.000009270664
       2        0.000833160481    -0.002680214409    -0.000888232320
       3       -0.001799376412     0.004343380672     0.001730964763
       4       -0.000005563923     0.000002383145    -0.000005825420
       5        0.000008512270     0.000000839451     0.000002880733
       6        0.003442185724    -0.003894243845    -0.002708675761
       7        0.000010026410     0.000014169550    -0.000004017509
       8       -0.002466612368     0.002196624365     0.001818740520
       9       -0.000007037854     0.000004710612     0.000031928267
      10       -0.000011574803     0.000016851954     0.000012966063

  **** Optimization is complete! (in 5 steps) ****
    Final optimized geometry and variables:
    Molecular point group: c1

    Geometry (in Angstrom), charge = 0, multiplicity = 1:

    H           -0.493871118222    -1.480321452186     0.870149533712
    C           -0.219887469591    -0.465057653679     1.131021672827
    N            0.513509075538     0.134794179934     0.041198788561
    H            0.410526896341    -0.511955637340     2.010156923982
    H           -1.134705708617     0.067479363149     1.400862127113
    C           -0.240537114486     0.301043595891    -1.184455866464
    H            0.927611716731     0.994982401747     0.322705795912
    H           -0.989480444353    -0.477625966364    -1.258634162134
    H            0.407888961611     0.240206602159    -2.049675720712
    H           -0.780648620604     1.247244426503    -1.231763107283

  Mulliken Charges: (a.u.)
   Center  Symbol    Alpha    Beta     Spin     Total
       1     H     0.45686  0.45686  0.00000  0.08628
       2     C     3.08040  3.08040  0.00000 -0.16080
       3     N     3.63411  3.63411  0.00000 -0.26821
       4     H     0.45295  0.45295  0.00000  0.09410
       5     H     0.47554  0.47554  0.00000  0.04893
       6     C     3.08072  3.08072  0.00000 -0.16144
       7     H     0.43901  0.43901  0.00000  0.12199
       8     H     0.45922  0.45922  0.00000  0.08155
       9     H     0.45297  0.45297  0.00000  0.09406
      10     H     0.46823  0.46823  0.00000  0.06354

   Total alpha = 13.00000, Total beta = 13.00000, Total charge =  0.00000

*** Psi4 exiting successfully. Buy a developer a beer!
