  ==> Input File <==

--------------------------------------------------------------------------
set {
	reference rhf
	basis 6-31G*
}

set_num_threads( 4 )
memory 2 gb

molecule MOL {
0 1

H	 -2.399516	 -0.691956	 0.935818
O	 -2.347518	 -0.290803	 0.079804
C	 -1.184022	 0.487508	 -0.006784
C	 0.062599	 -0.378592	 0.031606
H	 -1.176523	 1.099369	 -0.904519
H	 -1.187323	 1.153111	 0.844927
O	 1.171513	 0.459272	 -0.058250
H	 0.050699	 -1.089204	 -0.797170
H	 0.078739	 -0.954914	 0.954740
C	 2.397842	 -0.198080	 -0.002151
H	 2.508049	 -0.905315	 -0.822092
H	 3.173794	 0.550865	 -0.078850
H	 2.517602	 -0.735921	 0.936026

	symmetry c1
}
set optking {
	frozen_dihedral = ("
		1 2 3 5
	")
}

ee = optimize('scf')
oeprop('DIPOLE', 'QUADRUPOLE', 'MULLIKEN_CHARGES')
f=open( 'psi4out.xyz', 'w' )
f.write( "13  " )
f.write( str(ee) + "\n" )
f.write( MOL.save_string_xyz() )
f.close()
--------------------------------------------------------------------------

    Molecular point group: c1
  Charge       = 0
  Multiplicity = 1
  Basis Set: 6-31G*
  Basis Set:
  @DF-RHF Final Energy:  -267.94869075750125
    Total Energy =                       -267.9486907575013106
    Molecular point group: c1
  Basis Set: 6-31G*
  Basis Set:
  Basis Set: 6-31G*
  Basis Set:
  @DF-RHF Final Energy:  -267.95020572840338
    Total Energy =                       -267.9502057284034322
  Basis Set: 6-31G*
  Basis Set:
  Basis Set: 6-31G*
  Basis Set:
  @DF-RHF Final Energy:  -267.95060179885883
    Total Energy =                       -267.9506017988587701
  Basis Set: 6-31G*
  Basis Set:
  Basis Set: 6-31G*
  Basis Set:
  @DF-RHF Final Energy:  -267.95061587991552
    Total Energy =                       -267.9506158799152900
  Basis Set: 6-31G*
  Basis Set:
  Charge       = 0
  Multiplicity = 1
  Basis Set: 6-31G*
  Basis Set:

    Orbital Energies (a.u.)
    -----------------------

    Doubly Occupied:

       1A    -20.562930     2A    -20.560288     3A    -11.271598
       4A    -11.270671     5A    -11.269032     6A     -1.389282
       7A     -1.365352     8A     -1.018814     9A     -0.913610
      10A     -0.842755    11A     -0.708992    12A     -0.674401
      13A     -0.661761    14A     -0.636785    15A     -0.595805
      16A     -0.571106    17A     -0.545436    18A     -0.490323
      19A     -0.481264    20A     -0.438691    21A     -0.422691

  @DF-RHF Final Energy:  -267.95061722011383

   => Energetics <=

    Nuclear Repulsion Energy =            190.2491691544423702
    One-Electron Energy =                -743.0163933547614761
    Two-Electron Energy =                 284.8166069802055063
    DFT Exchange-Correlation Energy =       0.0000000000000000
    Empirical Dispersion Energy =           0.0000000000000000
    PCM Polarization Energy =               0.0000000000000000
    EFP Energy =                            0.0000000000000000
    Total Energy =                       -267.9506172201135996
    Molecular point group: c1
  Basis Set: 6-31G*
  Basis Set:

  -Total Gradient:
     Atom            X                  Y                   Z
    ------   -----------------  -----------------  -----------------
       1        0.000238763840    -0.000317086235    -0.000133838173
       2       -0.000266863062     0.000330852569     0.000114527196
       3       -0.000193438581     0.000242225732     0.000190538377
       4       -0.000046673347     0.000032706650     0.000110494351
       5        0.000188105401    -0.000261596126    -0.000171195464
       6        0.000011592030    -0.000025882888    -0.000016387883
       7        0.000038133122    -0.000016255302    -0.000032805785
       8        0.000022806167     0.000008953604    -0.000010963692
       9       -0.000015514863    -0.000002130684    -0.000037463484
      10        0.000013252280     0.000014109795    -0.000010336035
      11        0.000008135336    -0.000000625686     0.000000159547
      12        0.000007333525    -0.000004335257    -0.000003832286
      13       -0.000005631851    -0.000000936171     0.000001103331

  **** Optimization is complete! (in 5 steps) ****
    Final optimized geometry and variables:
    Molecular point group: c1

    Geometry (in Angstrom), charge = 0, multiplicity = 1:

    H           -2.443387759620    -0.669308924528     0.893848029154
    O           -2.349299752466    -0.297461028386     0.028056036779
    C           -1.185916056029     0.483686639220    -0.025735863873
    C            0.063159606203    -0.379021443865     0.018767430130
    H           -1.215306606057     1.023930541761    -0.961418405178
    H           -1.154909656090     1.212971551454     0.778888470340
    O            1.170837581066     0.463632944186    -0.037583372880
    H            0.056131384318    -1.075060693024    -0.817884973808
    H            0.078252310698    -0.970699528384     0.936349275895
    C            2.397896115031    -0.195123222130    -0.039770082039
    H            2.492998791807    -0.854850665987    -0.899720906641
    H            3.172594633634     0.557549209651    -0.087265071972
    H            2.533807208980    -0.784732154806     0.864916820298

  Mulliken Charges: (a.u.)
   Center  Symbol    Alpha    Beta     Spin     Total
       1     H     0.28163  0.28163  0.00000  0.43674
       2     O     4.37073  4.37073  0.00000 -0.74146
       3     C     3.00361  3.00361  0.00000 -0.00722
       4     C     2.99761  2.99761  0.00000  0.00478
       5     H     0.40828  0.40828  0.00000  0.18344
       6     H     0.42217  0.42217  0.00000  0.15566
       7     O     4.30733  4.30733  0.00000 -0.61465
       8     H     0.42324  0.42324  0.00000  0.15352
       9     H     0.43790  0.43790  0.00000  0.12421
      10     C     3.08009  3.08009  0.00000 -0.16018
      11     H     0.42764  0.42764  0.00000  0.14473
      12     H     0.41057  0.41057  0.00000  0.17886
      13     H     0.42922  0.42922  0.00000  0.14157

   Total alpha = 21.00000, Total beta = 21.00000, Total charge =  0.00000
