  ==> Input File <==

--------------------------------------------------------------------------
set {
	reference rhf
	basis 6-31G*
}

set_num_threads( 4 )
memory 2 gb

molecule MOL {
0 1

H	 -3.864884	 0.397944	 1.385239
O	 -3.152215	 -0.164120	 1.116743
C	 -2.306886	 0.532354	 0.237577
C	 -1.177863	 -0.397191	 -0.171080
H	 -2.856990	 0.860657	 -0.643280
H	 -1.901950	 1.421416	 0.719174
C	 0.198102	 0.111031	 0.262842
H	 -1.208843	 -0.518759	 -1.250427
H	 -1.368741	 -1.376554	 0.258909
C	 1.331804	 -0.827780	 -0.158768
H	 0.361943	 1.100838	 -0.156218
H	 0.217265	 0.229072	 1.345532
C	 2.723619	 -0.410569	 0.329459
H	 1.342964	 -0.912588	 -1.244120
H	 1.116806	 -1.824343	 0.220779
C	 3.243875	 0.895854	 -0.272975
H	 3.424222	 -1.207124	 0.091250
H	 2.714788	 -0.329854	 1.414619
H	 3.251977	 0.848779	 -1.358681
H	 2.637085	 1.747371	 0.016682
H	 4.259473	 1.094070	 0.055697

	symmetry c1
}
set optking {
	frozen_dihedral = ("
		2 3 4 8
	")
}

ee = optimize('scf')
oeprop('DIPOLE', 'QUADRUPOLE', 'MULLIKEN_CHARGES')
f=open( 'psi4out.xyz', 'w' )
f.write( "21  " )
f.write( str(ee) + "\n" )
f.write( MOL.save_string_xyz() )
f.close()
--------------------------------------------------------------------------

    Molecular point group: c1
  Charge       = 0
  Multiplicity = 1
  Basis Set: 6-31G*
  Basis Set:
  @DF-RHF Final Energy:  -310.20654776634427
    Total Energy =                       -310.2065477663440447
    Molecular point group: c1
  Basis Set: 6-31G*
  Basis Set:
  Basis Set: 6-31G*
  Basis Set:
  @DF-RHF Final Energy:  -310.20689287090005
    Total Energy =                       -310.2068928709003330
  Basis Set: 6-31G*
  Basis Set:
  Basis Set: 6-31G*
  Basis Set:
  @DF-RHF Final Energy:  -310.20703239432845
    Total Energy =                       -310.2070323943285075
  Basis Set: 6-31G*
  Basis Set:
  Basis Set: 6-31G*
  Basis Set:
  @DF-RHF Final Energy:  -310.20701939590612
    Total Energy =                       -310.2070193959064000
  Basis Set: 6-31G*
  Basis Set:
  Basis Set: 6-31G*
  Basis Set:
  @DF-RHF Final Energy:  -310.20703401474680
    Total Energy =                       -310.2070340147464549
  Basis Set: 6-31G*
  Basis Set:
  Charge       = 0
  Multiplicity = 1
  Basis Set: 6-31G*
  Basis Set:

    Orbital Energies (a.u.)
    -----------------------

    Doubly Occupied:

       1A    -20.551142     2A    -11.267325     3A    -11.213908
       4A    -11.213188     5A    -11.211784     6A    -11.210577
       7A    -11.207339     8A     -1.357141     9A     -1.083862
      10A     -1.030277    11A     -0.952696    12A     -0.875694
      13A     -0.807018    14A     -0.777514    15A     -0.700348
      16A     -0.640457    17A     -0.630658    18A     -0.601672
      19A     -0.584475    20A     -0.570416    21A     -0.534773
      22A     -0.523016    23A     -0.507238    24A     -0.484898
      25A     -0.481996    26A     -0.459662    27A     -0.454238
      28A     -0.446743    29A     -0.424396

  @DF-RHF Final Energy:  -310.20703464771321

   => Energetics <=

    Nuclear Repulsion Energy =            313.1175637230570032
    One-Electron Energy =               -1041.0402953395891927
    Two-Electron Energy =                 417.7156969688188610
    DFT Exchange-Correlation Energy =       0.0000000000000000
    Empirical Dispersion Energy =           0.0000000000000000
    PCM Polarization Energy =               0.0000000000000000
    EFP Energy =                            0.0000000000000000
    Total Energy =                       -310.2070346477133853
    Molecular point group: c1
  Basis Set: 6-31G*
  Basis Set:

  -Total Gradient:
     Atom            X                  Y                   Z
    ------   -----------------  -----------------  -----------------
       1       -0.000121078460    -0.000029260167     0.000099771175
       2       -0.000279705102     0.000001559378    -0.000537180166
       3        0.000567921996    -0.000014410950     0.000415290601
       4        0.000491948720     0.000664352098    -0.000151409446
       5       -0.000055584742    -0.000045587007     0.000037424560
       6       -0.000055362694    -0.000021104950     0.000048995968
       7       -0.000100454265     0.000022141123    -0.000011184566
       8       -0.000502451689    -0.000526171420     0.000096454755
       9        0.000008192488    -0.000033062484    -0.000002090240
      10       -0.000024406189     0.000008986861    -0.000015250401
      11       -0.000042161802    -0.000013039023     0.000016738778
      12        0.000011433431    -0.000014204050     0.000000333198
      13        0.000028780851    -0.000010345258    -0.000002579188
      14       -0.000005493014     0.000008518679     0.000010104962
      15        0.000024879790     0.000004751418    -0.000016487337
      16        0.000013148943    -0.000004158854     0.000000730240
      17        0.000025467601    -0.000000025351     0.000018639061
      18       -0.000008021452     0.000014781884    -0.000004263997
      19       -0.000006852612     0.000001904858    -0.000002482942
      20        0.000028234463    -0.000007480418     0.000004158082
      21        0.000001563745    -0.000008146367    -0.000005713098

  **** Optimization is complete! (in 6 steps) ****
    Final optimized geometry and variables:
    Molecular point group: c1

    Geometry (in Angstrom), charge = 0, multiplicity = 1:

    H           -3.934178334902     0.401629126652     1.194508975678
    O           -3.220855238504    -0.155636654075     0.916604533771
    C           -2.386425388295     0.553944665722     0.032956676525
    C           -1.231068764610    -0.360842525105    -0.394149413433
    H           -2.956340450184     0.881152032898    -0.833726030210
    H           -2.001529414434     1.447780019384     0.520333329963
    C            0.146527553681     0.141686842644     0.043632932597
    H           -1.243152031456    -0.494325786491    -1.472611237249
    H           -1.418698126761    -1.337995368983     0.037740816540
    C            1.278239880040    -0.801968528324    -0.369420031486
    H            0.315287076429     1.130882362528    -0.375530437924
    H            0.152294241712     0.260711243400     1.125858362942
    C            2.669871850482    -0.389249170637     0.123913496766
    H            1.295161364514    -0.891384268766    -1.454735673849
    H            1.057325385231    -1.796300786905     0.012759577056
    C            3.201351290257     0.909666450279    -0.484968119376
    H            3.367543117931    -1.191395607460    -0.104036313098
    H            2.654683500349    -0.300341446067     1.208243026897
    H            3.214652107161     0.854992961273    -1.570333795928
    H            2.598474970116     1.766912906775    -0.204247715100
    H            4.216559841362     1.103856669535    -0.152635249338

  Mulliken Charges: (a.u.)
   Center  Symbol    Alpha    Beta     Spin     Total
       1     H     0.28211  0.28211  0.00000  0.43579
       2     O     4.37131  4.37131  0.00000 -0.74263
       3     C     2.99579  2.99579  0.00000  0.00841
       4     C     3.16551  3.16551  0.00000 -0.33102
       5     H     0.43024  0.43024  0.00000  0.13953
       6     H     0.42950  0.42950  0.00000  0.14099
       7     C     3.16028  3.16028  0.00000 -0.32056
       8     H     0.42080  0.42080  0.00000  0.15840
       9     H     0.40316  0.40316  0.00000  0.19368
      10     C     3.15337  3.15337  0.00000 -0.30674
      11     H     0.42329  0.42329  0.00000  0.15343
      12     H     0.41970  0.41970  0.00000  0.16060
      13     C     3.15233  3.15233  0.00000 -0.30467
      14     H     0.42469  0.42469  0.00000  0.15061
      15     H     0.42043  0.42043  0.00000  0.15915
      16     C     3.24104  3.24104  0.00000 -0.48208
      17     H     0.42101  0.42101  0.00000  0.15798
      18     H     0.42287  0.42287  0.00000  0.15426
      19     H     0.42257  0.42257  0.00000  0.15485
      20     H     0.42062  0.42062  0.00000  0.15876
      21     H     0.41938  0.41938  0.00000  0.16125

   Total alpha = 29.00000, Total beta = 29.00000, Total charge =  0.00000
