  ==> Input File <==

--------------------------------------------------------------------------
set {
	reference rhf
	basis 6-31G*
}

set_num_threads( 1 )
memory 2 gb

molecule MOL {
0 1

H	 4.382471	 -0.610569	 3.592402
C	 3.921769	 -1.234948	 2.833174
C	 2.479908	 -0.805547	 2.565165
H	 4.524169	 -1.159584	 1.932743
H	 3.968751	 -2.264317	 3.178126
C	 1.797736	 -1.670776	 1.503169
H	 2.468110	 0.232313	 2.248451
H	 1.910888	 -0.858411	 3.492049
C	 0.346925	 -1.276036	 1.226415
H	 2.359364	 -1.620128	 0.577074
H	 1.813612	 -2.709024	 1.826942
C	 0.186799	 0.042463	 0.484012
H	 -0.130221	 -2.037713	 0.611638
H	 -0.228696	 -1.239791	 2.148653
C	 -1.181045	 0.701995	 0.511084
O	 1.093643	 0.537160	 -0.115417
C	 -2.285934	 -0.139295	 -0.145128
H	 -1.083781	 1.654014	 0.003232
H	 -1.448089	 0.902151	 1.547091
C	 -3.651768	 0.085446	 0.506485
H	 -2.346596	 0.110469	 -1.202272
H	 -2.034737	 -1.195320	 -0.088721
C	 -4.759797	 -0.746382	 -0.137905
H	 -3.908762	 1.140117	 0.445781
H	 -3.588286	 -0.154158	 1.565709
H	 -4.868882	 -0.505166	 -1.191300
H	 -4.548009	 -1.809175	 -0.062213
H	 -5.715422	 -0.564821	 0.343442

	symmetry c1
}
set optking {
	frozen_dihedral = ("
		10 6 3 2,
		16 12 15 17
	")
}

ee = energy('scf')
oeprop('DIPOLE', 'QUADRUPOLE', 'MULLIKEN_CHARGES')
f=open( 'psi4out.xyz', 'w' )
f.write( "28  " )
f.write( str(ee) + "\n" )
f.write( MOL.save_string_xyz() )
f.close()
--------------------------------------------------------------------------

    Molecular point group: c1

    Geometry (in Angstrom), charge = 0, multiplicity = 1:

       Center              X                  Y                   Z               Mass
    ------------   -----------------  -----------------  -----------------  -----------------
           H          4.585041998090    -0.155275166745     2.667620855008     1.007825032070
           C          4.124339998090    -0.779654166745     1.908392855008    12.000000000000
           C          2.682478998090    -0.350253166745     1.640383855008    12.000000000000
           H          4.726739998090    -0.704290166745     1.007961855008     1.007825032070
           H          4.171321998090    -1.809023166745     2.253344855008     1.007825032070
           C          2.000306998090    -1.215482166745     0.578387855008    12.000000000000
           H          2.670680998090     0.687606833255     1.323669855008     1.007825032070
           H          2.113458998090    -0.403117166745     2.567267855008     1.007825032070
           C          0.549495998090    -0.820742166745     0.301633855008    12.000000000000
           H          2.561934998090    -1.164834166745    -0.347707144992     1.007825032070
           H          2.016182998090    -2.253730166745     0.902160855008     1.007825032070
           C          0.389369998090     0.497756833255    -0.440769144992    12.000000000000
           H          0.072349998090    -1.582419166745    -0.313143144992     1.007825032070
           H         -0.026125001910    -0.784497166745     1.223871855008     1.007825032070
           C         -0.978474001910     1.157288833255    -0.413697144992    12.000000000000
           O          1.296213998090     0.992453833255    -1.040198144992    15.994914619560
           C         -2.083363001910     0.315998833255    -1.069909144992    12.000000000000
           H         -0.881210001910     2.109307833255    -0.921549144992     1.007825032070
           H         -1.245518001910     1.357444833255     0.622309855008     1.007825032070
           C         -3.449197001910     0.540739833255    -0.418296144992    12.000000000000
           H         -2.144025001910     0.565762833255    -2.127053144992     1.007825032070
           H         -1.832166001910    -0.740026166745    -1.013502144992     1.007825032070
           C         -4.557226001910    -0.291088166745    -1.062686144992    12.000000000000
           H         -3.706191001910     1.595410833255    -0.479000144992     1.007825032070
           H         -3.385715001910     0.301135833255     0.640927855008     1.007825032070
           H         -4.666311001910    -0.049872166745    -2.116081144992     1.007825032070
           H         -4.345438001910    -1.353881166745    -0.986994144992     1.007825032070
           H         -5.512851001910    -0.109527166745    -0.581339144992     1.007825032070

  Charge       = 0
  Multiplicity = 1
  Basis Set: 6-31G*
  Basis Set:

    Orbital Energies (a.u.)
    -----------------------

    Doubly Occupied:

       1A    -20.548036     2A    -11.322125     3A    -11.231372
       4A    -11.230216     5A    -11.227903     6A    -11.226693
       7A    -11.216747     8A    -11.216521     9A    -11.212484
      10A    -11.205841    11A     -1.393160    12A     -1.095811
      13A     -1.077466    14A     -1.022489    15A     -0.990949
      16A     -0.907163    17A     -0.873954    18A     -0.810713
      19A     -0.799629    20A     -0.723034    21A     -0.665119
      22A     -0.657868    23A     -0.626942    24A     -0.618039
      25A     -0.610010    26A     -0.590139    27A     -0.576507
      28A     -0.573585    29A     -0.543577    30A     -0.536140
      31A     -0.520752    32A     -0.508828    33A     -0.497085
      34A     -0.484796    35A     -0.478362    36A     -0.475962
      37A     -0.470508    38A     -0.465232    39A     -0.454526
      40A     -0.392297

  @DF-RHF Final Energy:  -426.16538638387067

   => Energetics <=

    Nuclear Repulsion Energy =            533.2672383248406049
    One-Electron Energy =               -1634.7081556080574956
    Two-Electron Energy =                 675.2755308993466770
    DFT Exchange-Correlation Energy =       0.0000000000000000
    Empirical Dispersion Energy =           0.0000000000000000
    PCM Polarization Energy =               0.0000000000000000
    EFP Energy =                            0.0000000000000000
    Total Energy =                       -426.1653863838703273

  Mulliken Charges: (a.u.)
   Center  Symbol    Alpha    Beta     Spin     Total
       1     H     0.41931  0.41931  0.00000  0.16139
       2     C     3.24015  3.24015  0.00000 -0.48030
       3     C     3.15652  3.15652  0.00000 -0.31304
       4     H     0.41827  0.41827  0.00000  0.16346
       5     H     0.42361  0.42361  0.00000  0.15277
       6     C     3.14866  3.14866  0.00000 -0.29732
       7     H     0.41045  0.41045  0.00000  0.17911
       8     H     0.42769  0.42769  0.00000  0.14463
       9     C     3.21199  3.21199  0.00000 -0.42397
      10     H     0.40648  0.40648  0.00000  0.18704
      11     H     0.42195  0.42195  0.00000  0.15610
      12     C     2.73375  2.73375  0.00000  0.53250
      13     H     0.40305  0.40305  0.00000  0.19390
      14     H     0.41317  0.41317  0.00000  0.17367
      15     C     3.20276  3.20276  0.00000 -0.40553
      16     O     4.26606  4.26606  0.00000 -0.53213
      17     C     3.16337  3.16337  0.00000 -0.32674
      18     H     0.39838  0.39838  0.00000  0.20324
      19     H     0.41176  0.41176  0.00000  0.17648
      20     C     3.15370  3.15370  0.00000 -0.30741
      21     H     0.41110  0.41110  0.00000  0.17779
      22     H     0.41816  0.41816  0.00000  0.16368
      23     C     3.24061  3.24061  0.00000 -0.48122
      24     H     0.41907  0.41907  0.00000  0.16187
      25     H     0.42215  0.42215  0.00000  0.15570
      26     H     0.41964  0.41964  0.00000  0.16073
      27     H     0.42103  0.42103  0.00000  0.15794
      28     H     0.41717  0.41717  0.00000  0.16567

   Total alpha = 40.00000, Total beta = 40.00000, Total charge = -0.00000
