  ==> Input File <==

--------------------------------------------------------------------------
set {
	reference rhf
	basis 6-31G*
}

set_num_threads( 4 )
memory 2 gb

molecule MOL {
0 1

H	 -5.900015	 -3.240511	 -0.850293
O	 -6.208677	 -3.794877	 -0.148526
C	 -5.181917	 -4.665510	 0.253738
C	 -4.075962	 -3.968675	 1.038602
H	 -5.656809	 -5.412822	 0.876375
H	 -4.761396	 -5.182653	 -0.607949
C	 -3.305583	 -2.920717	 0.231653
H	 -4.516936	 -3.502183	 1.915696
H	 -3.384255	 -4.728971	 1.397570
C	 -2.167903	 -2.278368	 1.030334
H	 -3.994553	 -2.149967	 -0.102459
H	 -2.894764	 -3.384508	 -0.665268
C	 -1.309753	 -1.282496	 0.241564
H	 -2.581343	 -1.782106	 1.906484
H	 -1.520726	 -3.067741	 1.406835
C	 -2.037799	 -0.007733	 -0.193645
H	 -0.458178	 -1.002041	 0.857990
H	 -0.896916	 -1.779330	 -0.635111
C	 -3.489788	 0.042957	 0.286558
H	 -2.017067	 0.064384	 -1.280144
H	 -1.513726	 0.868678	 0.179924
C	 -4.216917	 1.317354	 -0.141063
H	 -4.025645	 -0.823308	 -0.095450
H	 -3.513059	 -0.038752	 1.371301
H	 -4.239342	 1.411634	 -1.223113
H	 -5.243387	 1.322503	 0.212445
H	 -3.726170	 2.201406	 0.256408

	symmetry c1
}
set optking {
	frozen_dihedral = ("
		10 13 16 20
	")
}

ee = optimize('scf')
oeprop('DIPOLE', 'QUADRUPOLE', 'MULLIKEN_CHARGES')
f=open( 'psi4out.xyz', 'w' )
f.write( "27  " )
f.write( str(ee) + "\n" )
f.write( MOL.save_string_xyz() )
f.close()
--------------------------------------------------------------------------

    Molecular point group: c1
  Charge       = 0
  Multiplicity = 1
  Basis Set: 6-31G*
  Basis Set:
  @DF-RHF Final Energy:  -388.24715262078053
    Total Energy =                       -388.2471526207808665
    Molecular point group: c1
  Basis Set: 6-31G*
  Basis Set:
  Basis Set: 6-31G*
  Basis Set:
  @DF-RHF Final Energy:  -388.26453756257962
    Total Energy =                       -388.2645375625797897
  Basis Set: 6-31G*
  Basis Set:
  Basis Set: 6-31G*
  Basis Set:
  @DF-RHF Final Energy:  -388.26851871717452
    Total Energy =                       -388.2685187171745156
  Basis Set: 6-31G*
  Basis Set:
  Basis Set: 6-31G*
  Basis Set:
  @DF-RHF Final Energy:  -388.26961164865179
    Total Energy =                       -388.2696116486521305
  Basis Set: 6-31G*
  Basis Set:
  @DF-RHF Final Energy:  -388.27007258870032
    Total Energy =                       -388.2700725887000317
  Basis Set: 6-31G*
  Basis Set:
  @DF-RHF Final Energy:  -388.27030556507390
    Total Energy =                       -388.2703055650738406
  Basis Set: 6-31G*
  Basis Set:
  Basis Set: 6-31G*
  Basis Set:
  @DF-RHF Final Energy:  -388.27032186715132
    Total Energy =                       -388.2703218671515515
  Basis Set: 6-31G*
  Basis Set:
  Basis Set: 6-31G*
  Basis Set:
  @DF-RHF Final Energy:  -388.27032441926190
    Total Energy =                       -388.2703244192625789
  Basis Set: 6-31G*
  Basis Set:
  Charge       = 0
  Multiplicity = 1
  Basis Set: 6-31G*
  Basis Set:

    Orbital Energies (a.u.)
    -----------------------

    Doubly Occupied:

       1A    -20.552285     2A    -11.266976     3A    -11.219201
       4A    -11.216807     5A    -11.216093     6A    -11.215803
       7A    -11.214943     8A    -11.214842     9A    -11.208874
      10A     -1.359014    11A     -1.092116    12A     -1.058656
      13A     -1.009444    14A     -0.948928    15A     -0.886928
      16A     -0.834290    17A     -0.798802    18A     -0.765103
      19A     -0.694011    20A     -0.646099    21A     -0.641443
      22A     -0.614493    23A     -0.600650    24A     -0.581567
      25A     -0.573936    26A     -0.571395    27A     -0.532659
      28A     -0.514132    29A     -0.511595    30A     -0.497411
      31A     -0.485853    32A     -0.484729    33A     -0.468007
      34A     -0.447510    35A     -0.446350    36A     -0.443612
      37A     -0.421413

  @DF-RHF Final Energy:  -388.27032489671871

   => Energetics <=

    Nuclear Repulsion Energy =            470.0985846164466579
    One-Electron Energy =               -1458.2258767042346790
    Two-Electron Energy =                 599.8569671910689749
    DFT Exchange-Correlation Energy =       0.0000000000000000
    Empirical Dispersion Energy =           0.0000000000000000
    PCM Polarization Energy =               0.0000000000000000
    EFP Energy =                            0.0000000000000000
    Total Energy =                       -388.2703248967189893
    Molecular point group: c1
  Basis Set: 6-31G*
  Basis Set:

  -Total Gradient:
     Atom            X                  Y                   Z
    ------   -----------------  -----------------  -----------------
       1        0.000006047809    -0.000004496175     0.000005125708
       2       -0.000017898447    -0.000008950615     0.000004835336
       3        0.000012007236     0.000006405732    -0.000012665454
       4       -0.000009488062    -0.000003226136     0.000004462725
       5       -0.000011653466     0.000003814556    -0.000005087527
       6       -0.000000450433    -0.000001632146     0.000003490721
       7        0.000004362868     0.000010511837     0.000004993971
       8        0.000003031460     0.000003600234     0.000001553566
       9       -0.000001746684     0.000002426842    -0.000000553542
      10        0.001190367662     0.001257648043     0.002564062271
      11       -0.000009621228    -0.000007205905     0.000008198348
      12        0.000016360753     0.000009965154     0.000008205102
      13       -0.000913983478    -0.001408471153    -0.003803634764
      14        0.000006301322    -0.000007360043    -0.000003009888
      15       -0.000009423855    -0.000029479653    -0.000004360090
      16       -0.003920362112    -0.001553653626     0.001276278377
      17        0.000005373133     0.000011549549    -0.000002359622
      18        0.000005824942     0.000002705035    -0.000002616843
      19       -0.000034109444    -0.000026409835     0.000030571259
      20        0.003677191713     0.001738958853    -0.000066677575
      21       -0.000016158054    -0.000008183932     0.000011961716
      22        0.000004833363     0.000002263924    -0.000011883262
      23        0.000007277346     0.000011423668    -0.000000637336
      24        0.000005431490     0.000002056181    -0.000013379719
      25       -0.000000241802    -0.000004077235    -0.000000747450
      26       -0.000000670302    -0.000004246531     0.000005088022
      27        0.000001396274     0.000004063383    -0.000001214051

  **** Optimization is complete! (in 9 steps) ****
    Final optimized geometry and variables:
    Molecular point group: c1

    Geometry (in Angstrom), charge = 0, multiplicity = 1:

    H           -2.099635133149    -1.831014936952    -1.381894981276
    O           -2.474569087148    -2.271578738481    -0.633239192812
    C           -1.471518383151    -2.980120227816     0.049450884697
    C           -0.517883675755    -2.075921187298     0.822497894577
    H           -1.990487990627    -3.636890633464     0.735727058473
    H           -0.913010785464    -3.610607096075    -0.641402570965
    C            0.295427400329    -1.128144188464    -0.061886370406
    H           -1.094646414478    -1.499256531301     1.540959742748
    H            0.159989398770    -2.707794859230     1.394293113651
    C            1.315355291150    -0.301775398404     0.729005323187
    H           -0.379259684666    -0.467034927002    -0.598071997172
    H            0.827136082177    -1.705342922009    -0.818278720357
    C            2.117579776556     0.699187222559    -0.118761338904
    H            0.820041325284     0.205944568759     1.550684539885
    H            2.019541574596    -0.992270467941     1.187792788368
    C            1.462638162869     2.066273744978    -0.475509901742
    H            3.038006088267     0.906689594287     0.419054920159
    H            2.426188909629     0.202188633783    -1.034561274528
    C            0.108196790620     2.415446175918     0.149119016804
    H            1.395176215827     2.160720228042    -1.556588612792
    H            2.158057585642     2.849615411095    -0.182867397938
    C           -0.380607330684     3.795337361833    -0.293005673406
    H           -0.641134909338     1.675950251493    -0.113476717107
    H            0.187430067334     2.400956820017     1.232728974598
    H           -0.507979333310     3.840006372403    -1.370982683932
    H           -1.335644068023     4.037076509887     0.163035179529
    H            0.326098156533     4.571287960293    -0.012482035166

  Mulliken Charges: (a.u.)
   Center  Symbol    Alpha    Beta     Spin     Total
       1     H     0.27984  0.27984  0.00000  0.44032
       2     O     4.37101  4.37101  0.00000 -0.74202
       3     C     2.99745  2.99745  0.00000  0.00509
       4     C     3.16149  3.16149  0.00000 -0.32298
       5     H     0.41450  0.41450  0.00000  0.17099
       6     H     0.43198  0.43198  0.00000  0.13604
       7     C     3.16266  3.16266  0.00000 -0.32531
       8     H     0.41506  0.41506  0.00000  0.16989
       9     H     0.42432  0.42432  0.00000  0.15136
      10     C     3.15509  3.15509  0.00000 -0.31019
      11     H     0.42353  0.42353  0.00000  0.15294
      12     H     0.42531  0.42531  0.00000  0.14938
      13     C     3.15934  3.15934  0.00000 -0.31868
      14     H     0.41847  0.41847  0.00000  0.16305
      15     H     0.42106  0.42106  0.00000  0.15788
      16     C     3.15573  3.15573  0.00000 -0.31147
      17     H     0.41923  0.41923  0.00000  0.16154
      18     H     0.42135  0.42135  0.00000  0.15730
      19     C     3.15623  3.15623  0.00000 -0.31245
      20     H     0.42211  0.42211  0.00000  0.15577
      21     H     0.42144  0.42144  0.00000  0.15712
      22     C     3.23937  3.23937  0.00000 -0.47875
      23     H     0.41963  0.41963  0.00000  0.16075
      24     H     0.42154  0.42154  0.00000  0.15692
      25     H     0.42205  0.42205  0.00000  0.15590
      26     H     0.41842  0.41842  0.00000  0.16315
      27     H     0.42178  0.42178  0.00000  0.15645

   Total alpha = 37.00000, Total beta = 37.00000, Total charge = -0.00000
