  ==> Input File <==

--------------------------------------------------------------------------
set {
	reference rhf
	basis 6-31G*
}

set_num_threads( 1 )
memory 2 gb

molecule MOL {
0 1

H	 -1.491718	 -0.280830	 -0.300691
N	 -0.626943	 -0.667432	 -0.000092
C	 -0.604010	 -2.052237	 0.412830
C	 0.469286	 0.129090	 0.000148
H	 -1.267340	 -2.217404	 1.255278
H	 0.403082	 -2.299577	 0.706626
H	 -0.904215	 -2.705382	 -0.399765
C	 1.788933	 -0.616240	 -0.000037
O	 0.411098	 1.327768	 -0.000049
H	 1.872803	 -1.245775	 -0.880381
H	 2.595421	 0.101576	 0.003713
H	 1.870096	 -1.252171	 0.875943

	symmetry c1
}
set optking {
	frozen_dihedral = ("
		4 2 3 5
	")
}

ee = energy('scf')
oeprop('DIPOLE', 'QUADRUPOLE', 'MULLIKEN_CHARGES')
f=open( 'psi4out.xyz', 'w' )
f.write( "12  " )
f.write( str(ee) + "\n" )
f.write( MOL.save_string_xyz() )
f.close()
--------------------------------------------------------------------------

    Molecular point group: c1

    Geometry (in Angstrom), charge = 0, multiplicity = 1:

       Center              X                  Y                   Z               Mass
    ------------   -----------------  -----------------  -----------------  -----------------
           H         -1.775746564416     0.110096144172    -0.385887067012     1.007825032070
           N         -0.910971564416    -0.276505855828    -0.085288067012    14.003074004780
           C         -0.888038564416    -1.661310855828     0.327633932988    12.000000000000
           C          0.185257435584     0.520016144172    -0.085048067012    12.000000000000
           H         -1.551368564416    -1.826477855828     1.170081932988     1.007825032070
           H          0.119053435584    -1.908650855828     0.621429932988     1.007825032070
           H         -1.188243564416    -2.314455855828    -0.484961067012     1.007825032070
           C          1.504904435584    -0.225313855828    -0.085233067012    12.000000000000
           O          0.127069435584     1.718694144172    -0.085245067012    15.994914619560
           H          1.588774435584    -0.854848855828    -0.965577067012     1.007825032070
           H          2.311392435584     0.492502144172    -0.081483067012     1.007825032070
           H          1.586067435584    -0.861244855828     0.790746932988     1.007825032070

  Charge       = 0
  Multiplicity = 1
  Basis Set: 6-31G*
  Basis Set:

    Orbital Energies (a.u.)
    -----------------------

    Doubly Occupied:

       1A    -20.517144     2A    -15.578236     3A    -11.344018
       4A    -11.267994     5A    -11.228966     6A     -1.383292
       7A     -1.232913     8A     -1.005045     9A     -0.956370
      10A     -0.789135    11A     -0.675581    12A     -0.666024
      13A     -0.640212    14A     -0.593593    15A     -0.575329
      16A     -0.570162    17A     -0.549683    18A     -0.506723
      19A     -0.411825    20A     -0.382142

  @DF-RHF Final Energy:  -246.99174134860661

   => Energetics <=

    Nuclear Repulsion Energy =            182.3317786235350297
    One-Electron Energy =                -696.8981233545063105
    Two-Electron Energy =                 267.5746033823646712
    DFT Exchange-Correlation Energy =       0.0000000000000000
    Empirical Dispersion Energy =           0.0000000000000000
    PCM Polarization Energy =               0.0000000000000000
    EFP Energy =                            0.0000000000000000
    Total Energy =                       -246.9917413486066380

  Mulliken Charges: (a.u.)
   Center  Symbol    Alpha    Beta     Spin     Total
       1     H     0.30523  0.30523  0.00000  0.38954
       2     N     3.88806  3.88806  0.00000 -0.77611
       3     C     3.13871  3.13871  0.00000 -0.27742
       4     C     2.63078  2.63078  0.00000  0.73843
       5     H     0.40979  0.40979  0.00000  0.18041
       6     H     0.40950  0.40950  0.00000  0.18099
       7     H     0.41424  0.41424  0.00000  0.17152
       8     C     3.30442  3.30442  0.00000 -0.60885
       9     O     4.29601  4.29601  0.00000 -0.59203
      10     H     0.40436  0.40436  0.00000  0.19128
      11     H     0.39126  0.39126  0.00000  0.21748
      12     H     0.40762  0.40762  0.00000  0.18476

   Total alpha = 20.00000, Total beta = 20.00000, Total charge =  0.00000
