  ==> Input File <==

--------------------------------------------------------------------------
set {
	reference rhf
	basis 6-31G*
}

set_num_threads( 1 )
memory 2 gb

molecule MOL {
0 1

H	 3.276176	 0.174363	 -0.109463
N	 2.434251	 -0.367735	 -0.081097
C	 1.267428	 0.496480	 0.024474
H	 2.501951	 -0.965776	 0.720575
C	 -0.016086	 -0.325158	 -0.029487
H	 1.288818	 1.183521	 -0.816092
H	 1.267576	 1.109062	 0.929528
C	 -1.282277	 0.529072	 0.046735
H	 -0.012495	 -0.908639	 -0.945788
H	 -0.015903	 -1.041248	 0.791956
C	 -2.534467	 -0.222665	 -0.403392
H	 -1.155523	 1.417005	 -0.569297
H	 -1.422202	 0.882660	 1.066221
H	 -2.440212	 -0.559318	 -1.431741
H	 -3.416001	 0.407803	 -0.340714
H	 -2.709289	 -1.098379	 0.215303

	symmetry c1
}
set optking {
	frozen_dihedral = ("
		6 3 5 9,
		1 2 3 6
	")
}

ee = energy('scf')
oeprop('DIPOLE', 'QUADRUPOLE', 'MULLIKEN_CHARGES')
f=open( 'psi4out.xyz', 'w' )
f.write( "16  " )
f.write( str(ee) + "\n" )
f.write( MOL.save_string_xyz() )
f.close()
--------------------------------------------------------------------------

    Molecular point group: c1

    Geometry (in Angstrom), charge = 0, multiplicity = 1:

       Center              X                  Y                   Z               Mass
    ------------   -----------------  -----------------  -----------------  -----------------
           H          3.270116708391     0.158094034522    -0.027795751275     1.007825032070
           N          2.428191708391    -0.384003965478     0.000570248725    14.003074004780
           C          1.261368708391     0.480211034522     0.106141248725    12.000000000000
           H          2.495891708391    -0.982044965478     0.802242248725     1.007825032070
           C         -0.022145291609    -0.341426965478     0.052180248725    12.000000000000
           H          1.282758708391     1.167252034522    -0.734424751275     1.007825032070
           H          1.261516708391     1.092793034522     1.011195248725     1.007825032070
           C         -1.288336291609     0.512803034522     0.128402248725    12.000000000000
           H         -0.018554291609    -0.924907965478    -0.864120751275     1.007825032070
           H         -0.021962291609    -1.057516965478     0.873623248725     1.007825032070
           C         -2.540526291609    -0.238933965478    -0.321724751275    12.000000000000
           H         -1.161582291609     1.400736034522    -0.487629751275     1.007825032070
           H         -1.428261291609     0.866391034522     1.147888248725     1.007825032070
           H         -2.446271291609    -0.575586965478    -1.350073751275     1.007825032070
           H         -3.422060291609     0.391534034522    -0.259046751275     1.007825032070
           H         -2.715348291609    -1.114647965478     0.296970248725     1.007825032070

  Charge       = 0
  Multiplicity = 1
  Basis Set: 6-31G*
  Basis Set:

    Orbital Energies (a.u.)
    -----------------------

    Doubly Occupied:

       1A    -15.532615     2A    -11.240003     3A    -11.214842
       4A    -11.209384     5A    -11.207747     6A     -1.176744
       7A     -1.059448     8A     -0.958475     9A     -0.843931
      10A     -0.791794    11A     -0.663868    12A     -0.634954
      13A     -0.609902    14A     -0.573586    15A     -0.563556
      16A     -0.527333    17A     -0.497963    18A     -0.471158
      19A     -0.463940    20A     -0.461468    21A     -0.381083

  @DF-RHF Final Energy:  -212.31607917019278

   => Energetics <=

    Nuclear Repulsion Energy =            186.3258182082716417
    One-Electron Energy =                -655.1162134869788360
    Two-Electron Energy =                 256.4743161085149268
    DFT Exchange-Correlation Energy =       0.0000000000000000
    Empirical Dispersion Energy =           0.0000000000000000
    PCM Polarization Energy =               0.0000000000000000
    EFP Energy =                            0.0000000000000000
    Total Energy =                       -212.3160791701922676

  Mulliken Charges: (a.u.)
   Center  Symbol    Alpha    Beta     Spin     Total
       1     H     0.33249  0.33249  0.00000  0.33502
       2     N     3.92173  3.92173  0.00000 -0.84346
       3     C     3.06107  3.06107  0.00000 -0.12213
       4     H     0.33535  0.33535  0.00000  0.32931
       5     C     3.15081  3.15081  0.00000 -0.30162
       6     H     0.42070  0.42070  0.00000  0.15860
       7     H     0.43480  0.43480  0.00000  0.13040
       8     C     3.15584  3.15584  0.00000 -0.31167
       9     H     0.41332  0.41332  0.00000  0.17335
      10     H     0.42705  0.42705  0.00000  0.14590
      11     C     3.23881  3.23881  0.00000 -0.47763
      12     H     0.42319  0.42319  0.00000  0.15362
      13     H     0.42279  0.42279  0.00000  0.15443
      14     H     0.42037  0.42037  0.00000  0.15925
      15     H     0.41995  0.41995  0.00000  0.16010
      16     H     0.42173  0.42173  0.00000  0.15653

   Total alpha = 21.00000, Total beta = 21.00000, Total charge =  0.00000
