                              Psi4 1.0.54 Driver

  ==> Input File <==

--------------------------------------------------------------------------
set {
	reference rhf
	basis cc-pvtz
}

set_num_threads( 4 )
memory 2 gb

molecule MOL {
0 1

H	 -2.698799	 -0.000846	 0.036018
C	 -1.694291	 -0.000483	 0.434279
O	 -0.828718	 -0.000608	 -0.655022
H	 -1.576855	 0.881100	 1.056504
H	 -1.576401	 -0.881658	 1.057001
C	 0.557892	 0.000078	 -0.420099
C	 1.039808	 -1.284258	 0.245116
C	 1.363205	 0.342890	 -1.668378
H	 0.688329	 0.808033	 0.288994
H	 0.423382	 -1.517923	 1.104464
H	 2.062326	 -1.161738	 0.583038
H	 1.019316	 -2.129639	 -0.432744
H	 0.971115	 1.237680	 -2.135990
H	 2.397520	 0.524458	 -1.400051
H	 1.351199	 -0.459264	 -2.397039

	symmetry c1
}
set optking {
	frozen_dihedral = ("
		9 6 3 2
	")
}

ee,wfn = optimize('scf', return_wfn=True)
oeprop( wfn, 'DIPOLE', 'QUADRUPOLE', 'MULLIKEN_CHARGES')
f=open( 'psi4out.xyz', 'w' )
f.write( "15  " )
f.write( str(ee) + "\n" )
f.write( MOL.save_string_xyz() )
f.close()
--------------------------------------------------------------------------

    Molecular point group: c1
  Charge       = 0
  Multiplicity = 1
  Basis Set: CC-PVTZ
  Basis Set:
  @DF-RHF Final Energy:  -232.22540300706984
    Total Energy =                       -232.2254030070700423
    Molecular point group: c1
  Basis Set: CC-PVTZ
  Basis Set:
  Basis Set: CC-PVTZ
  Basis Set:
  @DF-RHF Final Energy:  -231.42730483384619
    Total Energy =                       -231.4273048338461649
  Basis Set: CC-PVTZ
  Basis Set:
  Basis Set: CC-PVTZ
  Basis Set:
  @DF-RHF Final Energy:  -231.60730606811035
    Total Energy =                       -231.6073060681102618
  Basis Set: CC-PVTZ
  Basis Set:
  Basis Set: CC-PVTZ
  Basis Set:
  @DF-RHF Final Energy:  -231.92184465053867
    Total Energy =                       -231.9218446505385600
  Basis Set: CC-PVTZ
  Basis Set:
  @DF-RHF Final Energy:  -232.13822125044788
    Total Energy =                       -232.1382212504477707
  @DF-RHF Final Energy:  -232.22135218053182
    Total Energy =                       -232.2213521805319374
  @DF-RHF Final Energy:  -232.22944003972222
    Total Energy =                       -232.2294400397221921
  @DF-RHF Final Energy:  -232.22989073046517
    Total Energy =                       -232.2298907304650584
  Basis Set: CC-PVTZ
  Basis Set:
  @DF-RHF Final Energy:  -232.22994927577261
    Total Energy =                       -232.2299492757725261
  Basis Set: CC-PVTZ
  Basis Set:
  Basis Set: CC-PVTZ
  Basis Set:
  @DF-RHF Final Energy:  -232.22995546549433
    Total Energy =                       -232.2299554654944131
  Basis Set: CC-PVTZ
  Basis Set:
  Basis Set: CC-PVTZ
  Basis Set:
  @DF-RHF Final Energy:  -232.22995659162652
    Total Energy =                       -232.2299565916266033
  Basis Set: CC-PVTZ
  Basis Set:
  Charge       = 0
  Multiplicity = 1
  Basis Set: CC-PVTZ
  Basis Set:

    Orbital Energies (a.u.)
    -----------------------

    Doubly Occupied:

       1A    -20.544376     2A    -11.272886     3A    -11.260493
       4A    -11.208056     5A    -11.204364     6A     -1.378401
       7A     -1.053769     8A     -0.943490     9A     -0.915460
      10A     -0.792989    11A     -0.675394    12A     -0.639782
      13A     -0.638350    14A     -0.590580    15A     -0.550661
      16A     -0.542430    17A     -0.528913    18A     -0.498620
      19A     -0.492084    20A     -0.455114    21A     -0.411686

  @DF-RHF Final Energy:  -232.22995675714159

   => Energetics <=

    Nuclear Repulsion Energy =            197.7807395800923871
    One-Electron Energy =                -706.8255926521745778
    Two-Electron Energy =                 276.8148963149405404
    DFT Exchange-Correlation Energy =       0.0000000000000000
    Empirical Dispersion Energy =           0.0000000000000000
    PCM Polarization Energy =               0.0000000000000000
    EFP Energy =                            0.0000000000000000
    Total Energy =                       -232.2299567571416787
    Molecular point group: c1
  Basis Set: CC-PVTZ
  Basis Set:

  -Total Gradient:
     Atom            X                  Y                   Z
    ------   -----------------  -----------------  -----------------
       1       -0.000001618657     0.000006393133     0.000000815714
       2       -0.000350641185    -0.000320314618    -0.000195893467
       3        0.000574845208     0.000559917615     0.000260038015
       4        0.000009728222    -0.000009439658    -0.000012844383
       5        0.000011767284    -0.000011682242    -0.000007979220
       6       -0.000732889377    -0.000552629916     0.000176997042
       7       -0.000010307146     0.000018589195     0.000004098203
       8        0.000008986224     0.000010338886    -0.000002161218
       9        0.000499553246     0.000302391788    -0.000213053981
      10       -0.000019523861     0.000004821754     0.000012449351
      11        0.000013058525    -0.000003043959    -0.000000031085
      12       -0.000003380937    -0.000006827100    -0.000018611935
      13        0.000005468082     0.000005239573    -0.000003095041
      14       -0.000001813158    -0.000003545512     0.000002341500
      15       -0.000003232472    -0.000000208940    -0.000003069495

  **** Optimization is complete! (in 12 steps) ****
    Final optimized geometry and variables:
    Molecular point group: c1

    Geometry (in Angstrom), charge = 0, multiplicity = 1:

    H           -1.870141727433     2.072885204816     0.063298684515
    C           -1.446059474897     1.180698287932     0.501537036714
    O           -0.371259651145     0.797089192396    -0.291088729516
    H           -1.129846298381     1.410577721426     1.517049451677
    H           -2.220274911408     0.421102761659     0.545908368244
    C            0.451226023958    -0.222558386211     0.209880911374
    C           -0.242376990579    -1.579672589486     0.206595456793
    C            1.704797897326    -0.228535610324    -0.646342070235
    H            0.731557079010     0.027638430498     1.233327361373
    H           -1.108174910807    -1.594466721064     0.856353712732
    H            0.439114007721    -2.348249615130     0.552565717051
    H           -0.564741170569    -1.833488994132    -0.796999234210
    H            2.179189097427     0.743983261096    -0.624340473303
    H            2.411649472537    -0.967280434213    -0.286905787014
    H            1.456345711120    -0.461467936855    -1.675212465661

  Mulliken Charges: (a.u.)
   Center  Symbol    Alpha    Beta     Spin     Total
       1     H     0.44443  0.44443  0.00000  0.11115
       2     C     3.03838  3.03838  0.00000 -0.07675
       3     O     4.18198  4.18198  0.00000 -0.36395
       4     H     0.47212  0.47212  0.00000  0.05576
       5     H     0.46911  0.46911  0.00000  0.06177
       6     C     2.92151  2.92151  0.00000  0.15697
       7     C     3.15311  3.15311  0.00000 -0.30622
       8     C     3.14083  3.14083  0.00000 -0.28166
       9     H     0.46662  0.46662  0.00000  0.06675
      10     H     0.45153  0.45153  0.00000  0.09695
      11     H     0.45080  0.45080  0.00000  0.09839
      12     H     0.45086  0.45086  0.00000  0.09829
      13     H     0.44720  0.44720  0.00000  0.10560
      14     H     0.45867  0.45867  0.00000  0.08265
      15     H     0.45286  0.45286  0.00000  0.09429

   Total alpha = 21.00000, Total beta = 21.00000, Total charge = -0.00000

*** Psi4 exiting successfully. Buy a developer a beer!
