  ==> Input File <==

--------------------------------------------------------------------------
set {
	reference rhf
	basis cc-pvtz
}

set_num_threads( 4 )
memory 2 gb

molecule MOL {
0 1

H	 -0.080057	 0.136488	 -2.680476
C	 -0.780412	 0.600946	 -1.993873
O	 -0.775228	 0.000056	 -0.739966
H	 -1.776465	 0.476800	 -2.394644
H	 -0.565687	 1.663624	 -1.946521
C	 0.406133	 -0.000384	 0.036994
C	 1.526415	 -0.003194	 -0.997339
C	 0.498772	 1.259027	 0.900673
C	 0.495883	 -1.257378	 0.904465
H	 1.452279	 0.872071	 -1.630204
H	 1.451276	 -0.881020	 -1.626529
H	 2.497919	 -0.002741	 -0.517601
H	 0.368981	 2.144239	 0.289753
H	 1.470064	 1.313479	 1.377660
H	 -0.248448	 1.271586	 1.684297
H	 0.363971	 -2.144195	 0.296316
H	 1.467114	 -1.312636	 1.381470
H	 -0.251246	 -1.265768	 1.688235

	symmetry c1
}
set optking {
	frozen_dihedral = ("
		2 3 6 7
	")
}

ee = optimize('scf')
oeprop('DIPOLE', 'QUADRUPOLE', 'MULLIKEN_CHARGES')
f=open( 'psi4out.xyz', 'w' )
f.write( "18  " )
f.write( str(ee) + "\n" )
f.write( MOL.save_string_xyz() )
f.close()
--------------------------------------------------------------------------

    Molecular point group: c1
  Charge       = 0
  Multiplicity = 1
  Basis Set: CC-PVTZ
  Basis Set:
  @DF-RHF Final Energy:  -271.26330800243204
    Total Energy =                       -271.2633080024320975
    Molecular point group: c1
  Basis Set: CC-PVTZ
  Basis Set:
  Basis Set: CC-PVTZ
  Basis Set:
  @DF-RHF Final Energy:  -271.26865964057350
    Total Energy =                       -271.2686596405737305
  Basis Set: CC-PVTZ
  Basis Set:
  Basis Set: CC-PVTZ
  Basis Set:
  @DF-RHF Final Energy:  -271.27329034686773
    Total Energy =                       -271.2732903468680092
  Basis Set: CC-PVTZ
  Basis Set:
  Basis Set: CC-PVTZ
  Basis Set:
  @DF-RHF Final Energy:  -271.27454702770609
    Total Energy =                       -271.2745470277060349
  Basis Set: CC-PVTZ
  Basis Set:
  Basis Set: CC-PVTZ
  Basis Set:
  @DF-RHF Final Energy:  -271.27481407307454
    Total Energy =                       -271.2748140730743671
  Basis Set: CC-PVTZ
  Basis Set:
  Basis Set: CC-PVTZ
  Basis Set:
  @DF-RHF Final Energy:  -271.27487821508669
    Total Energy =                       -271.2748782150865168
  Basis Set: CC-PVTZ
  Basis Set:
  Basis Set: CC-PVTZ
  Basis Set:
  @DF-RHF Final Energy:  -271.27493517837519
    Total Energy =                       -271.2749351783754719
  Basis Set: CC-PVTZ
  Basis Set:
  Charge       = 0
  Multiplicity = 1
  Basis Set: CC-PVTZ
  Basis Set:

    Orbital Energies (a.u.)
    -----------------------

    Doubly Occupied:

       1A    -20.539021     2A    -11.280381     3A    -11.259123
       4A    -11.210605     5A    -11.203545     6A    -11.202208
       7A     -1.371865     8A     -1.075037     9A     -0.950694
      10A     -0.936904    11A     -0.912836    12A     -0.752832
      13A     -0.657573    14A     -0.647735    15A     -0.639583
      16A     -0.587741    17A     -0.575789    18A     -0.551915
      19A     -0.537222    20A     -0.526725    21A     -0.515473
      22A     -0.491426    23A     -0.485877    24A     -0.443273
      25A     -0.402202

  @DF-RHF Final Energy:  -271.27493601478363

   => Energetics <=

    Nuclear Repulsion Energy =            272.4993514942344746
    One-Electron Energy =                -908.0334071302359007
    Two-Electron Energy =                 364.2591196212177920
    DFT Exchange-Correlation Energy =       0.0000000000000000
    Empirical Dispersion Energy =           0.0000000000000000
    PCM Polarization Energy =               0.0000000000000000
    EFP Energy =                            0.0000000000000000
    Total Energy =                       -271.2749360147836342
    Molecular point group: c1
  Basis Set: CC-PVTZ
  Basis Set:

  -Total Gradient:
     Atom            X                  Y                   Z
    ------   -----------------  -----------------  -----------------
       1       -0.000006056864     0.000017742533     0.000005560825
       2        0.000782879793    -0.002776079910    -0.001362681158
       3       -0.001135329914     0.005278494663     0.002150018478
       4        0.000004912403     0.000005926121    -0.000003673118
       5        0.000009712784    -0.000004367546    -0.000002577646
       6        0.000341241732    -0.005198624027    -0.000651326105
       7        0.000022629363     0.002688188909    -0.000085779009
       8       -0.000018207347    -0.000036522461     0.000001632947
       9        0.000022784159     0.000001420090    -0.000032433931
      10       -0.000012021943     0.000029758365    -0.000040927951
      11        0.000012540954     0.000018483858     0.000043133399
      12        0.000013338432    -0.000009880222    -0.000006459803
      13        0.000024214295    -0.000046718132    -0.000017609009
      14       -0.000022511088    -0.000027799129     0.000030637348
      15       -0.000047247746     0.000056000374     0.000007591531
      16       -0.000007693396    -0.000057166374     0.000015817312
      17        0.000010124957    -0.000000467058    -0.000016058458
      18        0.000004689429     0.000061609947    -0.000034865653

  **** Optimization is complete! (in 8 steps) ****
    Final optimized geometry and variables:
    Molecular point group: c1

    Geometry (in Angstrom), charge = 0, multiplicity = 1:

    H           -0.581182321983    -0.062736635041    -2.369156618132
    C           -1.145170540215     0.463525562859    -1.606894776473
    O           -1.006681989863    -0.113032841537    -0.350013230436
    H           -2.194153763918     0.406176019900    -1.861114965401
    H           -0.852438982082     1.510278614297    -1.621311956355
    C            0.242067791456    -0.094608671040     0.320498187167
    C            1.438223306663    -0.102735521921    -0.632263081613
    C            0.289307747362     1.155838562360     1.201028007810
    C            0.245554202437    -1.350848957742     1.182869421584
    H            1.488260408151     0.795903985135    -1.233247966188
    H            1.407791015588    -0.959083398202    -1.295401803791
    H            2.352962934324    -0.162415615023    -0.055722887460
    H            0.243903908081     2.055513805870     0.598007273580
    H            1.202921661726     1.190563145589     1.783728049641
    H           -0.553479330909     1.163721097738     1.880619754815
    H            0.219407331404    -2.236660218316     0.560190279548
    H            1.130753223155    -1.392069796120     1.806997805256
    H           -0.628070787066    -1.362698385527     1.821870712519

  Mulliken Charges: (a.u.)
   Center  Symbol    Alpha    Beta     Spin     Total
       1     H     0.46698  0.46698  0.00000  0.06604
       2     C     3.04295  3.04295  0.00000 -0.08590
       3     O     4.19528  4.19528  0.00000 -0.39056
       4     H     0.44231  0.44231  0.00000  0.11537
       5     H     0.47043  0.47043  0.00000  0.05913
       6     C     2.87352  2.87352  0.00000  0.25295
       7     C     3.17422  3.17422  0.00000 -0.34844
       8     C     3.14897  3.14897  0.00000 -0.29793
       9     C     3.14073  3.14073  0.00000 -0.28146
      10     H     0.44482  0.44482  0.00000  0.11035
      11     H     0.44527  0.44527  0.00000  0.10947
      12     H     0.44386  0.44386  0.00000  0.11228
      13     H     0.45061  0.45061  0.00000  0.09877
      14     H     0.45409  0.45409  0.00000  0.09182
      15     H     0.44810  0.44810  0.00000  0.10381
      16     H     0.45135  0.45135  0.00000  0.09730
      17     H     0.45911  0.45911  0.00000  0.08177
      18     H     0.44738  0.44738  0.00000  0.10524

   Total alpha = 25.00000, Total beta = 25.00000, Total charge =  0.00000
