                              Psi4 1.0.54 Driver

  ==> Input File <==

--------------------------------------------------------------------------
set {
	reference rhf
	basis cc-pvtz
}

set_num_threads( 4 )
memory 2 gb

molecule MOL {
0 1

H	 3.295829	 -0.417489	 0.025692
C	 2.237431	 -0.239384	 0.019596
C	 1.409373	 -1.035040	 -0.757955
C	 1.708527	 0.780001	 0.785514
H	 1.827874	 -1.825316	 -1.350505
C	 0.051063	 -0.809916	 -0.768629
H	 2.351437	 1.393746	 1.385897
C	 0.344172	 1.004872	 0.773756
H	 -0.605126	 -1.413971	 -1.362927
C	 -0.486398	 0.214248	 0.000000
H	 -0.074196	 1.796502	 1.367444
C	 -1.946525	 0.470130	 0.000000
O	 -2.779618	 -0.371226	 0.000000
H	 -2.227127	 1.528393	 0.000000

	symmetry c1
}
set optking {
	frozen_dihedral = ("
		8 10 12 14
	")
}

ee,wfn = optimize('scf', return_wfn=True)
oeprop( wfn, 'DIPOLE', 'QUADRUPOLE', 'MULLIKEN_CHARGES')
f=open( 'psi4out.xyz', 'w' )
f.write( "14  " )
f.write( str(ee) + "\n" )
f.write( MOL.save_string_xyz() )
f.close()
--------------------------------------------------------------------------

    Molecular point group: c1
  Charge       = 0
  Multiplicity = 1
  Basis Set: CC-PVTZ
  Basis Set:
  @DF-RHF Final Energy:  -343.54486342995551
    Total Energy =                       -343.5448634299553419
    Molecular point group: c1
  Basis Set: CC-PVTZ
  Basis Set:
  Basis Set: CC-PVTZ
  Basis Set:
  @DF-RHF Final Energy:  -343.54223322662091
    Total Energy =                       -343.5422332266209651
  Basis Set: CC-PVTZ
  Basis Set:
  Basis Set: CC-PVTZ
  Basis Set:
  @DF-RHF Final Energy:  -343.54488895448708
    Total Energy =                       -343.5448889544871349
  Basis Set: CC-PVTZ
  Basis Set:
  Basis Set: CC-PVTZ
  Basis Set:
  @DF-RHF Final Energy:  -343.54552770455058
    Total Energy =                       -343.5455277045507501
  Basis Set: CC-PVTZ
  Basis Set:
  Basis Set: CC-PVTZ
  Basis Set:
  @DF-RHF Final Energy:  -343.54554217974578
    Total Energy =                       -343.5455421797458371
  Basis Set: CC-PVTZ
  Basis Set:
  Charge       = 0
  Multiplicity = 1
  Basis Set: CC-PVTZ
  Basis Set:

    Orbital Energies (a.u.)
    -----------------------

    Doubly Occupied:

       1A    -20.556382     2A    -11.328775     3A    -11.250757
       4A    -11.247332     5A    -11.247257     6A    -11.245468
       7A    -11.243221     8A    -11.241698     9A     -1.411718
      10A     -1.176129    11A     -1.050637    12A     -1.035093
      13A     -0.891798    14A     -0.847084    15A     -0.795778
      16A     -0.725554    17A     -0.681510    18A     -0.657020
      19A     -0.630873    20A     -0.621984    21A     -0.605668
      22A     -0.553293    23A     -0.530369    24A     -0.511345
      25A     -0.508166    26A     -0.426236    27A     -0.354189
      28A     -0.351999

  @DF-RHF Final Energy:  -343.54554536528650

   => Energetics <=

    Nuclear Repulsion Energy =            323.9155032106698968
    One-Electron Energy =               -1107.4674328392729876
    Two-Electron Energy =                 440.0063842633163631
    DFT Exchange-Correlation Energy =       0.0000000000000000
    Empirical Dispersion Energy =           0.0000000000000000
    PCM Polarization Energy =               0.0000000000000000
    EFP Energy =                            0.0000000000000000
    Total Energy =                       -343.5455453652867845
    Molecular point group: c1
  Basis Set: CC-PVTZ
  Basis Set:

  -Total Gradient:
     Atom            X                  Y                   Z
    ------   -----------------  -----------------  -----------------
       1       -0.000003699285    -0.000014527412     0.000005855820
       2        0.000009073774     0.000055587886     0.000008702331
       3       -0.000051257412     0.000010595607    -0.000058287986
       4        0.000031279537    -0.000041914845     0.000008658768
       5        0.000006290198    -0.000006258474     0.000004680344
       6        0.000053842945    -0.000092666805     0.000029626797
       7       -0.000005243206     0.000008414507    -0.000004301690
       8       -0.000468097097    -0.003536000522     0.003910878846
       9        0.000001814233     0.000023987367    -0.000013272930
      10        0.000528423211     0.005288251876    -0.007713456328
      11       -0.000000434052     0.000001945021    -0.000004348833
      12        0.000012651133    -0.001936913098     0.010254824210
      13        0.000009477709    -0.000035875317     0.000003077995
      14       -0.000124121690     0.000275374210    -0.006432637343

  **** Optimization is complete! (in 6 steps) ****
    Final optimized geometry and variables:
    Molecular point group: c1

    Geometry (in Angstrom), charge = 0, multiplicity = 1:

    H            3.288647522480    -0.442297571814     0.050464216107
    C            2.232849380875    -0.250316638865     0.033479691010
    C            1.401971948189    -1.034653884193    -0.749607493545
    C            1.707493147322     0.774866439702     0.795364918007
    H            1.814133188390    -1.832516843593    -1.336608980104
    C            0.043735358952    -0.798975346929    -0.763943180002
    H            2.350189496646     1.374262084207     1.410543233596
    C            0.348806127067     1.027056551596     0.760897050624
    H           -0.614410973538    -1.415352940264    -1.343874044694
    C           -0.483736648696     0.248777021752    -0.023795001191
    H           -0.062429396283     1.829939525184     1.344875524945
    C           -1.953718019032     0.470606172628     0.018048752490
    O           -2.757840936737    -0.393175758081    -0.064876394172
    H           -2.268785172936     1.518375995658     0.065462085505

  Mulliken Charges: (a.u.)
   Center  Symbol    Alpha    Beta     Spin     Total
       1     H     0.41999  0.41999  0.00000  0.16003
       2     C     3.07414  3.07414  0.00000 -0.14828
       3     C     3.06818  3.06818  0.00000 -0.13637
       4     C     3.07171  3.07171  0.00000 -0.14343
       5     H     0.42015  0.42015  0.00000  0.15971
       6     C     3.08582  3.08582  0.00000 -0.17163
       7     H     0.42067  0.42067  0.00000  0.15866
       8     C     3.09063  3.09063  0.00000 -0.18126
       9     H     0.41226  0.41226  0.00000  0.17549
      10     C     2.96838  2.96838  0.00000  0.06324
      11     H     0.42341  0.42341  0.00000  0.15317
      12     C     2.92189  2.92189  0.00000  0.15622
      13     O     4.16634  4.16634  0.00000 -0.33268
      14     H     0.45643  0.45643  0.00000  0.08714

   Total alpha = 28.00000, Total beta = 28.00000, Total charge = -0.00000

*** Psi4 exiting successfully. Buy a developer a beer!
