  ==> Input File <==

--------------------------------------------------------------------------
set {
	reference rhf
	basis 6-31G*
}

set_num_threads( 4 )
memory 2 gb

molecule MOL {
0 1

H	 -3.261111	 -0.295142	 1.469456
C	 -3.306842	 -0.277400	 0.373456
C	 -2.660244	 0.921717	 -0.272021
O	 -3.838538	 -1.161155	 -0.216482
C	 -1.220012	 1.144545	 0.209990
H	 -2.705793	 0.797307	 -1.347733
H	 -3.263782	 1.790044	 -0.010477
C	 -0.252658	 0.041456	 -0.226725
H	 -0.873521	 2.100229	 -0.171974
H	 -1.211708	 1.231594	 1.295398
C	 1.180775	 0.282413	 0.250794
H	 -0.266029	 -0.034465	 -1.312038
H	 -0.597733	 -0.921000	 0.146291
C	 2.148627	 -0.814315	 -0.201312
H	 1.516199	 1.249228	 -0.115937
H	 1.192670	 0.346017	 1.338083
C	 3.580890	 -0.659131	 0.322722
H	 2.166869	 -0.852443	 -1.289387
H	 1.762857	 -1.776509	 0.128956
C	 4.049448	 -1.792222	 1.237149
H	 3.646463	 0.278484	 0.869097
H	 4.264430	 -0.567523	 -0.518885
H	 3.374837	 -1.917692	 2.080016
H	 4.104705	 -2.740747	 0.713488
H	 5.037966	 -1.582477	 1.634433

	symmetry c1
}
set optking {
	frozen_dihedral = ("
		20 17 14 18
	")
}

ee = optimize('scf')
oeprop('DIPOLE', 'QUADRUPOLE', 'MULLIKEN_CHARGES')
f=open( 'psi4out.xyz', 'w' )
f.write( "25  " )
f.write( str(ee) + "\n" )
f.write( MOL.save_string_xyz() )
f.close()
--------------------------------------------------------------------------

    Molecular point group: c1
  Charge       = 0
  Multiplicity = 1
  Basis Set: 6-31G*
  Basis Set:
  @DF-RHF Final Energy:  -387.11757035518258
    Total Energy =                       -387.1175703551824654
    Molecular point group: c1
  Basis Set: 6-31G*
  Basis Set:
  Basis Set: 6-31G*
  Basis Set:
  @DF-RHF Final Energy:  -387.11779307660436
    Total Energy =                       -387.1177930766044710
  Basis Set: 6-31G*
  Basis Set:
  Basis Set: 6-31G*
  Basis Set:
  @DF-RHF Final Energy:  -387.11793372725219
    Total Energy =                       -387.1179337272526482
  Basis Set: 6-31G*
  Basis Set:
  Basis Set: 6-31G*
  Basis Set:
  @DF-RHF Final Energy:  -387.11807146153978
    Total Energy =                       -387.1180714615394436
  Basis Set: 6-31G*
  Basis Set:
  Basis Set: 6-31G*
  Basis Set:
  @DF-RHF Final Energy:  -387.11807314767435
    Total Energy =                       -387.1180731476744086
  Basis Set: 6-31G*
  Basis Set:
  Charge       = 0
  Multiplicity = 1
  Basis Set: 6-31G*
  Basis Set:

    Orbital Energies (a.u.)
    -----------------------

    Doubly Occupied:

       1A    -20.562046     2A    -11.326203     3A    -11.235433
       4A    -11.234722     5A    -11.223818     6A    -11.220730
       7A    -11.217387     8A    -11.216436     9A    -11.210696
      10A     -1.401987    11A     -1.103505    12A     -1.068149
      13A     -1.014487    14A     -0.943111    15A     -0.868844
      16A     -0.816382    17A     -0.793000    18A     -0.787073
      19A     -0.664151    20A     -0.662517    21A     -0.632781
      22A     -0.621274    23A     -0.602255    24A     -0.596978
      25A     -0.568373    26A     -0.553829    27A     -0.534948
      28A     -0.521466    29A     -0.510588    30A     -0.497025
      31A     -0.486625    32A     -0.480359    33A     -0.467069
      34A     -0.458036    35A     -0.439373    36A     -0.409573

  @DF-RHF Final Energy:  -387.11807282832962

   => Energetics <=

    Nuclear Repulsion Energy =            436.6548270515368699
    One-Electron Energy =               -1389.6433430370966562
    Two-Electron Energy =                 565.8704431572308522
    DFT Exchange-Correlation Energy =       0.0000000000000000
    Empirical Dispersion Energy =           0.0000000000000000
    PCM Polarization Energy =               0.0000000000000000
    EFP Energy =                            0.0000000000000000
    Total Energy =                       -387.1180728283289909
    Molecular point group: c1
  Basis Set: 6-31G*
  Basis Set:

  -Total Gradient:
     Atom            X                  Y                   Z
    ------   -----------------  -----------------  -----------------
       1        0.000004084940     0.000002384277    -0.000003004704
       2       -0.000007876893    -0.000007300469    -0.000008951716
       3       -0.000003411532    -0.000008146490     0.000017853007
       4        0.000000405237    -0.000001575699    -0.000002551558
       5        0.000013889451     0.000019496721    -0.000033314008
       6       -0.000002176358     0.000010878241     0.000000089383
       7       -0.000006972011    -0.000016872909     0.000009812422
       8       -0.000013342330    -0.000016578196     0.000034920935
       9        0.000017914543     0.000004688579    -0.000003512575
      10        0.000000760013     0.000007680496    -0.000007152855
      11       -0.000024336964    -0.000026079339    -0.000016903978
      12        0.000010449817     0.000000407267     0.000005356035
      13       -0.000018131063    -0.000001764141     0.000003676451
      14       -0.000080601407     0.000313696910    -0.000106637262
      15        0.000014712866     0.000004490313    -0.000011760888
      16        0.000021369220    -0.000009585251    -0.000001440758
      17       -0.000058104267     0.000153433139     0.000304355556
      18        0.000009874374    -0.000335355799     0.000034298193
      19       -0.000047635263     0.000018116931    -0.000031624580
      20        0.000111668610    -0.000093332691    -0.000196766209
      21        0.000072241974    -0.000001621609     0.000004383207
      22        0.000001427722    -0.000019845438     0.000034903450
      23       -0.000019753868    -0.000008127547    -0.000020082186
      24        0.000012060813     0.000002778450    -0.000030151585
      25       -0.000008517620     0.000008134254     0.000024206223

  **** Optimization is complete! (in 6 steps) ****
    Final optimized geometry and variables:
    Molecular point group: c1

    Geometry (in Angstrom), charge = 0, multiplicity = 1:

    H           -3.253356244023    -0.023663644952     1.278992970127
    C           -3.287097300773     0.008864492096     0.182808152001
    C           -2.621756455862     1.209871133231    -0.439850634567
    O           -3.826582822312    -0.858799707281    -0.423788177763
    C           -1.182811208919     1.409204959847     0.056324458014
    H           -2.660108099962     1.101466185873    -1.517625168551
    H           -3.217581163834     2.081044769503    -0.170513648081
    C           -0.224126217755     0.301889366716    -0.389078706556
    H           -0.822395873573     2.366756352339    -0.308200928418
    H           -1.182149999699     1.479600110984     1.142785787657
    C            1.208919466470     0.523417527158     0.095972524324
    H           -0.233675745441     0.239169465539    -1.475323273488
    H           -0.579769035838    -0.661841840260    -0.028975168300
    C            2.176070682964    -0.573372523863    -0.356135056584
    H            1.566268499521     1.486964162046    -0.263401409154
    H            1.217794730570     0.582256354600     1.183443099956
    C            3.621962494285    -0.368019644117     0.151284520632
    H            2.166549005436    -0.626780402805    -1.441618066231
    H            1.801303926838    -1.534319749897    -0.010844480927
    C            4.108320463016    -1.489051217190     1.070576153184
    H            3.692481326127     0.578014314545     0.682208711395
    H            4.301649231580    -0.285273470214    -0.691785273996
    H            3.467660811744    -1.585011057934     1.943075997491
    H            4.107201837222    -2.445077941732     0.554950962796
    H            5.118992717135    -1.301882160270     1.420489422903

  Mulliken Charges: (a.u.)
   Center  Symbol    Alpha    Beta     Spin     Total
       1     H     0.43262  0.43262  0.00000  0.13477
       2     C     2.83083  2.83083  0.00000  0.33833
       3     C     3.20812  3.20812  0.00000 -0.41623
       4     O     4.23776  4.23776  0.00000 -0.47552
       5     C     3.16654  3.16654  0.00000 -0.33308
       6     H     0.39971  0.39971  0.00000  0.20057
       7     H     0.40660  0.40660  0.00000  0.18680
       8     C     3.15577  3.15577  0.00000 -0.31155
       9     H     0.41277  0.41277  0.00000  0.17446
      10     H     0.41962  0.41962  0.00000  0.16076
      11     C     3.15438  3.15438  0.00000 -0.30876
      12     H     0.41803  0.41803  0.00000  0.16394
      13     H     0.41829  0.41829  0.00000  0.16342
      14     C     3.15564  3.15564  0.00000 -0.31128
      15     H     0.42230  0.42230  0.00000  0.15541
      16     H     0.42329  0.42329  0.00000  0.15343
      17     C     3.15569  3.15569  0.00000 -0.31138
      18     H     0.41977  0.41977  0.00000  0.16045
      19     H     0.41943  0.41943  0.00000  0.16114
      20     C     3.23980  3.23980  0.00000 -0.47959
      21     H     0.42041  0.42041  0.00000  0.15918
      22     H     0.41948  0.41948  0.00000  0.16104
      23     H     0.42237  0.42237  0.00000  0.15526
      24     H     0.42057  0.42057  0.00000  0.15886
      25     H     0.42022  0.42022  0.00000  0.15956

   Total alpha = 36.00000, Total beta = 36.00000, Total charge = -0.00000
