  ==> Input File <==

--------------------------------------------------------------------------
set {
	reference rhf
	basis 6-31G*
}

set_num_threads( 4 )
memory 2 gb

molecule MOL {
0 1

H	 2.265791	 -1.587526	 2.671030
O	 1.950446	 -1.551965	 1.773228
C	 1.171372	 -0.477477	 1.651018
C	 0.624473	 -0.343591	 0.253101
O	 0.961761	 0.257168	 2.560619
C	 -0.265902	 0.883932	 0.072916
H	 1.475192	 -0.333228	 -0.420354
H	 0.081240	 -1.258699	 0.031227
C	 -1.728698	 0.646073	 0.462102
H	 -0.209144	 1.219470	 -0.958188
H	 0.135059	 1.692851	 0.673903
C	 -2.482460	 -0.343073	 -0.431425
H	 -2.245265	 1.602650	 0.432430
H	 -1.779332	 0.308348	 1.496285
C	 -3.960546	 -0.461025	 -0.060175
H	 -2.395034	 -0.026811	 -1.468912
H	 -2.024850	 -1.327147	 -0.371646
H	 -4.472726	 -1.168004	 -0.705284
H	 -4.465146	 0.496508	 -0.151489
H	 -4.081218	 -0.800940	 0.964585

	symmetry c1
}
set optking {
	frozen_dihedral = ("
		7 4 6 10
	")
}

ee = optimize('scf')
oeprop('DIPOLE', 'QUADRUPOLE', 'MULLIKEN_CHARGES')
f=open( 'psi4out.xyz', 'w' )
f.write( "20  " )
f.write( str(ee) + "\n" )
f.write( MOL.save_string_xyz() )
f.close()
--------------------------------------------------------------------------

    Molecular point group: c1
  Charge       = 0
  Multiplicity = 1
  Basis Set: 6-31G*
  Basis Set:
  @DF-RHF Final Energy:  -383.94664754755922
    Total Energy =                       -383.9466475475588823
    Molecular point group: c1
  Basis Set: 6-31G*
  Basis Set:
  Basis Set: 6-31G*
  Basis Set:
  @DF-RHF Final Energy:  -383.94677841791724
    Total Energy =                       -383.9467784179172440
  Basis Set: 6-31G*
  Basis Set:
  Basis Set: 6-31G*
  Basis Set:
  @DF-RHF Final Energy:  -383.94705401630722
    Total Energy =                       -383.9470540163073338
  Basis Set: 6-31G*
  Basis Set:
  Basis Set: 6-31G*
  Basis Set:
  @DF-RHF Final Energy:  -383.94697750029843
    Total Energy =                       -383.9469775002984306
  Basis Set: 6-31G*
  Basis Set:
  Basis Set: 6-31G*
  Basis Set:
  @DF-RHF Final Energy:  -383.94705797299508
    Total Energy =                       -383.9470579729951396
  Basis Set: 6-31G*
  Basis Set:
  Basis Set: 6-31G*
  Basis Set:
  @DF-RHF Final Energy:  -383.94710121802194
    Total Energy =                       -383.9471012180219986
  Basis Set: 6-31G*
  Basis Set:
  Charge       = 0
  Multiplicity = 1
  Basis Set: 6-31G*
  Basis Set:

    Orbital Energies (a.u.)
    -----------------------

    Doubly Occupied:

       1A    -20.613392     2A    -20.552626     3A    -11.382039
       4A    -11.240133     5A    -11.222475     6A    -11.218013
       7A    -11.215508     8A    -11.210081     9A     -1.475566
      10A     -1.366466    11A     -1.093567    12A     -1.039155
      13A     -0.958807    14A     -0.869964    15A     -0.815309
      16A     -0.774887    17A     -0.701783    18A     -0.690177
      19A     -0.661405    20A     -0.633936    21A     -0.600156
      22A     -0.592817    23A     -0.573921    24A     -0.556870
      25A     -0.534652    26A     -0.509822    27A     -0.500602
      28A     -0.481594    29A     -0.466306    30A     -0.464013
      31A     -0.453486    32A     -0.444084

  @DF-RHF Final Energy:  -383.94710192013792

   => Energetics <=

    Nuclear Repulsion Energy =            382.0552056123570992
    One-Electron Energy =               -1280.1773894766893136
    Two-Electron Energy =                 514.1750819441945168
    DFT Exchange-Correlation Energy =       0.0000000000000000
    Empirical Dispersion Energy =           0.0000000000000000
    PCM Polarization Energy =               0.0000000000000000
    EFP Energy =                            0.0000000000000000
    Total Energy =                       -383.9471019201376976
    Molecular point group: c1
  Basis Set: 6-31G*
  Basis Set:

  -Total Gradient:
     Atom            X                  Y                   Z
    ------   -----------------  -----------------  -----------------
       1       -0.000021824731     0.000015541153    -0.000011154123
       2       -0.000015238947    -0.000020461007    -0.000025582995
       3        0.000096854658     0.000035467146    -0.000002688730
       4        0.002543481637     0.002374442169     0.002661665597
       5       -0.000080415604     0.000000428199     0.000021016095
       6       -0.003172145808    -0.002669063710    -0.001242632828
       7       -0.001594666408    -0.001603787556    -0.002012788859
       8        0.000020626524     0.000006153044    -0.000002665847
       9       -0.000010802666     0.000068748730    -0.000006139237
      10        0.002222221203     0.001785765062     0.000632924651
      11       -0.000030432421     0.000016897153     0.000003720905
      12        0.000039758938    -0.000060811299     0.000010420759
      13        0.000009523172     0.000047950930     0.000012431418
      14        0.000009244644    -0.000011554176    -0.000054203557
      15       -0.000003340296     0.000029706940     0.000009377385
      16       -0.000018206416     0.000001558916     0.000005054204
      17       -0.000001158649    -0.000014153493    -0.000002766027
      18        0.000008413257     0.000013325505    -0.000008208678
      19       -0.000001838996     0.000002101826     0.000018545628
      20       -0.000000053094    -0.000018255534    -0.000006325769

  **** Optimization is complete! (in 7 steps) ****
    Final optimized geometry and variables:
    Molecular point group: c1

    Geometry (in Angstrom), charge = 0, multiplicity = 1:

    H            2.704115272727    -1.354876948773     1.911765439569
    O            2.394950560967    -1.341130520336     1.011226339556
    C            1.621654769592    -0.267249554189     0.855863774798
    C            1.088284674522    -0.168454535804    -0.550545988440
    O            1.406828445232     0.489369738776     1.746450669290
    C            0.172731245318     1.037412700739    -0.782486738327
    H            1.937797596378    -0.158264629338    -1.226824638968
    H            0.583271827685    -1.106329029081    -0.760171120989
    C           -1.289130697365     0.821643437230    -0.376582234642
    H            0.233154319394     1.326183189801    -1.828392959507
    H            0.570235723785     1.874254296950    -0.219823964170
    C           -2.079092194025    -0.106928411123    -1.303034531047
    H           -1.783709757575     1.789891965776    -0.356140761418
    H           -1.325192108738     0.444870887131     0.642794779582
    C           -3.534978832392    -0.271636295687    -0.867073384558
    H           -2.048588012358     0.289209247375    -2.316010269844
    H           -1.611313386895    -1.087501664761    -1.346266857922
    H           -4.077188858016    -0.923995443477    -1.544520186592
    H           -4.048455785697     0.685367546367    -0.846882876106
    H           -3.599344298633    -0.700851589212     0.128710382791

  Mulliken Charges: (a.u.)
   Center  Symbol    Alpha    Beta     Spin     Total
       1     H     0.26772  0.26772  0.00000  0.46457
       2     O     4.35049  4.35049  0.00000 -0.70099
       3     C     2.62445  2.62445  0.00000  0.75111
       4     C     3.21398  3.21398  0.00000 -0.42796
       5     O     4.27971  4.27971  0.00000 -0.55942
       6     C     3.16044  3.16044  0.00000 -0.32087
       7     H     0.39532  0.39532  0.00000  0.20936
       8     H     0.39696  0.39696  0.00000  0.20607
       9     C     3.15604  3.15604  0.00000 -0.31209
      10     H     0.41839  0.41839  0.00000  0.16322
      11     H     0.40192  0.40192  0.00000  0.19615
      12     C     3.15382  3.15382  0.00000 -0.30765
      13     H     0.41895  0.41895  0.00000  0.16211
      14     H     0.41438  0.41438  0.00000  0.17125
      15     C     3.23904  3.23904  0.00000 -0.47807
      16     H     0.42304  0.42304  0.00000  0.15393
      17     H     0.42471  0.42471  0.00000  0.15059
      18     H     0.41921  0.41921  0.00000  0.16157
      19     H     0.42079  0.42079  0.00000  0.15843
      20     H     0.42065  0.42065  0.00000  0.15870

   Total alpha = 32.00000, Total beta = 32.00000, Total charge = -0.00000
