                              Psi4 1.0.54 Driver

  ==> Input File <==

--------------------------------------------------------------------------
set {
	reference rhf
	basis cc-pvtz
}

set_num_threads( 4 )
memory 2 gb

molecule MOL {
0 1

H	 0.555069	 -5.472705	 -2.315369
C	 0.742488	 -4.621586	 -1.671491
C	 -0.439228	 -3.658176	 -1.677866
H	 0.933912	 -4.999805	 -0.672818
H	 1.648719	 -4.137606	 -2.020096
C	 -0.217837	 -2.445733	 -0.785714
H	 -1.338561	 -4.169004	 -1.352259
H	 -0.625143	 -3.323527	 -2.695718
N	 -1.364900	 -1.563749	 -0.795089
H	 -0.056629	 -2.777142	 0.235730
H	 0.699210	 -1.933399	 -1.091693
C	 -1.215959	 -0.382435	 0.027143
H	 -1.576851	 -1.296505	 -1.733693
C	 -2.451944	 0.502410	 -0.038737
H	 -1.059616	 -0.703795	 1.052551
H	 -0.335027	 0.204549	 -0.249415
C	 -3.752217	 -0.292550	 0.005776
H	 -2.407325	 1.093801	 -0.946480
H	 -2.431979	 1.206234	 0.790023
H	 -3.817783	 -0.982946	 -0.828547
H	 -4.612613	 0.364348	 -0.042306
H	 -3.830160	 -0.871666	 0.919868

	symmetry c1
}
set optking {
	frozen_dihedral = ("
		15 12 14 18
	")
}

ee,wfn = optimize('scf', return_wfn=True)
oeprop( wfn, 'DIPOLE', 'QUADRUPOLE', 'MULLIKEN_CHARGES')
f=open( 'psi4out.xyz', 'w' )
f.write( "22  " )
f.write( str(ee) + "\n" )
f.write( MOL.save_string_xyz() )
f.close()
--------------------------------------------------------------------------

    Molecular point group: c1
  Charge       = 0
  Multiplicity = 1
  Basis Set: CC-PVTZ
  Basis Set:
  @DF-RHF Final Energy:  -290.48652761146894
    Total Energy =                       -290.4865276114692278
    Molecular point group: c1
  Basis Set: CC-PVTZ
  Basis Set:
  Basis Set: CC-PVTZ
  Basis Set:
  @DF-RHF Final Energy:  -290.48699178229629
    Total Energy =                       -290.4869917822962861
  Basis Set: CC-PVTZ
  Basis Set:
  Basis Set: CC-PVTZ
  Basis Set:
  @DF-RHF Final Energy:  -290.48781337618419
    Total Energy =                       -290.4878133761842491
  Basis Set: CC-PVTZ
  Basis Set:
  Basis Set: CC-PVTZ
  Basis Set:
  @DF-RHF Final Energy:  -290.48784004876097
    Total Energy =                       -290.4878400487609724
  Basis Set: CC-PVTZ
  Basis Set:
  Charge       = 0
  Multiplicity = 1
  Basis Set: CC-PVTZ
  Basis Set:

    Orbital Energies (a.u.)
    -----------------------

    Doubly Occupied:

       1A    -15.529000     2A    -11.236839     3A    -11.236821
       4A    -11.212456     5A    -11.212283     6A    -11.207906
       7A    -11.199776     8A     -1.208341     9A     -1.058918
      10A     -1.023139    11A     -0.927363    12A     -0.878683
      13A     -0.806783    14A     -0.789636    15A     -0.662707
      16A     -0.633160    17A     -0.615979    18A     -0.609804
      19A     -0.573880    20A     -0.566048    21A     -0.535064
      22A     -0.528877    23A     -0.503468    24A     -0.488979
      25A     -0.482721    26A     -0.470352    27A     -0.464148
      28A     -0.451397    29A     -0.360959

  @DF-RHF Final Energy:  -290.48784173837822

   => Energetics <=

    Nuclear Repulsion Energy =            318.1872307416256831
    One-Electron Energy =               -1022.3991707292382216
    Two-Electron Energy =                 413.7240982492345438
    DFT Exchange-Correlation Energy =       0.0000000000000000
    Empirical Dispersion Energy =           0.0000000000000000
    PCM Polarization Energy =               0.0000000000000000
    EFP Energy =                            0.0000000000000000
    Total Energy =                       -290.4878417383780516
    Molecular point group: c1
  Basis Set: CC-PVTZ
  Basis Set:

  -Total Gradient:
     Atom            X                  Y                   Z
    ------   -----------------  -----------------  -----------------
       1       -0.000007127702     0.000004770809    -0.000001958389
       2        0.000004079994     0.000019612937     0.000006283733
       3       -0.000006481573     0.000007194765    -0.000013663302
       4       -0.000000017569    -0.000002869048     0.000003949341
       5        0.000007203140    -0.000000602896    -0.000000241297
       6        0.000024311344    -0.000032313122     0.000021533518
       7       -0.000003951607     0.000004889771     0.000007673264
       8       -0.000003725924    -0.000004655014    -0.000010110426
       9       -0.000016952358     0.000009606112    -0.000009514075
      10       -0.000000871750     0.000003821254     0.000010327841
      11       -0.000008672084    -0.000001884598    -0.000007625188
      12       -0.002881772672    -0.003714750068    -0.000335787155
      13       -0.000008815365     0.000000837602    -0.000017329853
      14       -0.002302611294    -0.003284945926    -0.002654773902
      15        0.002782810273     0.003661393927     0.000747674482
      16       -0.000000733434    -0.000010156295    -0.000020998185
      17        0.000039296732     0.000018541136     0.000048983011
      18        0.002410248382     0.003330352068     0.002226349167
      19       -0.000017044346     0.000015122233     0.000022353180
      20        0.000012273447    -0.000010631428    -0.000023774565
      21       -0.000003589838     0.000001690597    -0.000002830991
      22       -0.000017855797    -0.000015024817     0.000003479789

  **** Optimization is complete! (in 5 steps) ****
    Final optimized geometry and variables:
    Molecular point group: c1

    Geometry (in Angstrom), charge = 0, multiplicity = 1:

    H            1.860180834524    -3.690253718351    -1.615465085194
    C            2.022726355421    -2.846095478351    -0.955851644228
    C            0.837940770002    -1.887120105259    -0.990374510515
    H            2.182375409628    -3.235266852171     0.044197959231
    H            2.937995141712    -2.354645649994    -1.268529916568
    C            1.024518813719    -0.685360973843    -0.076175927766
    H           -0.069624641052    -2.405503373691    -0.701661147116
    H            0.685324065025    -1.540396738007    -2.009740353247
    N           -0.124104982345     0.193695709206    -0.113686984994
    H            1.151215635574    -1.028608087052     0.946158391621
    H            1.949724347443    -0.166371381074    -0.343953772226
    C           -0.000894331658     1.363797911917     0.726500586405
    H           -0.302566760957     0.473613283951    -1.056132665529
    C           -1.211811047808     2.291674066045     0.652089994310
    H            0.148312932172     1.048341374681     1.754863186554
    H            0.889059461805     1.949447086402     0.477079599002
    C           -2.564211479408     1.601766391920     0.785396196835
    H           -1.163792730286     2.880074008603    -0.261153503452
    H           -1.104408647966     3.018762088227     1.452494351086
    H           -2.747329092866     0.916497346412    -0.030792133843
    H           -3.364366946115     2.333402089430     0.800291654301
    H           -2.616882304378     1.030658653005     1.706125517747

  Mulliken Charges: (a.u.)
   Center  Symbol    Alpha    Beta     Spin     Total
       1     H     0.44764  0.44764  0.00000  0.10472
       2     C     3.15382  3.15382  0.00000 -0.30764
       3     C     3.08073  3.08073  0.00000 -0.16147
       4     H     0.45470  0.45470  0.00000  0.09060
       5     H     0.45609  0.45609  0.00000  0.08782
       6     C     3.02022  3.02022  0.00000 -0.04043
       7     H     0.44888  0.44888  0.00000  0.10224
       8     H     0.45976  0.45976  0.00000  0.08049
       9     N     3.63916  3.63916  0.00000 -0.27833
      10     H     0.45945  0.45945  0.00000  0.08110
      11     H     0.47500  0.47500  0.00000  0.04999
      12     C     3.03767  3.03767  0.00000 -0.07534
      13     H     0.44384  0.44384  0.00000  0.11232
      14     C     3.09425  3.09425  0.00000 -0.18851
      15     H     0.45669  0.45669  0.00000  0.08661
      16     H     0.46639  0.46639  0.00000  0.06721
      17     C     3.13973  3.13973  0.00000 -0.27945
      18     H     0.45385  0.45385  0.00000  0.09230
      19     H     0.45214  0.45214  0.00000  0.09572
      20     H     0.45200  0.45200  0.00000  0.09600
      21     H     0.45202  0.45202  0.00000  0.09597
      22     H     0.45596  0.45596  0.00000  0.08808

   Total alpha = 29.00000, Total beta = 29.00000, Total charge = -0.00000

*** Psi4 exiting successfully. Buy a developer a beer!
