  ==> Input File <==

--------------------------------------------------------------------------
set {
	reference rhf
	basis 6-31G*
}

set_num_threads( 1 )
memory 2 gb

molecule MOL {
0 1

H	 4.151204	 -0.195657	 1.911316
C	 3.489074	 -0.613259	 1.159689
C	 2.178711	 0.169251	 1.084932
H	 4.014296	 -0.591028	 0.208966
H	 3.314095	 -1.654372	 1.416031
C	 1.217350	 -0.386724	 0.039429
H	 2.376937	 1.211033	 0.853011
H	 1.695131	 0.155452	 2.060304
N	 0.000003	 0.397874	 -0.023260
H	 1.690124	 -0.348878	 -0.938332
H	 1.021472	 -1.443961	 0.247416
C	 -1.217365	 -0.386708	 0.039277
H	 -0.000031	 1.072115	 0.718656
C	 -2.452633	 0.504241	 -0.042481
H	 -1.215291	 -1.074557	 -0.802042
H	 -1.269739	 -1.003477	 0.942735
C	 -3.758029	 -0.289423	 -0.010781
H	 -2.394220	 1.093569	 -0.952170
H	 -2.440793	 1.210787	 0.785871
H	 -3.816659	 -0.981993	 -0.845726
H	 -4.617837	 0.370165	 -0.069296
H	 -3.847478	 -0.867502	 0.904682

	symmetry c1
}
set optking {
	frozen_dihedral = ("
		15 12 14 18
	")
}

ee = energy('scf')
oeprop('DIPOLE', 'QUADRUPOLE', 'MULLIKEN_CHARGES')
f=open( 'psi4out.xyz', 'w' )
f.write( "22  " )
f.write( str(ee) + "\n" )
f.write( MOL.save_string_xyz() )
f.close()
--------------------------------------------------------------------------

    Molecular point group: c1

    Geometry (in Angstrom), charge = 0, multiplicity = 1:

       Center              X                  Y                   Z               Mass
    ------------   -----------------  -----------------  -----------------  -----------------
           H          4.228971920313    -0.101391576355     1.580948650940     1.007825032070
           C          3.566841920313    -0.518993576355     0.829321650940    12.000000000000
           C          2.256478920313     0.263516423645     0.754564650940    12.000000000000
           H          4.092063920313    -0.496762576355    -0.121401349060     1.007825032070
           H          3.391862920313    -1.560106576355     1.085663650940     1.007825032070
           C          1.295117920313    -0.292458576355    -0.290938349060    12.000000000000
           H          2.454704920313     1.305298423645     0.522643650940     1.007825032070
           H          1.772898920313     0.249717423645     1.729936650940     1.007825032070
           N          0.077770920313     0.492139423645    -0.353627349060    14.003074004780
           H          1.767891920313    -0.254612576355    -1.268699349060     1.007825032070
           H          1.099239920313    -1.349695576355    -0.082951349060     1.007825032070
           C         -1.139597079687    -0.292442576355    -0.291090349060    12.000000000000
           H          0.077736920313     1.166380423645     0.388288650940     1.007825032070
           C         -2.374865079687     0.598506423645    -0.372848349060    12.000000000000
           H         -1.137523079687    -0.980291576355    -1.132409349060     1.007825032070
           H         -1.191971079687    -0.909211576355     0.612367650940     1.007825032070
           C         -3.680261079687    -0.195157576355    -0.341148349060    12.000000000000
           H         -2.316452079687     1.187834423645    -1.282537349060     1.007825032070
           H         -2.363025079687     1.305052423645     0.455503650940     1.007825032070
           H         -3.738891079687    -0.887727576355    -1.176093349060     1.007825032070
           H         -4.540069079687     0.464430423645    -0.399663349060     1.007825032070
           H         -3.769710079687    -0.773236576355     0.574314650940     1.007825032070

  Charge       = 0
  Multiplicity = 1
  Basis Set: 6-31G*
  Basis Set:

    Orbital Energies (a.u.)
    -----------------------

    Doubly Occupied:

       1A    -15.530269     2A    -11.237716     3A    -11.236539
       4A    -11.218809     5A    -11.212602     6A    -11.212394
       7A    -11.209201     8A     -1.205151     9A     -1.060393
      10A     -1.026419    11A     -0.928605    12A     -0.867762
      13A     -0.814860    14A     -0.797331    15A     -0.654937
      16A     -0.640241    17A     -0.614158    18A     -0.610733
      19A     -0.574504    20A     -0.558337    21A     -0.542888
      22A     -0.522750    23A     -0.515777    24A     -0.486624
      25A     -0.483079    26A     -0.477508    27A     -0.469795
      28A     -0.450547    29A     -0.353945

  @DF-RHF Final Energy:  -290.37759122717387

   => Energetics <=

    Nuclear Repulsion Energy =            314.5812252577566142
    One-Electron Energy =               -1014.8901291713972341
    Two-Electron Energy =                 409.9313126864657306
    DFT Exchange-Correlation Energy =       0.0000000000000000
    Empirical Dispersion Energy =           0.0000000000000000
    PCM Polarization Energy =               0.0000000000000000
    EFP Energy =                            0.0000000000000000
    Total Energy =                       -290.3775912271748894

  Mulliken Charges: (a.u.)
   Center  Symbol    Alpha    Beta     Spin     Total
       1     H     0.41774  0.41774  0.00000  0.16452
       2     C     3.24261  3.24261  0.00000 -0.48522
       3     C     3.17066  3.17066  0.00000 -0.34131
       4     H     0.41905  0.41905  0.00000  0.16190
       5     H     0.42044  0.42044  0.00000  0.15912
       6     C     3.03782  3.03782  0.00000 -0.07565
       7     H     0.41699  0.41699  0.00000  0.16601
       8     H     0.42399  0.42399  0.00000  0.15203
       9     N     3.86048  3.86048  0.00000 -0.72096
      10     H     0.42083  0.42083  0.00000  0.15834
      11     H     0.42924  0.42924  0.00000  0.14152
      12     C     3.05089  3.05089  0.00000 -0.10179
      13     H     0.33223  0.33223  0.00000  0.33554
      14     C     3.15591  3.15591  0.00000 -0.31182
      15     H     0.42104  0.42104  0.00000  0.15793
      16     H     0.43656  0.43656  0.00000  0.12688
      17     C     3.24313  3.24313  0.00000 -0.48626
      18     H     0.41287  0.41287  0.00000  0.17427
      19     H     0.42694  0.42694  0.00000  0.14612
      20     H     0.42073  0.42073  0.00000  0.15853
      21     H     0.41787  0.41787  0.00000  0.16425
      22     H     0.42198  0.42198  0.00000  0.15604

   Total alpha = 29.00000, Total beta = 29.00000, Total charge = -0.00000
