  ==> Input File <==

--------------------------------------------------------------------------
set {
	reference rhf
	basis 6-31G*
}

set_num_threads( 4 )
memory 2 gb

molecule MOL {
0 1

H	 2.701618	 -0.985901	 -0.137871
N	 2.332695	 -0.069570	 0.000000
C	 0.936681	 -0.007078	 0.000000
H	 2.762212	 0.367712	 0.786814
C	 0.227108	 -0.002120	 -1.198267
C	 0.227108	 -0.002120	 1.198267
H	 0.761569	 -0.014657	 -2.132680
C	 -1.156334	 0.010459	 -1.192360
H	 0.761569	 -0.014657	 2.132680
C	 -1.156334	 0.010459	 1.192360
H	 -1.684791	 0.014915	 -2.129421
C	 -1.862085	 0.017996	 0.000000
H	 -1.684791	 0.014915	 2.129421
H	 -2.936703	 0.028387	 0.000000

	symmetry c1
}
set optking {
	frozen_dihedral = ("
		1 2 3 5
	")
}

ee = optimize('scf')
oeprop('DIPOLE', 'QUADRUPOLE', 'MULLIKEN_CHARGES')
f=open( 'psi4out.xyz', 'w' )
f.write( "14  " )
f.write( str(ee) + "\n" )
f.write( MOL.save_string_xyz() )
f.close()
--------------------------------------------------------------------------

    Molecular point group: c1
  Charge       = 0
  Multiplicity = 1
  Basis Set: 6-31G*
  Basis Set:
  @DF-RHF Final Energy:  -285.72489465933035
    Total Energy =                       -285.7248946593299479
    Molecular point group: c1
  Basis Set: 6-31G*
  Basis Set:
  Basis Set: 6-31G*
  Basis Set:
  @DF-RHF Final Energy:  -285.72660714081167
    Total Energy =                       -285.7266071408116659
  Basis Set: 6-31G*
  Basis Set:
  Basis Set: 6-31G*
  Basis Set:
  @DF-RHF Final Energy:  -285.72684209992201
    Total Energy =                       -285.7268420999220098
  Basis Set: 6-31G*
  Basis Set:
  Basis Set: 6-31G*
  Basis Set:
  @DF-RHF Final Energy:  -285.72685449181967
    Total Energy =                       -285.7268544918194948
  Basis Set: 6-31G*
  Basis Set:
  Charge       = 0
  Multiplicity = 1
  Basis Set: 6-31G*
  Basis Set:

    Orbital Energies (a.u.)
    -----------------------

    Doubly Occupied:

       1A    -15.553208     2A    -11.263675     3A    -11.229603
       4A    -11.228253     5A    -11.223539     6A    -11.221507
       7A    -11.219234     8A     -1.212082     9A     -1.126556
      10A     -1.010951    11A     -0.985345    12A     -0.827491
      13A     -0.807271    14A     -0.701416    15A     -0.669167
      16A     -0.647242    17A     -0.612687    18A     -0.590173
      19A     -0.581405    20A     -0.510037    21A     -0.500058
      22A     -0.488676    23A     -0.427419    24A     -0.331164
      25A     -0.308461

  @DF-RHF Final Energy:  -285.72685591086054

   => Energetics <=

    Nuclear Repulsion Energy =            272.6003263756672368
    One-Electron Energy =                -926.1011266404932485
    Two-Electron Energy =                 367.7739443539653621
    DFT Exchange-Correlation Energy =       0.0000000000000000
    Empirical Dispersion Energy =           0.0000000000000000
    PCM Polarization Energy =               0.0000000000000000
    EFP Energy =                            0.0000000000000000
    Total Energy =                       -285.7268559108606496
    Molecular point group: c1
  Basis Set: 6-31G*
  Basis Set:

  -Total Gradient:
     Atom            X                  Y                   Z
    ------   -----------------  -----------------  -----------------
       1        0.000138790912    -0.000705543705     0.003149421844
       2       -0.000183211130     0.002007133395    -0.003981426466
       3       -0.000039798528    -0.003729506003     0.000464056750
       4        0.000039083980     0.000001434547     0.000074664943
       5        0.000190129517     0.002455699886     0.000142413322
       6       -0.000148648407    -0.000028878393     0.000140398064
       7       -0.000001875402     0.000003628153    -0.000023397565
       8       -0.000167258304    -0.000058103522     0.000139426286
       9        0.000000663229     0.000014441432    -0.000007390437
      10        0.000193681354    -0.000010621331     0.000083863809
      11        0.000023188818     0.000013034073     0.000005379366
      12       -0.000016165075     0.000043087737    -0.000205814500
      13       -0.000023739982    -0.000002803786    -0.000013634590
      14       -0.000004840981    -0.000003002484     0.000032039173

  **** Optimization is complete! (in 5 steps) ****
    Final optimized geometry and variables:
    Molecular point group: c1

    Geometry (in Angstrom), charge = 0, multiplicity = 1:

    H            2.724496950401    -0.917026121762    -0.226714039193
    N            2.351192296918    -0.006460204787    -0.037400120239
    C            0.930298652686    -0.021778248890     0.003086966408
    H            2.734534229025     0.292178671244     0.837419133959
    C            0.227901248117    -0.006631685557    -1.196661840620
    C            0.221642274185     0.006881303430     1.197145362039
    H            0.777817087121     0.005868072143    -2.120306517054
    C           -1.155412728501     0.001925375028    -1.198537566447
    H            0.754066184028     0.003390096283     2.133172850358
    C           -1.164380225199     0.039711675374     1.191927993081
    H           -1.684531579253     0.006513428896    -2.135070041632
    C           -1.860271095761     0.029017120628    -0.004263265752
    H           -1.697683712035     0.065737723645     2.125751621777
    H           -2.935226345199     0.048169088743    -0.007654791736

  Mulliken Charges: (a.u.)
   Center  Symbol    Alpha    Beta     Spin     Total
       1     H     0.32241  0.32241  0.00000  0.35519
       2     N     3.93790  3.93790  0.00000 -0.87580
       3     C     2.88677  2.88677  0.00000  0.22646
       4     H     0.32551  0.32551  0.00000  0.34898
       5     C     3.10656  3.10656  0.00000 -0.21311
       6     C     3.11999  3.11999  0.00000 -0.23997
       7     H     0.39591  0.39591  0.00000  0.20818
       8     C     3.09619  3.09619  0.00000 -0.19237
       9     H     0.40438  0.40438  0.00000  0.19123
      10     C     3.09560  3.09560  0.00000 -0.19120
      11     H     0.39999  0.39999  0.00000  0.20002
      12     C     3.10736  3.10736  0.00000 -0.21473
      13     H     0.40026  0.40026  0.00000  0.19949
      14     H     0.40118  0.40118  0.00000  0.19764

   Total alpha = 25.00000, Total beta = 25.00000, Total charge =  0.00000
