                              Psi4 1.0.54 Driver

  ==> Input File <==

--------------------------------------------------------------------------
set {
	reference rhf
	basis cc-pvtz
}

set_num_threads( 4 )
memory 2 gb

molecule MOL {
0 1

H	 5.242432	 -0.082955	 1.064467
C	 4.638513	 -0.404995	 0.223968
C	 3.153185	 -0.371538	 0.567485
H	 4.858702	 0.250156	 -0.611801
H	 4.956883	 -1.406296	 -0.047759
C	 2.270674	 -0.829964	 -0.591389
H	 2.875659	 0.635559	 0.856749
H	 2.969959	 -1.007596	 1.430435
C	 0.778655	 -0.812925	 -0.274408
H	 2.454535	 -0.204617	 -1.456239
H	 2.548442	 -1.842732	 -0.868751
C	 0.166485	 0.574257	 -0.177158
H	 0.229671	 -1.331013	 -1.056691
H	 0.569455	 -1.357723	 0.641533
C	 -1.180025	 0.697761	 0.509157
O	 0.706186	 1.528292	 -0.637393
C	 -2.285431	 -0.137488	 -0.145671
H	 -1.447360	 1.745713	 0.496200
H	 -1.065514	 0.394096	 1.546399
C	 -3.646545	 0.082747	 0.508954
H	 -2.348635	 0.118247	 -1.199806
H	 -2.034895	 -1.192387	 -0.096473
C	 -4.757412	 -0.737227	 -0.138149
H	 -3.900211	 1.137405	 0.459735
H	 -3.580878	 -0.166775	 1.564416
H	 -4.867876	 -0.486707	 -1.187777
H	 -4.549650	 -1.800049	 -0.072540
H	 -5.709585	 -0.556397	 0.346597

	symmetry c1
}
set optking {
	frozen_dihedral = ("
		16 12 15 17
	")
}

ee,wfn = optimize('scf', return_wfn=True)
oeprop( wfn, 'DIPOLE', 'QUADRUPOLE', 'MULLIKEN_CHARGES')
f=open( 'psi4out.xyz', 'w' )
f.write( "28  " )
f.write( str(ee) + "\n" )
f.write( MOL.save_string_xyz() )
f.close()
--------------------------------------------------------------------------

    Molecular point group: c1
  Charge       = 0
  Multiplicity = 1
  Basis Set: CC-PVTZ
  Basis Set:
  @DF-RHF Final Energy:  -426.31986027666130
    Total Energy =                       -426.3198602766615295
    Molecular point group: c1
  Basis Set: CC-PVTZ
  Basis Set:
  Basis Set: CC-PVTZ
  Basis Set:
  @DF-RHF Final Energy:  -426.31954639733306
    Total Energy =                       -426.3195463973327151
  Basis Set: CC-PVTZ
  Basis Set:
  Basis Set: CC-PVTZ
  Basis Set:
  @DF-RHF Final Energy:  -426.31987520876646
    Total Energy =                       -426.3198752087663479
  Basis Set: CC-PVTZ
  Basis Set:
  Basis Set: CC-PVTZ
  Basis Set:
  @DF-RHF Final Energy:  -426.31986962739541
    Total Energy =                       -426.3198696273955193
  Basis Set: CC-PVTZ
  Basis Set:
  Basis Set: CC-PVTZ
  Basis Set:
  @DF-RHF Final Energy:  -426.31987952818190
    Total Energy =                       -426.3198795281819002
  Basis Set: CC-PVTZ
  Basis Set:
  Charge       = 0
  Multiplicity = 1
  Basis Set: CC-PVTZ
  Basis Set:

    Orbital Energies (a.u.)
    -----------------------

    Doubly Occupied:

       1A    -20.536532     2A    -11.316610     3A    -11.229756
       4A    -11.228323     5A    -11.227002     6A    -11.223885
       7A    -11.214680     8A    -11.214356     9A    -11.210977
      10A    -11.204060    11A     -1.396505    12A     -1.096443
      13A     -1.078893    14A     -1.023708    15A     -0.991803
      16A     -0.908061    17A     -0.874386    18A     -0.809497
      19A     -0.800543    20A     -0.724117    21A     -0.670430
      22A     -0.654724    23A     -0.629986    24A     -0.621426
      25A     -0.611304    26A     -0.588783    27A     -0.578125
      28A     -0.576279    29A     -0.543321    30A     -0.533471
      31A     -0.521762    32A     -0.507601    33A     -0.500489
      34A     -0.485756    35A     -0.479633    36A     -0.476445
      37A     -0.472832    38A     -0.466143    39A     -0.457066
      40A     -0.394254

  @DF-RHF Final Energy:  -426.31988029955505

   => Energetics <=

    Nuclear Repulsion Energy =            532.0774691365170384
    One-Electron Energy =               -1632.6347594449698590
    Two-Electron Energy =                 674.2374100088979958
    DFT Exchange-Correlation Energy =       0.0000000000000000
    Empirical Dispersion Energy =           0.0000000000000000
    PCM Polarization Energy =               0.0000000000000000
    EFP Energy =                            0.0000000000000000
    Total Energy =                       -426.3198802995548249
    Molecular point group: c1
  Basis Set: CC-PVTZ
  Basis Set:

  -Total Gradient:
     Atom            X                  Y                   Z
    ------   -----------------  -----------------  -----------------
       1        0.000000360526    -0.000001819146    -0.000003475953
       2        0.000003958258     0.000003115834     0.000003397668
       3        0.000003517992    -0.000002819879    -0.000002192617
       4       -0.000001072522    -0.000003289721     0.000003346657
       5       -0.000002102717     0.000005259875     0.000001381476
       6        0.000007620998    -0.000010014726    -0.000002856872
       7        0.000002540434     0.000000016552     0.000003706811
       8        0.000001190026     0.000003887876    -0.000004351919
       9       -0.000015019445    -0.000012091639     0.000005187422
      10       -0.000004751010    -0.000005099074     0.000006788892
      11        0.000000029685     0.000003064746    -0.000000444918
      12       -0.000145837075    -0.000083047956    -0.000236327073
      13        0.000000783468     0.000007189549     0.000002168558
      14        0.000006614489    -0.000002242076    -0.000007866364
      15        0.000014324931     0.000183610139    -0.000030239515
      16        0.000092132543     0.000035297927     0.000191344104
      17        0.000031254895    -0.000114963212     0.000085682069
      18        0.000000373976    -0.000016782886    -0.000013354012
      19       -0.000006508520     0.000003235918     0.000004820761
      20        0.000007169582     0.000020889877    -0.000015275308
      21       -0.000008440637    -0.000004065518     0.000032910308
      22       -0.000010667454     0.000021193627    -0.000004194850
      23       -0.000011379555    -0.000025038271    -0.000000505754
      24        0.000016968468    -0.000019422955    -0.000001083716
      25        0.000009430827     0.000009815918    -0.000028682243
      26        0.000001574903    -0.000002659476     0.000027685414
      27       -0.000011114261     0.000018691225    -0.000007177372
      28        0.000017047187    -0.000011912533    -0.000010391653

  **** Optimization is complete! (in 6 steps) ****
    Final optimized geometry and variables:
    Molecular point group: c1

    Geometry (in Angstrom), charge = 0, multiplicity = 1:

    H            5.254117829053    -0.022478231079     1.078812290269
    C            4.652646583510    -0.360175665851     0.242731342680
    C            3.166455080442    -0.322083203866     0.581846537099
    H            4.874254486158     0.280075658228    -0.604112862367
    H            4.972626223677    -1.365870471105    -0.010159500860
    C            2.287315579535    -0.802302440134    -0.570745102662
    H            2.887246741496     0.689827659676     0.852091423839
    H            2.981722778336    -0.942573345009     1.455717081190
    C            0.794394415188    -0.781269761899    -0.257926144885
    H            2.472684292113    -0.192571805021    -1.446293822598
    H            2.566899745534    -1.819610410398    -0.828922179642
    C            0.180998141093     0.606792622383    -0.185533694254
    H            0.247640041074    -1.312980709743    -1.032537842723
    H            0.583493004624    -1.310710023716     0.666632302042
    C           -1.160862533771     0.744181163296     0.507025882899
    O            0.720364984482     1.552826390829    -0.662297035244
    C           -2.280525962181    -0.092104201770    -0.120309728778
    H           -1.420698920322     1.793872336944     0.488528121350
    H           -1.032884984375     0.451614751060     1.546381517528
    C           -3.630116281198     0.146102922507     0.551481773552
    H           -2.358815635824     0.149712082450    -1.176803019736
    H           -2.036637265113    -1.147850830796    -0.061087288940
    C           -4.754889228393    -0.679176149859    -0.063970162878
    H           -3.879542459906     1.201006012353     0.488526275234
    H           -3.548872691188    -0.085922872912     1.609798174874
    H           -4.882061818985    -0.444542631274    -1.115343033187
    H           -4.550235797140    -1.741675457795     0.014705274577
    H           -5.698014050190    -0.486873871914     0.433778370931

  Mulliken Charges: (a.u.)
   Center  Symbol    Alpha    Beta     Spin     Total
       1     H     0.44865  0.44865  0.00000  0.10270
       2     C     3.15198  3.15198  0.00000 -0.30397
       3     C     3.08446  3.08446  0.00000 -0.16892
       4     H     0.45176  0.45176  0.00000  0.09648
       5     H     0.45682  0.45682  0.00000  0.08637
       6     C     3.08736  3.08736  0.00000 -0.17473
       7     H     0.44596  0.44596  0.00000  0.10808
       8     H     0.45857  0.45857  0.00000  0.08286
       9     C     3.13058  3.13058  0.00000 -0.26115
      10     H     0.44411  0.44411  0.00000  0.11177
      11     H     0.44773  0.44773  0.00000  0.10454
      12     C     2.86411  2.86411  0.00000  0.27178
      13     H     0.43398  0.43398  0.00000  0.13205
      14     H     0.44282  0.44282  0.00000  0.11436
      15     C     3.09280  3.09280  0.00000 -0.18560
      16     O     4.17806  4.17806  0.00000 -0.35611
      17     C     3.10150  3.10150  0.00000 -0.20300
      18     H     0.43787  0.43787  0.00000  0.12425
      19     H     0.44955  0.44955  0.00000  0.10090
      20     C     3.08733  3.08733  0.00000 -0.17465
      21     H     0.44609  0.44609  0.00000  0.10781
      22     H     0.45003  0.45003  0.00000  0.09995
      23     C     3.14917  3.14917  0.00000 -0.29833
      24     H     0.44967  0.44967  0.00000  0.10065
      25     H     0.45359  0.45359  0.00000  0.09282
      26     H     0.45352  0.45352  0.00000  0.09297
      27     H     0.45520  0.45520  0.00000  0.08961
      28     H     0.44674  0.44674  0.00000  0.10652

   Total alpha = 40.00000, Total beta = 40.00000, Total charge = -0.00000

*** Psi4 exiting successfully. Buy a developer a beer!
