  ==> Input File <==

--------------------------------------------------------------------------
set {
	reference rhf
	basis 6-31G*
}

set_num_threads( 1 )
memory 2 gb

molecule MOL {
0 1

H	 -2.566327	 1.876806	 -1.104072
C	 -1.823583	 1.260033	 -0.636544
C	 -2.076860	 -0.007332	 -0.404944
H	 -0.882969	 1.703088	 -0.368482
O	 -1.180634	 -0.819263	 0.215062
H	 -3.009613	 -0.471835	 -0.672159
C	 0.051604	 -1.018856	 -0.387932
C	 1.043764	 0.054862	 -0.001873
H	 -0.017620	 -1.041351	 -1.469781
H	 0.437898	 -1.966374	 -0.042284
F	 2.212596	 -0.199467	 -0.571921
F	 0.652529	 1.252447	 -0.405055
F	 1.230877	 0.110694	 1.300533

	symmetry c1
}
set optking {
	frozen_dihedral = ("
		11 8 7 9,
		3 5 7 9,
		6 3 2 1
	")
}

ee = energy('scf')
oeprop('DIPOLE', 'QUADRUPOLE', 'MULLIKEN_CHARGES')
f=open( 'psi4out.xyz', 'w' )
f.write( "13  " )
f.write( str(ee) + "\n" )
f.write( MOL.save_string_xyz() )
f.close()
--------------------------------------------------------------------------

    Molecular point group: c1

    Geometry (in Angstrom), charge = 0, multiplicity = 1:

       Center              X                  Y                   Z               Mass
    ------------   -----------------  -----------------  -----------------  -----------------
           H         -2.718566057025     1.777071142348    -1.014617022094     1.007825032070
           C         -1.975822057025     1.160298142348    -0.547089022094    12.000000000000
           C         -2.229099057025    -0.107066857652    -0.315489022094    12.000000000000
           H         -1.035208057025     1.603353142348    -0.279027022094     1.007825032070
           O         -1.332873057025    -0.918997857652     0.304516977906    15.994914619560
           H         -3.161852057025    -0.571569857652    -0.582704022094     1.007825032070
           C         -0.100635057025    -1.118590857652    -0.298477022094    12.000000000000
           C          0.891524942975    -0.044872857652     0.087581977906    12.000000000000
           H         -0.169859057025    -1.141085857652    -1.380326022094     1.007825032070
           H          0.285658942975    -2.066108857652     0.047170977906     1.007825032070
           F          2.060356942975    -0.299201857652    -0.482466022094    18.998403224000
           F          0.500289942975     1.152712142348    -0.315600022094    18.998403224000
           F          1.078637942975     0.010959142348     1.389987977906    18.998403224000

  Charge       = 0
  Multiplicity = 1
  Basis Set: 6-31G*
  Basis Set:

    Orbital Energies (a.u.)
    -----------------------

    Doubly Occupied:

       1A    -26.351573     2A    -26.346407     3A    -26.343296
       4A    -20.595925     5A    -11.505676     6A    -11.314764
       7A    -11.286652     8A    -11.207122     9A     -1.748295
      10A     -1.650490    11A     -1.641106    12A     -1.429710
      13A     -1.078225    14A     -1.015778    15A     -0.941429
      16A     -0.844076    17A     -0.837749    18A     -0.813879
      19A     -0.784614    20A     -0.733637    21A     -0.717472
      22A     -0.695620    23A     -0.677015    24A     -0.667145
      25A     -0.654491    26A     -0.645614    27A     -0.640267
      28A     -0.596548    29A     -0.541793    30A     -0.515285
      31A     -0.470382    32A     -0.362046

  @DF-RHF Final Energy:  -527.50671502418641

   => Energetics <=

    Nuclear Repulsion Energy =            426.7549082363728985
    One-Electron Energy =               -1577.2152501544946972
    Two-Electron Energy =                 622.9536268939350521
    DFT Exchange-Correlation Energy =       0.0000000000000000
    Empirical Dispersion Energy =           0.0000000000000000
    PCM Polarization Energy =               0.0000000000000000
    EFP Energy =                            0.0000000000000000
    Total Energy =                       -527.5067150241866329

  Mulliken Charges: (a.u.)
   Center  Symbol    Alpha    Beta     Spin     Total
       1     H     0.41153  0.41153  0.00000  0.17694
       2     C     3.23876  3.23876  0.00000 -0.47752
       3     C     2.92412  2.92412  0.00000  0.15177
       4     H     0.37066  0.37066  0.00000  0.25868
       5     O     4.30744  4.30744  0.00000 -0.61487
       6     H     0.40381  0.40381  0.00000  0.19237
       7     C     3.05415  3.05415  0.00000 -0.10831
       8     C     2.45617  2.45617  0.00000  1.08765
       9     H     0.40430  0.40430  0.00000  0.19140
      10     H     0.39371  0.39371  0.00000  0.21259
      11     F     4.68214  4.68214  0.00000 -0.36428
      12     F     4.67862  4.67862  0.00000 -0.35725
      13     F     4.67458  4.67458  0.00000 -0.34917

   Total alpha = 32.00000, Total beta = 32.00000, Total charge =  0.00000
