  ==> Input File <==

--------------------------------------------------------------------------
set {
	reference rhf
	basis 6-31G*
}

set_num_threads( 1 )
memory 2 gb

molecule MOL {
0 1

H	 -3.439213	 -0.768750	 -0.392761
O	 -2.609848	 -0.419713	 -0.686193
C	 -2.026376	 0.340750	 0.341611
C	 -0.673256	 0.843270	 -0.132153
H	 -2.663217	 1.186068	 0.596185
H	 -1.905194	 -0.261650	 1.241101
C	 0.486613	 -0.083066	 0.235839
H	 -0.715586	 0.970948	 -1.210718
H	 -0.508072	 1.829858	 0.297090
C	 1.840406	 0.433480	 -0.254303
H	 0.300215	 -1.068318	 -0.178947
H	 0.519509	 -0.203625	 1.318070
C	 3.000220	 -0.489290	 0.118523
H	 1.809207	 0.553576	 -1.335192
H	 2.021860	 1.424500	 0.157276
H	 2.864959	 -1.479103	 -0.307933
H	 3.946603	 -0.099227	 -0.243630
H	 3.080049	 -0.602997	 1.196117

	symmetry c1
}
set optking {
	frozen_dihedral = ("
		14 10 7 11,
		10 7 4 8,
		1 2 3 4
	")
}

ee = energy('scf')
oeprop('DIPOLE', 'QUADRUPOLE', 'MULLIKEN_CHARGES')
f=open( 'psi4out.xyz', 'w' )
f.write( "18  " )
f.write( str(ee) + "\n" )
f.write( MOL.save_string_xyz() )
f.close()
--------------------------------------------------------------------------

    Molecular point group: c1

    Geometry (in Angstrom), charge = 0, multiplicity = 1:

       Center              X                  Y                   Z               Mass
    ------------   -----------------  -----------------  -----------------  -----------------
           H         -3.384037638117    -0.851862997529    -0.323332865884     1.007825032070
           O         -2.554672638117    -0.502825997529    -0.616764865884    15.994914619560
           C         -1.971200638117     0.257637002471     0.411039134116    12.000000000000
           C         -0.618080638117     0.760157002471    -0.062724865884    12.000000000000
           H         -2.608041638117     1.102955002471     0.665613134116     1.007825032070
           H         -1.850018638117    -0.344762997529     1.310529134116     1.007825032070
           C          0.541788361883    -0.166178997529     0.305267134116    12.000000000000
           H         -0.660410638117     0.887835002471    -1.141289865884     1.007825032070
           H         -0.452896638117     1.746745002471     0.366518134116     1.007825032070
           C          1.895581361883     0.350367002471    -0.184874865884    12.000000000000
           H          0.355390361883    -1.151430997529    -0.109518865884     1.007825032070
           H          0.574684361883    -0.286737997529     1.387498134116     1.007825032070
           C          3.055395361883    -0.572402997529     0.187951134116    12.000000000000
           H          1.864382361883     0.470463002471    -1.265763865884     1.007825032070
           H          2.077035361883     1.341387002471     0.226704134116     1.007825032070
           H          2.920134361883    -1.562215997529    -0.238504865884     1.007825032070
           H          4.001778361883    -0.182339997529    -0.174201865884     1.007825032070
           H          3.135224361883    -0.686109997529     1.265545134116     1.007825032070

  Charge       = 0
  Multiplicity = 1
  Basis Set: 6-31G*
  Basis Set:

    Orbital Energies (a.u.)
    -----------------------

    Doubly Occupied:

       1A    -20.551871     2A    -11.266809     3A    -11.212663
       4A    -11.210904     5A    -11.210312     6A    -11.206288
       7A     -1.358567     8A     -1.077208     9A     -1.009604
      10A     -0.913229    11A     -0.818341    12A     -0.788053
      13A     -0.704425    14A     -0.635017    15A     -0.633197
      16A     -0.579045    17A     -0.571119    18A     -0.560431
      19A     -0.524373    20A     -0.498361    21A     -0.489058
      22A     -0.469174    23A     -0.462035    24A     -0.451662
      25A     -0.425441

  @DF-RHF Final Energy:  -271.17657875435600

   => Energetics <=

    Nuclear Repulsion Energy =            247.4611393749436559
    One-Electron Energy =                -858.0211314685329853
    Two-Electron Energy =                 339.3834133392330727
    DFT Exchange-Correlation Energy =       0.0000000000000000
    Empirical Dispersion Energy =           0.0000000000000000
    PCM Polarization Energy =               0.0000000000000000
    EFP Energy =                            0.0000000000000000
    Total Energy =                       -271.1765787543562851

  Mulliken Charges: (a.u.)
   Center  Symbol    Alpha    Beta     Spin     Total
       1     H     0.28150  0.28150  0.00000  0.43700
       2     O     4.37057  4.37057  0.00000 -0.74114
       3     C     2.99635  2.99635  0.00000  0.00730
       4     C     3.16155  3.16155  0.00000 -0.32310
       5     H     0.43019  0.43019  0.00000  0.13962
       6     H     0.43147  0.43147  0.00000  0.13707
       7     C     3.15538  3.15538  0.00000 -0.31076
       8     H     0.40760  0.40760  0.00000  0.18479
       9     H     0.42352  0.42352  0.00000  0.15295
      10     C     3.15218  3.15218  0.00000 -0.30436
      11     H     0.41493  0.41493  0.00000  0.17014
      12     H     0.42653  0.42653  0.00000  0.14694
      13     C     3.23917  3.23917  0.00000 -0.47834
      14     H     0.42145  0.42145  0.00000  0.15709
      15     H     0.42410  0.42410  0.00000  0.15180
      16     H     0.42109  0.42109  0.00000  0.15782
      17     H     0.41975  0.41975  0.00000  0.16050
      18     H     0.42267  0.42267  0.00000  0.15467

   Total alpha = 25.00000, Total beta = 25.00000, Total charge = -0.00000
