  ==> Input File <==

--------------------------------------------------------------------------
set {
	reference rhf
	basis 6-31G*
}

set_num_threads( 4 )
memory 2 gb

molecule MOL {
0 1

H	 -3.420663	 1.227371	 -1.044276
O	 -3.452007	 0.283848	 -0.965577
C	 -3.181085	 -0.079926	 0.364119
C	 -1.765924	 0.277073	 0.805136
H	 -3.327791	 -1.152017	 0.410903
H	 -3.905698	 0.375695	 1.036898
C	 -0.677594	 -0.417312	 -0.014550
H	 -1.637766	 1.358238	 0.744969
H	 -1.659588	 0.017670	 1.857098
C	 0.738335	 -0.034840	 0.421385
H	 -0.814977	 -0.178223	 -1.064632
H	 -0.802730	 -1.495410	 0.071702
C	 0.830719	 1.401488	 0.943414
H	 1.072649	 -0.730688	 1.187184
H	 1.420854	 -0.154816	 -0.419077
C	 2.246580	 1.861182	 1.309712
H	 0.182580	 1.510959	 1.811531
H	 0.435580	 2.073500	 0.184414
C	 2.867547	 1.123077	 2.497149
H	 2.215109	 2.923744	 1.538320
H	 2.894231	 1.757544	 0.441375
H	 2.234889	 1.198930	 3.377564
H	 3.835535	 1.544965	 2.749829
H	 3.017594	 0.069210	 2.287356

	symmetry c1
}
set optking {
	frozen_dihedral = ("
		13 10 7 11
	")
}

ee = optimize('scf')
oeprop('DIPOLE', 'QUADRUPOLE', 'MULLIKEN_CHARGES')
f=open( 'psi4out.xyz', 'w' )
f.write( "24  " )
f.write( str(ee) + "\n" )
f.write( MOL.save_string_xyz() )
f.close()
--------------------------------------------------------------------------

    Molecular point group: c1
  Charge       = 0
  Multiplicity = 1
  Basis Set: 6-31G*
  Basis Set:
  @DF-RHF Final Energy:  -349.23913245325656
    Total Energy =                       -349.2391324532566728
    Molecular point group: c1
  Basis Set: 6-31G*
  Basis Set:
  Basis Set: 6-31G*
  Basis Set:
  @DF-RHF Final Energy:  -349.23989925257291
    Total Energy =                       -349.2398992525731387
  Basis Set: 6-31G*
  Basis Set:
  Basis Set: 6-31G*
  Basis Set:
  @DF-RHF Final Energy:  -349.24192056901688
    Total Energy =                       -349.2419205690168837
  Basis Set: 6-31G*
  Basis Set:
  Basis Set: 6-31G*
  Basis Set:
  @DF-RHF Final Energy:  -349.24213977684553
    Total Energy =                       -349.2421397768455336
  Basis Set: 6-31G*
  Basis Set:
  Basis Set: 6-31G*
  Basis Set:
  @DF-RHF Final Energy:  -349.24215100563652
    Total Energy =                       -349.2421510056365150
  Basis Set: 6-31G*
  Basis Set:
  Basis Set: 6-31G*
  Basis Set:
  @DF-RHF Final Energy:  -349.24216502452856
    Total Energy =                       -349.2421650245285036
  Basis Set: 6-31G*
  Basis Set:
  Basis Set: 6-31G*
  Basis Set:
  @DF-RHF Final Energy:  -349.24216734078141
    Total Energy =                       -349.2421673407815206
  Basis Set: 6-31G*
  Basis Set:
  Charge       = 0
  Multiplicity = 1
  Basis Set: 6-31G*
  Basis Set:

    Orbital Energies (a.u.)
    -----------------------

    Doubly Occupied:

       1A    -20.553410     2A    -11.267641     3A    -11.217505
       4A    -11.215173     5A    -11.213418     6A    -11.212682
       7A    -11.211572     8A    -11.208062     9A     -1.360049
      10A     -1.088176    11A     -1.046860    12A     -0.983725
      13A     -0.917033    14A     -0.855175    15A     -0.810809
      16A     -0.762852    17A     -0.676675    18A     -0.651616
      19A     -0.627323    20A     -0.619918    21A     -0.599068
      22A     -0.578111    23A     -0.566544    24A     -0.538279
      25A     -0.523922    26A     -0.510118    27A     -0.494572
      28A     -0.481764    29A     -0.474077    30A     -0.455636
      31A     -0.446971    32A     -0.438753    33A     -0.424160

  @DF-RHF Final Energy:  -349.24216693564483

   => Energetics <=

    Nuclear Repulsion Energy =            389.4391873926613243
    One-Electron Energy =               -1245.2994157795851606
    Two-Electron Energy =                 506.6180614512790044
    DFT Exchange-Correlation Energy =       0.0000000000000000
    Empirical Dispersion Energy =           0.0000000000000000
    PCM Polarization Energy =               0.0000000000000000
    EFP Energy =                            0.0000000000000000
    Total Energy =                       -349.2421669356448319
    Molecular point group: c1
  Basis Set: 6-31G*
  Basis Set:

  -Total Gradient:
     Atom            X                  Y                   Z
    ------   -----------------  -----------------  -----------------
       1        0.000001399423    -0.000003366616     0.000007224245
       2       -0.000004478115    -0.000012635549    -0.000005257895
       3       -0.000002282863     0.000013660083     0.000004292051
       4       -0.000003435267     0.000017122988    -0.000023406140
       5       -0.000000012452     0.000002162595    -0.000014660910
       6        0.000000174102    -0.000008238223     0.000009589624
       7       -0.002818211652     0.006456323412     0.003434344853
       8       -0.000019205933    -0.000021293059    -0.000021737009
       9        0.000011775575     0.000010178839     0.000013294673
      10        0.002035452261     0.000562146838    -0.006254802308
      11        0.001892557147    -0.005648911647    -0.001317099546
      12       -0.000011235572     0.000002957187     0.000022599098
      13       -0.001087615465    -0.001345295049     0.004151754588
      14        0.000034388966    -0.000019450055     0.000010241283
      15        0.000007441686     0.000015329894     0.000000602564
      16       -0.000013971880     0.000008830096     0.000017280631
      17        0.000017705530     0.000011051334     0.000007273709
      18       -0.000016061659    -0.000017632707    -0.000018423290
      19       -0.000012289169    -0.000005310578    -0.000019843001
      20       -0.000001735905     0.000001740621     0.000011346578
      21       -0.000000072324     0.000015429963     0.000005241653
      22        0.000004184614     0.000005965607    -0.000008610532
      23        0.000005951939    -0.000005383903    -0.000005304052
      24       -0.000020422986    -0.000035382071    -0.000005940860

  **** Optimization is complete! (in 8 steps) ****
    Final optimized geometry and variables:
    Molecular point group: c1

    Geometry (in Angstrom), charge = 0, multiplicity = 1:

    H           -3.187203041344     0.503448019084    -1.797694548845
    O           -3.143504670177    -0.436203327768    -1.685865141865
    C           -2.884817578148    -0.731309479867    -0.336975940759
    C           -1.523524670486    -0.230971491704     0.134987926611
    H           -2.935607563548    -1.810143333175    -0.257870154495
    H           -3.669346729437    -0.322473894106     0.297652251795
    C           -0.361613403553    -0.851502075684    -0.641366925986
    H           -1.502989995615     0.853973343850     0.053931220208
    H           -1.427368774089    -0.459410391635     1.195317781701
    C            1.057053112188    -0.493605274412    -0.153767356226
    H           -0.456195044035    -0.635776272409    -1.700715373047
    H           -0.462756203897    -1.934046276109    -0.581306770709
    C            1.246287827127     0.939804374088     0.355653377488
    H            1.326587880764    -1.178228763938     0.646435469254
    H            1.759374983551    -0.685111122199    -0.961392189705
    C            2.702827711848     1.305086549617     0.667361721176
    H            0.645506132612     1.096109011614     1.247930701595
    H            0.872681311695     1.639139868357    -0.390641020632
    C            3.325505128416     0.513753908019     1.819248830102
    H            2.747188471404     2.364328221708     0.909170908105
    H            3.306191419746     1.173339334747    -0.228433225939
    H            2.733475827633     0.612161958072     2.725427036035
    H            4.325261572954     0.875961014899     2.038475935835
    H            3.406132489984    -0.543441319786     1.589829868225

  Mulliken Charges: (a.u.)
   Center  Symbol    Alpha    Beta     Spin     Total
       1     H     0.28338  0.28338  0.00000  0.43324
       2     O     4.36820  4.36820  0.00000 -0.73641
       3     C     2.99634  2.99634  0.00000  0.00732
       4     C     3.17200  3.17200  0.00000 -0.34401
       5     H     0.41635  0.41635  0.00000  0.16730
       6     H     0.42806  0.42806  0.00000  0.14387
       7     C     3.15410  3.15410  0.00000 -0.30820
       8     H     0.42506  0.42506  0.00000  0.14989
       9     H     0.42235  0.42235  0.00000  0.15530
      10     C     3.15451  3.15451  0.00000 -0.30901
      11     H     0.41190  0.41190  0.00000  0.17620
      12     H     0.42240  0.42240  0.00000  0.15521
      13     C     3.15571  3.15571  0.00000 -0.31141
      14     H     0.42222  0.42222  0.00000  0.15556
      15     H     0.42090  0.42090  0.00000  0.15821
      16     C     3.15183  3.15183  0.00000 -0.30367
      17     H     0.42295  0.42295  0.00000  0.15410
      18     H     0.42397  0.42397  0.00000  0.15206
      19     C     3.24144  3.24144  0.00000 -0.48288
      20     H     0.42164  0.42164  0.00000  0.15672
      21     H     0.42310  0.42310  0.00000  0.15379
      22     H     0.42295  0.42295  0.00000  0.15411
      23     H     0.41931  0.41931  0.00000  0.16137
      24     H     0.41932  0.41932  0.00000  0.16136

   Total alpha = 33.00000, Total beta = 33.00000, Total charge =  0.00000
