  ==> Input File <==

--------------------------------------------------------------------------
set {
	reference rhf
	basis cc-pvtz
}

set_num_threads( 4 )
memory 2 gb

molecule MOL {
0 1

H	 -3.162190	 0.493205	 -0.000107
C	 -2.363908	 -0.234727	 0.000005
O	 -1.158738	 0.454634	 -0.000087
H	 -2.464314	 -0.863616	 -0.882153
H	 -2.464327	 -0.863359	 0.882345
C	 -0.966687	 1.280437	 1.105120
C	 0.376795	 1.971066	 0.984787
H	 -1.006112	 0.692555	 2.022441
H	 -1.765591	 2.020102	 1.162482
C	 0.662970	 2.897119	 2.161596
H	 1.149045	 1.213548	 0.909140
H	 0.395576	 2.530575	 0.056052
H	 0.672887	 2.352571	 3.099923
H	 1.627685	 3.376609	 2.050093
H	 -0.085437	 3.678565	 2.240955

	symmetry c1
}
set optking {
	frozen_dihedral = ("
		6 3 2 4
	")
}

ee = optimize('scf')
oeprop('DIPOLE', 'QUADRUPOLE', 'MULLIKEN_CHARGES')
f=open( 'psi4out.xyz', 'w' )
f.write( "15  " )
f.write( str(ee) + "\n" )
f.write( MOL.save_string_xyz() )
f.close()
--------------------------------------------------------------------------

    Molecular point group: c1
  Charge       = 0
  Multiplicity = 1
  Basis Set: CC-PVTZ
  Basis Set:
  @DF-RHF Final Energy:  -232.22718519513899
    Total Energy =                       -232.2271851951388726
    Molecular point group: c1
  Basis Set: CC-PVTZ
  Basis Set:
  Basis Set: CC-PVTZ
  Basis Set:
  @DF-RHF Final Energy:  -232.22800565132610
    Total Energy =                       -232.2280056513260433
  Basis Set: CC-PVTZ
  Basis Set:
  Basis Set: CC-PVTZ
  Basis Set:
  @DF-RHF Final Energy:  -232.22822247822418
    Total Energy =                       -232.2282224782242110
  Basis Set: CC-PVTZ
  Basis Set:
  Charge       = 0
  Multiplicity = 1
  Basis Set: CC-PVTZ
  Basis Set:

    Orbital Energies (a.u.)
    -----------------------

    Doubly Occupied:

       1A    -20.547595     2A    -11.264410     3A    -11.261790
       4A    -11.212785     5A    -11.210735     6A     -1.381986
       7A     -1.058494     8A     -0.956169     9A     -0.877340
      10A     -0.809581    11A     -0.677282    12A     -0.655992
      13A     -0.632355    14A     -0.608542    15A     -0.565251
      16A     -0.540882    17A     -0.503765    18A     -0.490399
      19A     -0.478379    20A     -0.462961    21A     -0.416848

  @DF-RHF Final Energy:  -232.22822334773653

   => Energetics <=

    Nuclear Repulsion Energy =            190.0186514152637471
    One-Electron Energy =                -691.2666679148967432
    Two-Electron Energy =                 269.0197931518964651
    DFT Exchange-Correlation Energy =       0.0000000000000000
    Empirical Dispersion Energy =           0.0000000000000000
    PCM Polarization Energy =               0.0000000000000000
    EFP Energy =                            0.0000000000000000
    Total Energy =                       -232.2282233477365025
    Molecular point group: c1
  Basis Set: CC-PVTZ
  Basis Set:

  -Total Gradient:
     Atom            X                  Y                   Z
    ------   -----------------  -----------------  -----------------
       1        0.000035786236     0.000026299551    -0.000000650100
       2       -0.000051929947     0.000021549769     0.000066553383
       3        0.000033709864     0.000027387569    -0.000043977281
       4        0.000058841806     0.000028193794    -0.000009960456
       5        0.000045026223     0.000021792149     0.000006811678
       6       -0.000081030726    -0.000042175156     0.000123465498
       7        0.000010262085    -0.000037754926    -0.000083605082
       8       -0.000004601440    -0.000005406088     0.000013754667
       9       -0.000001346889    -0.000009170929    -0.000034646995
      10       -0.000063930678    -0.000027245113    -0.000003775841
      11        0.000008632430    -0.000004116929    -0.000004050348
      12        0.000021569673     0.000016421409    -0.000011412346
      13        0.000000743782    -0.000002538041     0.000001338989
      14       -0.000009821730    -0.000020655143    -0.000025620982
      15       -0.000001910691     0.000007418084     0.000005775218

  **** Optimization is complete! (in 4 steps) ****
    Final optimized geometry and variables:
    Molecular point group: c1

    Geometry (in Angstrom), charge = 0, multiplicity = 1:

    H           -2.498644171761    -0.799087096461    -0.843807950203
    C           -1.652968534735    -1.483731541892    -0.841364074352
    O           -0.444594711305    -0.800492440838    -0.842875715598
    H           -1.693276686789    -2.088447184221    -1.735781067622
    H           -1.742007303815    -2.135274447930     0.025511748208
    C           -0.249038249972     0.027607165021     0.259764301499
    C            1.097836473531     0.711315282982     0.137507061801
    H           -0.291740919948    -0.557079590192     1.179075281523
    H           -1.044387619793     0.771385578678     0.314361682924
    C            1.387659904484     1.639872380311     1.311461959107
    H            1.866625830285    -0.050107518925     0.064846224110
    H            1.119896950695     1.267734283186    -0.793089389303
    H            1.394774801279     1.098272402033     2.251570453460
    H            2.354616153972     2.114692077086     1.198762342977
    H            0.642673042479     2.424942223397     1.387982898207

  Mulliken Charges: (a.u.)
   Center  Symbol    Alpha    Beta     Spin     Total
       1     H     0.47215  0.47215  0.00000  0.05570
       2     C     3.03353  3.03353  0.00000 -0.06705
       3     O     4.17143  4.17143  0.00000 -0.34286
       4     H     0.44686  0.44686  0.00000  0.10629
       5     H     0.47215  0.47215  0.00000  0.05570
       6     C     2.95607  2.95607  0.00000  0.08786
       7     C     3.08012  3.08012  0.00000 -0.16024
       8     H     0.47584  0.47584  0.00000  0.04831
       9     H     0.47586  0.47586  0.00000  0.04828
      10     C     3.15583  3.15583  0.00000 -0.31166
      11     H     0.45111  0.45111  0.00000  0.09779
      12     H     0.45110  0.45110  0.00000  0.09780
      13     H     0.45584  0.45584  0.00000  0.08832
      14     H     0.44627  0.44627  0.00000  0.10745
      15     H     0.45584  0.45584  0.00000  0.08832

   Total alpha = 21.00000, Total beta = 21.00000, Total charge = -0.00000
