  ==> Input File <==

--------------------------------------------------------------------------
set {
	reference rhf
	basis 6-31G*
}

set_num_threads( 4 )
memory 2 gb

molecule MOL {
0 1

H	 -1.108575	 0.811289	 0.336996
N	 -0.712432	 0.000013	 -0.096310
C	 0.734192	 -0.000004	 0.040609
H	 -0.976206	 0.028286	 -1.061961
H	 1.139899	 -0.873598	 -0.456463
H	 1.139939	 0.873831	 -0.456100
H	 1.096456	 -0.000300	 1.069655

	symmetry c1
}
set optking {
	frozen_dihedral = ("
		1 2 3 7
	")
}

ee = optimize('scf')
oeprop('DIPOLE', 'QUADRUPOLE', 'MULLIKEN_CHARGES')
f=open( 'psi4out.xyz', 'w' )
f.write( "7  " )
f.write( str(ee) + "\n" )
f.write( MOL.save_string_xyz() )
f.close()
--------------------------------------------------------------------------

    Molecular point group: c1
  Charge       = 0
  Multiplicity = 1
  Basis Set: 6-31G*
  Basis Set:
  @DF-RHF Final Energy:   -95.20761160823207
    Total Energy =                        -95.2076116082320709
    Molecular point group: c1
  Basis Set: 6-31G*
  Basis Set:
  Basis Set: 6-31G*
  Basis Set:
  @DF-RHF Final Energy:   -95.20953488690029
    Total Energy =                        -95.2095348869003004
  Basis Set: 6-31G*
  Basis Set:
  Basis Set: 6-31G*
  Basis Set:
  @DF-RHF Final Energy:   -95.20978195574395
    Total Energy =                        -95.2097819557438640
  Basis Set: 6-31G*
  Basis Set:
  Charge       = 0
  Multiplicity = 1
  Basis Set: 6-31G*
  Basis Set:

    Orbital Energies (a.u.)
    -----------------------

    Doubly Occupied:

       1A    -15.534739     2A    -11.237440     3A     -1.170953
       4A     -0.896527     5A     -0.664871     6A     -0.602839
       7A     -0.557130     8A     -0.517715     9A     -0.383540

  @DF-RHF Final Energy:   -95.20978344472425

   => Energetics <=

    Nuclear Repulsion Energy =             42.3398077587575230
    One-Electron Energy =                -211.9676764635942163
    Two-Electron Energy =                  74.4180852601124485
    DFT Exchange-Correlation Energy =       0.0000000000000000
    Empirical Dispersion Energy =           0.0000000000000000
    PCM Polarization Energy =               0.0000000000000000
    EFP Energy =                            0.0000000000000000
    Total Energy =                        -95.2097834447242377
    Molecular point group: c1
  Basis Set: 6-31G*
  Basis Set:

  -Total Gradient:
     Atom            X                  Y                   Z
    ------   -----------------  -----------------  -----------------
       1        0.000009838473    -0.000162433363     0.000297691757
       2        0.000143250651     0.000275832149    -0.000281133325
       3       -0.000051682924    -0.000455394335    -0.000057721819
       4        0.000095868498     0.000003905575     0.000019881190
       5       -0.000041276913    -0.000001952875     0.000001354745
       6       -0.000053998271     0.000029793855    -0.000015760177
       7       -0.000101999515     0.000310248993     0.000035687629

  **** Optimization is complete! (in 4 steps) ****
    Final optimized geometry and variables:
    Molecular point group: c1

    Geometry (in Angstrom), charge = 0, multiplicity = 1:

    H           -1.116058349253     0.760612141769     0.418493719301
    N           -0.716884750200    -0.037932468578    -0.034966333060
    C            0.732452897382    -0.012509485111     0.063145527657
    H           -1.007831432204    -0.006329873668    -0.992543867759
    H            1.138135612123    -0.908046764366    -0.393219553178
    H            1.206852488343     0.849959030096    -0.407405997032
    H            1.018358334299    -0.020199232718     1.108647197849

  Mulliken Charges: (a.u.)
   Center  Symbol    Alpha    Beta     Spin     Total
       1     H     0.33379  0.33379  0.00000  0.33243
       2     N     3.91683  3.91683  0.00000 -0.83366
       3     C     3.14771  3.14771  0.00000 -0.29543
       4     H     0.33377  0.33377  0.00000  0.33246
       5     H     0.41698  0.41698  0.00000  0.16604
       6     H     0.43358  0.43358  0.00000  0.13284
       7     H     0.41734  0.41734  0.00000  0.16532

   Total alpha =  9.00000, Total beta =  9.00000, Total charge = -0.00000
