  ==> Input File <==

--------------------------------------------------------------------------
set {
	reference rhf
	basis 6-31G*
}

set_num_threads( 1 )
memory 2 gb

molecule MOL {
0 1

H	 -3.146357	 1.763097	 -0.414541
C	 -2.414906	 1.161333	 0.088967
C	 -2.076860	 -0.007332	 -0.404944
H	 -1.975236	 1.537442	 0.993480
O	 -1.180634	 -0.819263	 0.215062
H	 -2.500038	 -0.398831	 -1.313153
C	 0.051604	 -1.018856	 -0.387932
C	 1.043764	 0.054862	 -0.001873
H	 -0.017620	 -1.041351	 -1.469781
H	 0.437898	 -1.966374	 -0.042284
F	 2.212596	 -0.199467	 -0.571921
F	 0.652529	 1.252447	 -0.405055
F	 1.230877	 0.110694	 1.300533

	symmetry c1
}
set optking {
	frozen_dihedral = ("
		11 8 7 9,
		3 5 7 9,
		6 3 2 1
	")
}

ee = energy('scf')
oeprop('DIPOLE', 'QUADRUPOLE', 'MULLIKEN_CHARGES')
f=open( 'psi4out.xyz', 'w' )
f.write( "13  " )
f.write( str(ee) + "\n" )
f.write( MOL.save_string_xyz() )
f.close()
--------------------------------------------------------------------------

    Molecular point group: c1

    Geometry (in Angstrom), charge = 0, multiplicity = 1:

       Center              X                  Y                   Z               Mass
    ------------   -----------------  -----------------  -----------------  -----------------
           H         -3.232994648043     1.674410099146    -0.405445686568     1.007825032070
           C         -2.501543648043     1.072646099146     0.098062313432    12.000000000000
           C         -2.163497648043    -0.096018900854    -0.395848686568    12.000000000000
           H         -2.061873648043     1.448755099146     1.002575313432     1.007825032070
           O         -1.267271648043    -0.907949900854     0.224157313432    15.994914619560
           H         -2.586675648043    -0.487517900854    -1.304057686568     1.007825032070
           C         -0.035033648043    -1.107542900854    -0.378836686568    12.000000000000
           C          0.957126351957    -0.033824900854     0.007222313432    12.000000000000
           H         -0.104257648043    -1.130037900854    -1.460685686568     1.007825032070
           H          0.351260351957    -2.055060900854    -0.033188686568     1.007825032070
           F          2.125958351957    -0.288153900854    -0.562825686568    18.998403224000
           F          0.565891351957     1.163760099146    -0.395959686568    18.998403224000
           F          1.144239351957     0.022007099146     1.309628313432    18.998403224000

  Charge       = 0
  Multiplicity = 1
  Basis Set: 6-31G*
  Basis Set:

    Orbital Energies (a.u.)
    -----------------------

    Doubly Occupied:

       1A    -26.340996     2A    -26.338166     3A    -26.337238
       4A    -20.598332     5A    -11.499076     6A    -11.314268
       7A    -11.292940     8A    -11.223953     9A     -1.737792
      10A     -1.636172    11A     -1.633966    12A     -1.431333
      13A     -1.079372    14A     -1.016661    15A     -0.923054
      16A     -0.833920    17A     -0.826953    18A     -0.813881
      19A     -0.787369    20A     -0.712252    21A     -0.711029
      22A     -0.687103    23A     -0.671633    24A     -0.664957
      25A     -0.651538    26A     -0.643799    27A     -0.639212
      28A     -0.584255    29A     -0.565763    30A     -0.526841
      31A     -0.470886    32A     -0.368298

  @DF-RHF Final Energy:  -527.53209473926313

   => Energetics <=

    Nuclear Repulsion Energy =            419.2418167005402552
    One-Electron Energy =               -1562.4218619817197578
    Two-Electron Energy =                 615.6479505419171119
    DFT Exchange-Correlation Energy =       0.0000000000000000
    Empirical Dispersion Energy =           0.0000000000000000
    PCM Polarization Energy =               0.0000000000000000
    EFP Energy =                            0.0000000000000000
    Total Energy =                       -527.5320947392623339

  Mulliken Charges: (a.u.)
   Center  Symbol    Alpha    Beta     Spin     Total
       1     H     0.40721  0.40721  0.00000  0.18557
       2     C     3.20812  3.20812  0.00000 -0.41624
       3     C     2.91947  2.91947  0.00000  0.16105
       4     H     0.39947  0.39947  0.00000  0.20107
       5     O     4.30537  4.30537  0.00000 -0.61073
       6     H     0.40865  0.40865  0.00000  0.18270
       7     C     3.05456  3.05456  0.00000 -0.10913
       8     C     2.45753  2.45753  0.00000  1.08495
       9     H     0.40790  0.40790  0.00000  0.18420
      10     H     0.39403  0.39403  0.00000  0.21194
      11     F     4.68333  4.68333  0.00000 -0.36665
      12     F     4.67840  4.67840  0.00000 -0.35681
      13     F     4.67596  4.67596  0.00000 -0.35193

   Total alpha = 32.00000, Total beta = 32.00000, Total charge =  0.00000
