  ==> Input File <==

--------------------------------------------------------------------------
set {
	reference rhf
	basis cc-pvtz
}

set_num_threads( 4 )
memory 2 gb

molecule MOL {
0 1

H	 -3.268214	 -0.875720	 0.463107
C	 -2.806015	 0.000007	 0.024886
N	 -1.391133	 0.000016	 0.301321
H	 -3.029448	 0.000055	 -1.045738
H	 -3.268126	 0.875758	 0.463150
C	 -1.092037	 -0.457714	 1.640948
C	 -0.781112	 1.287557	 0.049043
H	 -1.536411	 0.198486	 2.395125
H	 -1.515708	 -1.445726	 1.776670
C	 0.407389	 -0.521653	 1.863768
H	 -0.977789	 1.573665	 -0.977383
H	 -1.204288	 2.062730	 0.694704
C	 0.718313	 1.223619	 0.271864
H	 0.604065	 -0.807760	 2.890194
H	 0.830564	 -1.296825	 1.218108
N	 1.017409	 0.765889	 1.611491
H	 1.141984	 2.211631	 0.136142
H	 1.162687	 0.567419	 -0.482313
C	 2.432291	 0.765898	 1.887926
H	 2.607861	 0.477538	 2.916802
H	 2.836375	 1.760536	 1.746600
H	 2.990576	 0.079798	 1.244697

	symmetry c1
}
set optking {
	frozen_dihedral = ("
		6 3 2 4
	")
}

ee = optimize('scf')
oeprop('DIPOLE', 'QUADRUPOLE', 'MULLIKEN_CHARGES')
f=open( 'psi4out.xyz', 'w' )
f.write( "22  " )
f.write( str(ee) + "\n" )
f.write( MOL.save_string_xyz() )
f.close()
--------------------------------------------------------------------------

    Molecular point group: c1
  Charge       = 0
  Multiplicity = 1
  Basis Set: CC-PVTZ
  Basis Set:
  @DF-RHF Final Energy:  -344.34889678237192
    Total Energy =                       -344.3488967823716393
    Molecular point group: c1
  Basis Set: CC-PVTZ
  Basis Set:
  Basis Set: CC-PVTZ
  Basis Set:
  @DF-RHF Final Energy:  -344.34969175628305
    Total Energy =                       -344.3496917562829367
  Basis Set: CC-PVTZ
  Basis Set:
  Basis Set: CC-PVTZ
  Basis Set:
  @DF-RHF Final Energy:  -344.34976755687489
    Total Energy =                       -344.3497675568747809
  Basis Set: CC-PVTZ
  Basis Set:
  Basis Set: CC-PVTZ
  Basis Set:
  @DF-RHF Final Energy:  -344.34976925348400
    Total Energy =                       -344.3497692534838279
  Basis Set: CC-PVTZ
  Basis Set:
  Charge       = 0
  Multiplicity = 1
  Basis Set: CC-PVTZ
  Basis Set:

    Orbital Energies (a.u.)
    -----------------------

    Doubly Occupied:

       1A    -15.537625     2A    -15.536296     3A    -11.237604
       4A    -11.237484     5A    -11.236898     6A    -11.236832
       7A    -11.234241     8A    -11.234186     9A     -1.257057
      10A     -1.205945    11A     -1.026127    12A     -0.992917
      13A     -0.912441    14A     -0.868462    15A     -0.836260
      16A     -0.754660    17A     -0.666835    18A     -0.638451
      19A     -0.632028    20A     -0.627214    21A     -0.623130
      22A     -0.582299    23A     -0.549478    24A     -0.547934
      25A     -0.542829    26A     -0.518512    27A     -0.496210
      28A     -0.490588    29A     -0.467005    30A     -0.457558
      31A     -0.352127    32A     -0.345527

  @DF-RHF Final Energy:  -344.34976938296501

   => Energetics <=

    Nuclear Repulsion Energy =            421.8581038839697044
    One-Electron Energy =               -1302.6502310416099135
    Two-Electron Energy =                 536.4423577746748606
    DFT Exchange-Correlation Energy =       0.0000000000000000
    Empirical Dispersion Energy =           0.0000000000000000
    PCM Polarization Energy =               0.0000000000000000
    EFP Energy =                            0.0000000000000000
    Total Energy =                       -344.3497693829652917
    Molecular point group: c1
  Basis Set: CC-PVTZ
  Basis Set:

  -Total Gradient:
     Atom            X                  Y                   Z
    ------   -----------------  -----------------  -----------------
       1       -0.000013978627    -0.000003141988     0.000003591809
       2        0.000025854599     0.003180482291    -0.000312038922
       3       -0.000277199506     0.002473587180     0.001250491682
       4        0.000034652009    -0.003254253285    -0.000033576330
       5       -0.000006498129    -0.000020535566    -0.000003658731
       6        0.000207194540    -0.002362041841    -0.000879095851
       7        0.000022939139    -0.000016138640    -0.000039855967
       8        0.000002811080    -0.000002527711    -0.000010323937
       9        0.000002327821     0.000003144877     0.000001828815
      10        0.000007323602    -0.000003158801     0.000019894705
      11        0.000000320061     0.000001110949     0.000003842162
      12       -0.000006510439    -0.000011884820     0.000002176314
      13        0.000010655160     0.000016474250    -0.000006934298
      14        0.000011604088    -0.000002636937     0.000006132318
      15       -0.000007679022     0.000004074463     0.000000677225
      16       -0.000014710735    -0.000005846192    -0.000002524766
      17        0.000010606040     0.000003484394     0.000000431786
      18       -0.000004827914     0.000002611986    -0.000000125032
      19       -0.000001436575    -0.000002730606     0.000000835531
      20       -0.000001030837     0.000000176945    -0.000000395791
      21       -0.000002545753    -0.000000641254    -0.000000998441
      22        0.000000129398     0.000000390309    -0.000000374280

  **** Optimization is complete! (in 5 steps) ****
    Final optimized geometry and variables:
    Molecular point group: c1

    Geometry (in Angstrom), charge = 0, multiplicity = 1:

    H           -3.069309969336    -1.292085291872    -0.564454778365
    C           -2.623113800549    -0.378194186328    -0.936153482336
    N           -1.213118820490    -0.369395857698    -0.634621283302
    H           -2.776683191843    -0.365712466053    -2.008841543715
    H           -3.163225599703     0.461209168790    -0.491897938154
    C           -0.906507695084    -0.837479756179     0.698400012202
    C           -0.593215104439     0.906845383120    -0.906885114166
    H           -1.341452056571    -0.188952863412     1.465238086682
    H           -1.328460990695    -1.826530474139     0.828433680633
    C            0.595287850542    -0.905337604613     0.906570755674
    H           -0.795197065449     1.182406671178    -1.935643415465
    H           -1.006168756890     1.693885916676    -0.268736149545
    C            0.906932791028     0.833468526047    -0.692122934971
    H            0.801145947983    -1.192668292709     1.930922704286
    H            1.009239990419    -1.681876289528     0.256337945119
    N            1.208505958324     0.379490605957     0.648191642770
    H            1.337170742944     1.817796324882    -0.834393636063
    H            1.343260005177     0.170490056452    -1.445189866634
    C            2.624153089865     0.375511479963     0.920028250914
    H            2.802090780183     0.090500905244     1.949478946788
    H            3.031440966792     1.368134010218     0.773470036355
    H            3.178125902493    -0.315106649205     0.277727897890

  Mulliken Charges: (a.u.)
   Center  Symbol    Alpha    Beta     Spin     Total
       1     H     0.45413  0.45413  0.00000  0.09175
       2     C     3.09791  3.09791  0.00000 -0.19581
       3     N     3.61335  3.61335  0.00000 -0.22671
       4     H     0.45087  0.45087  0.00000  0.09826
       5     H     0.46854  0.46854  0.00000  0.06292
       6     C     3.03355  3.03355  0.00000 -0.06710
       7     C     3.03526  3.03526  0.00000 -0.07053
       8     H     0.46959  0.46959  0.00000  0.06081
       9     H     0.45382  0.45382  0.00000  0.09236
      10     C     3.03595  3.03595  0.00000 -0.07190
      11     H     0.45411  0.45411  0.00000  0.09178
      12     H     0.46767  0.46767  0.00000  0.06467
      13     C     3.03553  3.03553  0.00000 -0.07105
      14     H     0.45390  0.45390  0.00000  0.09220
      15     H     0.46831  0.46831  0.00000  0.06337
      16     N     3.61313  3.61313  0.00000 -0.22626
      17     H     0.45383  0.45383  0.00000  0.09233
      18     H     0.46817  0.46817  0.00000  0.06366
      19     C     3.09837  3.09837  0.00000 -0.19675
      20     H     0.45194  0.45194  0.00000  0.09612
      21     H     0.45194  0.45194  0.00000  0.09612
      22     H     0.47012  0.47012  0.00000  0.05975

   Total alpha = 32.00000, Total beta = 32.00000, Total charge =  0.00000
