                              Psi4 1.0.54 Driver

  ==> Input File <==

--------------------------------------------------------------------------
set {
	reference rhf
	basis cc-pvtz
}

set_num_threads( 4 )
memory 2 gb

molecule MOL {
0 1

H	 2.646708	 0.758099	 0.000000
O	 2.258158	 -0.097743	 0.000000
C	 0.911162	 -0.015915	 0.000000
C	 0.341860	 1.174977	 0.420087
C	 0.105662	 -1.065788	 -0.399197
H	 0.982153	 1.978614	 0.726180
C	 -1.030010	 1.304459	 0.436851
H	 0.547335	 -1.990058	 -0.725237
C	 -1.270267	 -0.921592	 -0.377177
H	 -1.465646	 2.229667	 0.763365
C	 -1.847647	 0.259590	 0.039204
H	 -1.888502	 -1.741939	 -0.688854
H	 -2.914386	 0.367825	 0.054983

	symmetry c1
}
set optking {
	frozen_dihedral = ("
		4 3 2 1
	")
}

ee,wfn = optimize('scf', return_wfn=True)
oeprop( wfn, 'DIPOLE', 'QUADRUPOLE', 'MULLIKEN_CHARGES')
f=open( 'psi4out.xyz', 'w' )
f.write( "13  " )
f.write( str(ee) + "\n" )
f.write( MOL.save_string_xyz() )
f.close()
--------------------------------------------------------------------------

    Molecular point group: c1
  Charge       = 0
  Multiplicity = 1
  Basis Set: CC-PVTZ
  Basis Set:
  @DF-RHF Final Energy:  -305.66812741966157
    Total Energy =                       -305.6681274196615732
    Molecular point group: c1
  Basis Set: CC-PVTZ
  Basis Set:
  Basis Set: CC-PVTZ
  Basis Set:
  @DF-RHF Final Energy:  -305.66986490000050
    Total Energy =                       -305.6698649000004480
  Basis Set: CC-PVTZ
  Basis Set:
  Basis Set: CC-PVTZ
  Basis Set:
  @DF-RHF Final Energy:  -305.67001560249395
    Total Energy =                       -305.6700156024938906
  Basis Set: CC-PVTZ
  Basis Set:
  Basis Set: CC-PVTZ
  Basis Set:
  @DF-RHF Final Energy:  -305.67003482008101
    Total Energy =                       -305.6700348200808435
  Basis Set: CC-PVTZ
  Basis Set:
  Basis Set: CC-PVTZ
  Basis Set:
  @DF-RHF Final Energy:  -305.67003872122967
    Total Energy =                       -305.6700387212294459
  Basis Set: CC-PVTZ
  Basis Set:
  Charge       = 0
  Multiplicity = 1
  Basis Set: CC-PVTZ
  Basis Set:

    Orbital Energies (a.u.)
    -----------------------

    Doubly Occupied:

       1A    -20.583534     2A    -11.296741     3A    -11.235105
       4A    -11.233363     5A    -11.226183     6A    -11.220857
       7A    -11.220040     8A     -1.413832     9A     -1.152710
      10A     -1.022737    11A     -1.008385    12A     -0.850194
      13A     -0.826834    14A     -0.741325    15A     -0.687964
      16A     -0.654457    17A     -0.615126    18A     -0.598043
      19A     -0.591839    20A     -0.561282    21A     -0.517504
      22A     -0.493814    23A     -0.484160    24A     -0.343075
      25A     -0.316020

  @DF-RHF Final Energy:  -305.67003923635895

   => Energetics <=

    Nuclear Repulsion Energy =            273.7849735019080413
    One-Electron Energy =                -957.1197742947671259
    Two-Electron Energy =                 377.6647615565001388
    DFT Exchange-Correlation Energy =       0.0000000000000000
    Empirical Dispersion Energy =           0.0000000000000000
    PCM Polarization Energy =               0.0000000000000000
    EFP Energy =                            0.0000000000000000
    Total Energy =                       -305.6700392363590026
    Molecular point group: c1
  Basis Set: CC-PVTZ
  Basis Set:

  -Total Gradient:
     Atom            X                  Y                   Z
    ------   -----------------  -----------------  -----------------
       1       -0.000006420653     0.000030575622    -0.001709738370
       2       -0.000010073256    -0.000276672598     0.002811411639
       3        0.000131709713     0.000709585231    -0.002342068841
       4       -0.000053051669    -0.000425374672     0.001217901611
       5       -0.000091129976    -0.000013149864     0.000023442497
       6        0.000001985411     0.000001523065     0.000000540471
       7        0.000019134930     0.000009817692     0.000031618017
       8        0.000007681866     0.000004649799    -0.000000984539
       9        0.000003878659    -0.000000734171     0.000008871766
      10       -0.000007640488    -0.000002236244    -0.000006684181
      11        0.000004758944    -0.000040642365    -0.000028220330
      12       -0.000000735051    -0.000002896077    -0.000006630351
      13       -0.000000098427     0.000005554581     0.000000540612

  **** Optimization is complete! (in 6 steps) ****
    Final optimized geometry and variables:
    Molecular point group: c1

    Geometry (in Angstrom), charge = 0, multiplicity = 1:

    H            2.694926953329     0.570825271029    -0.024537815531
    O            2.246793850273    -0.255449225317    -0.035109781905
    C            0.907273641180    -0.077954899305    -0.019405058166
    C            0.325093715948     1.101326427779     0.407320635531
    C            0.112939660938    -1.140716335486    -0.414099839374
    H            0.942864113438     1.920458259254     0.727707285697
    C           -1.052804316198     1.219295056523     0.423192018637
    H            0.581670654363    -2.049292752089    -0.737138206420
    C           -1.259694319745    -1.012568499536    -0.385556376597
    H           -1.497223098707     2.139540805080     0.751793115046
    C           -1.853715603058     0.166905936123     0.029428288043
    H           -1.870566074223    -1.839830095029    -0.693597426437
    H           -2.921862397872     0.260889520371     0.046243560617

  Mulliken Charges: (a.u.)
   Center  Symbol    Alpha    Beta     Spin     Total
       1     H     0.38682  0.38682  0.00000  0.22637
       2     O     4.17709  4.17709  0.00000 -0.35418
       3     C     2.85332  2.85332  0.00000  0.29336
       4     C     3.13159  3.13159  0.00000 -0.26319
       5     C     3.11061  3.11061  0.00000 -0.22123
       6     H     0.43293  0.43293  0.00000  0.13413
       7     C     3.06518  3.06518  0.00000 -0.13035
       8     H     0.41903  0.41903  0.00000  0.16195
       9     C     3.05742  3.05742  0.00000 -0.11483
      10     H     0.42236  0.42236  0.00000  0.15528
      11     C     3.09742  3.09742  0.00000 -0.19484
      12     H     0.42238  0.42238  0.00000  0.15525
      13     H     0.42386  0.42386  0.00000  0.15229

   Total alpha = 25.00000, Total beta = 25.00000, Total charge = -0.00000

*** Psi4 exiting successfully. Buy a developer a beer!
