  ==> Input File <==

--------------------------------------------------------------------------
set {
	reference rhf
	basis 6-31G*
}

set_num_threads( 4 )
memory 2 gb

molecule MOL {
0 1

H	 -0.944757	 -0.000069	 1.678017
O	 -0.042387	 -0.000390	 1.388199
C	 -0.001487	 0.000018	 -0.026623
C	 1.261651	 0.720434	 -0.502147
C	 -0.032699	 -1.440771	 -0.540234
C	 -1.251747	 0.756471	 -0.461424
H	 1.302489	 0.774977	 -1.585316
H	 2.154225	 0.199091	 -0.163886
H	 1.290743	 1.728824	 -0.104251
H	 -0.042445	 -1.474387	 -1.625068
H	 0.841938	 -1.990883	 -0.200648
H	 -0.915016	 -1.951712	 -0.170999
H	 -1.314916	 0.813999	 -1.543295
H	 -1.237913	 1.764119	 -0.061495
H	 -2.139564	 0.258033	 -0.088956

	symmetry c1
}
set optking {
	frozen_dihedral = ("
		4 3 2 1
	")
}

ee = optimize('scf')
oeprop('DIPOLE', 'QUADRUPOLE', 'MULLIKEN_CHARGES')
f=open( 'psi4out.xyz', 'w' )
f.write( "15  " )
f.write( str(ee) + "\n" )
f.write( MOL.save_string_xyz() )
f.close()
--------------------------------------------------------------------------

    Molecular point group: c1
  Charge       = 0
  Multiplicity = 1
  Basis Set: 6-31G*
  Basis Set:
  @DF-RHF Final Energy:  -232.14985129647039
    Total Energy =                       -232.1498512964705014
    Molecular point group: c1
  Basis Set: 6-31G*
  Basis Set:
  Basis Set: 6-31G*
  Basis Set:
  @DF-RHF Final Energy:  -232.15162369706499
    Total Energy =                       -232.1516236970646787
  Basis Set: 6-31G*
  Basis Set:
  Basis Set: 6-31G*
  Basis Set:
  @DF-RHF Final Energy:  -232.15210178413250
    Total Energy =                       -232.1521017841324692
  Basis Set: 6-31G*
  Basis Set:
  Basis Set: 6-31G*
  Basis Set:
  @DF-RHF Final Energy:  -232.15207906947867
    Total Energy =                       -232.1520790694787593
  Basis Set: 6-31G*
  Basis Set:
  Basis Set: 6-31G*
  Basis Set:
  @DF-RHF Final Energy:  -232.15212305892547
    Total Energy =                       -232.1521230589256106
  Basis Set: 6-31G*
  Basis Set:
  Charge       = 0
  Multiplicity = 1
  Basis Set: 6-31G*
  Basis Set:

    Orbital Energies (a.u.)
    -----------------------

    Doubly Occupied:

       1A    -20.547883     2A    -11.281935     3A    -11.216345
       4A    -11.206468     5A    -11.204765     6A     -1.359328
       7A     -1.063556     8A     -0.943948     9A     -0.936988
      10A     -0.775624    11A     -0.669611    12A     -0.622561
      13A     -0.621218    14A     -0.574935    15A     -0.556700
      16A     -0.532240    17A     -0.516799    18A     -0.508818
      19A     -0.502482    20A     -0.456458    21A     -0.424222

  @DF-RHF Final Energy:  -232.15212352874079

   => Energetics <=

    Nuclear Repulsion Energy =            200.3023415337650590
    One-Electron Energy =                -711.8631653793896703
    Two-Electron Energy =                 279.4087003168837668
    DFT Exchange-Correlation Energy =       0.0000000000000000
    Empirical Dispersion Energy =           0.0000000000000000
    PCM Polarization Energy =               0.0000000000000000
    EFP Energy =                            0.0000000000000000
    Total Energy =                       -232.1521235287408444
    Molecular point group: c1
  Basis Set: 6-31G*
  Basis Set:

  -Total Gradient:
     Atom            X                  Y                   Z
    ------   -----------------  -----------------  -----------------
       1        0.000043717771     0.002249806827     0.000033591331
       2       -0.000276622071    -0.002421584386     0.000022424948
       3        0.000882802600    -0.001024863944     0.000018895835
       4       -0.000674084903     0.001188956915    -0.000009733232
       5       -0.000023039165     0.000019994885    -0.000033301589
       6        0.000015618745     0.000022602934    -0.000015682998
       7        0.000015838329    -0.000011318576     0.000010425250
       8        0.000020633877    -0.000005000548     0.000001272604
       9       -0.000026261047    -0.000006062033     0.000003522138
      10       -0.000014541563    -0.000016427151    -0.000000638783
      11        0.000014108877     0.000029539644    -0.000014693003
      12        0.000001791894    -0.000015596319     0.000009404941
      13       -0.000013454034     0.000009272230    -0.000033457813
      14       -0.000007650116    -0.000022063291     0.000003097593
      15        0.000041140806     0.000002742814     0.000004872773

  **** Optimization is complete! (in 6 steps) ****
    Final optimized geometry and variables:
    Molecular point group: c1

    Geometry (in Angstrom), charge = 0, multiplicity = 1:

    H           -0.816686370925    -0.018498041649     1.750158437180
    O            0.058736974060    -0.026401673335     1.390078020655
    C            0.000294307454    -0.005166113214    -0.026291025671
    C            1.264523431573     0.716789694192    -0.482151346900
    C           -0.027813882279    -1.444377432052    -0.541637509113
    C           -1.243446924601     0.759513165093    -0.483216790770
    H            1.328985788992     0.747096087060    -1.565301062266
    H            2.143179776861     0.208732593166    -0.100073239227
    H            1.273044578532     1.732955946633    -0.104330902728
    H           -0.040271985869    -1.478543899612    -1.626935451980
    H            0.844820321378    -1.982864036148    -0.189339097941
    H           -0.910240340662    -1.962686270037    -0.177337358486
    H           -1.289821546343     0.824146903007    -1.565045462536
    H           -1.238157120652     1.767686050677    -0.081363804765
    H           -2.150334998898     0.262369814231    -0.145278199625

  Mulliken Charges: (a.u.)
   Center  Symbol    Alpha    Beta     Spin     Total
       1     H     0.28168  0.28168  0.00000  0.43664
       2     O     4.37990  4.37990  0.00000 -0.75980
       3     C     2.84867  2.84867  0.00000  0.30265
       4     C     3.23272  3.23272  0.00000 -0.46543
       5     C     3.23349  3.23349  0.00000 -0.46699
       6     C     3.25424  3.25424  0.00000 -0.50849
       7     H     0.42487  0.42487  0.00000  0.15027
       8     H     0.41286  0.41286  0.00000  0.17429
       9     H     0.41588  0.41588  0.00000  0.16824
      10     H     0.42470  0.42470  0.00000  0.15060
      11     H     0.41293  0.41293  0.00000  0.17413
      12     H     0.42431  0.42431  0.00000  0.15139
      13     H     0.41631  0.41631  0.00000  0.16739
      14     H     0.41329  0.41329  0.00000  0.17341
      15     H     0.42415  0.42415  0.00000  0.15170

   Total alpha = 21.00000, Total beta = 21.00000, Total charge =  0.00000
