  ==> Input File <==

--------------------------------------------------------------------------
set {
	reference rhf
	basis 6-31G*
}

set_num_threads( 4 )
memory 2 gb

molecule MOL {
0 1

O	 -2.042549	 -1.228399	 -0.269030
C	 -1.653912	 -0.146171	 0.050137
C	 -0.332303	 0.024011	 0.778412
C	 -2.438579	 1.106236	 -0.272369
C	 -0.359496	 1.266486	 1.682509
H	 -0.106693	 -0.858907	 1.369968
H	 0.443764	 0.137286	 0.029539
C	 0.965232	 1.492622	 2.412570
H	 -1.160208	 1.171897	 2.413943
H	 -0.596000	 2.133237	 1.072632
C	 0.943972	 2.732586	 3.305455
H	 1.200632	 0.617314	 3.014108
H	 1.764947	 1.586554	 1.681680
H	 0.175607	 2.653474	 4.069268
H	 0.742963	 3.628888	 2.726076
H	 1.896373	 2.869543	 3.807653
H	 -3.277823	 0.863061	 -0.908988
H	 -1.806773	 1.843019	 -0.759671
H	 -2.802853	 1.554979	 0.648059

	symmetry c1
}
set optking {
	frozen_dihedral = ("
		5 3 2 4
	")
}

ee = optimize('scf')
oeprop('DIPOLE', 'QUADRUPOLE', 'MULLIKEN_CHARGES')
f=open( 'psi4out.xyz', 'w' )
f.write( "19  " )
f.write( str(ee) + "\n" )
f.write( MOL.save_string_xyz() )
f.close()
--------------------------------------------------------------------------

    Molecular point group: c1
  Charge       = 0
  Multiplicity = 1
  Basis Set: 6-31G*
  Basis Set:
  @DF-RHF Final Energy:  -309.06062745611507
    Total Energy =                       -309.0606274561149576
    Molecular point group: c1
  Basis Set: 6-31G*
  Basis Set:
  Basis Set: 6-31G*
  Basis Set:
  @DF-RHF Final Energy:  -309.06273340256348
    Total Energy =                       -309.0627334025634241
  Basis Set: 6-31G*
  Basis Set:
  Basis Set: 6-31G*
  Basis Set:
  @DF-RHF Final Energy:  -309.06315142495504
    Total Energy =                       -309.0631514249545830
  Basis Set: 6-31G*
  Basis Set:
  Basis Set: 6-31G*
  Basis Set:
  @DF-RHF Final Energy:  -309.06357044777087
    Total Energy =                       -309.0635704477707577
  Basis Set: 6-31G*
  Basis Set:
  Basis Set: 6-31G*
  Basis Set:
  @DF-RHF Final Energy:  -309.06366856538455
    Total Energy =                       -309.0636685653844324
  Basis Set: 6-31G*
  Basis Set:
  Basis Set: 6-31G*
  Basis Set:
  @DF-RHF Final Energy:  -309.06368056729741
    Total Energy =                       -309.0636805672974674
  Basis Set: 6-31G*
  Basis Set:
  Charge       = 0
  Multiplicity = 1
  Basis Set: 6-31G*
  Basis Set:

    Orbital Energies (a.u.)
    -----------------------

    Doubly Occupied:

       1A    -20.546452     2A    -11.325477     3A    -11.232102
       4A    -11.230762     5A    -11.227671     6A    -11.227038
       7A    -11.217342     8A     -1.392808     9A     -1.094494
      10A     -1.028332    11A     -0.982360    12A     -0.895442
      13A     -0.810424    14A     -0.732004    15A     -0.663230
      16A     -0.647223    17A     -0.627029    18A     -0.612281
      19A     -0.584976    20A     -0.573329    21A     -0.553681
      22A     -0.530848    23A     -0.520393    24A     -0.493623
      25A     -0.486243    26A     -0.480767    27A     -0.469750
      28A     -0.396943

  @DF-RHF Final Energy:  -309.06368150790939

   => Energetics <=

    Nuclear Repulsion Energy =            300.9088366726223853
    One-Electron Energy =               -1014.7789825311772347
    Two-Electron Energy =                 404.8064643506453990
    DFT Exchange-Correlation Energy =       0.0000000000000000
    Empirical Dispersion Energy =           0.0000000000000000
    PCM Polarization Energy =               0.0000000000000000
    EFP Energy =                            0.0000000000000000
    Total Energy =                       -309.0636815079095072
    Molecular point group: c1
  Basis Set: 6-31G*
  Basis Set:

  -Total Gradient:
     Atom            X                  Y                   Z
    ------   -----------------  -----------------  -----------------
       1       -0.000066520011     0.000066927986     0.000074886385
       2        0.001127349333     0.000381970075    -0.002239268538
       3       -0.000905487134    -0.001244875897     0.001976201644
       4       -0.000644253564    -0.000115217603     0.001089114697
       5        0.000496448836     0.000855783374    -0.001009446918
       6        0.000038606157     0.000008761589     0.000008928431
       7       -0.000013702925     0.000091239989     0.000032944773
       8       -0.000008843098     0.000042144071     0.000023572734
       9       -0.000036448682    -0.000011627024    -0.000024279965
      10        0.000058221491    -0.000046352634     0.000050252034
      11       -0.000007354574    -0.000022588003     0.000007133852
      12        0.000015189039    -0.000018586311     0.000003615734
      13       -0.000010797870     0.000013073909     0.000002010694
      14       -0.000001862822     0.000005767519     0.000003795265
      15        0.000000209128    -0.000006051219    -0.000003909166
      16       -0.000003457895    -0.000007285784     0.000001686386
      17       -0.000005458657     0.000026273520     0.000012299883
      18       -0.000041636663     0.000016725735    -0.000012824010
      19        0.000009799910    -0.000036083290     0.000003286085

  **** Optimization is complete! (in 7 steps) ****
    Final optimized geometry and variables:
    Molecular point group: c1

    Geometry (in Angstrom), charge = 0, multiplicity = 1:

    O           -1.265724642264    -2.029268001254    -1.367803336345
    C           -0.963685305151    -0.912100999891    -1.076085865904
    C            0.328396247671    -0.643939017464    -0.317671026555
    C           -1.841080809495     0.257326985780    -1.469689356631
    C            0.354367792761     0.585418217574     0.595160492029
    H            0.555674571279    -1.546176391727     0.238266655963
    H            1.108031661999    -0.544153847211    -1.072907548719
    C            1.683356941474     0.723355917267     1.340889326269
    H           -0.454595702676     0.522339236213     1.320510318520
    H            0.178766084062     1.487388279547     0.015208064997
    C            1.724572267856     1.943624394981     2.259492650391
    H            1.862619928341    -0.175887784183     1.925372886971
    H            2.495147091113     0.785751782914     0.619467644109
    H            0.944414945965     1.893543722809     3.013636447360
    H            1.583204730925     2.862900599426     1.698209810992
    H            2.677466102887     2.013987251050     2.774153183805
    H           -2.645819813206    -0.099135288340    -2.097176566160
    H           -1.269982041906     1.012558926567    -2.001415275506
    H           -2.258273069853     0.730640766897    -0.586335561070

  Mulliken Charges: (a.u.)
   Center  Symbol    Alpha    Beta     Spin     Total
       1     O     4.26322  4.26322  0.00000 -0.52643
       2     C     2.73236  2.73236  0.00000  0.53529
       3     C     3.20700  3.20700  0.00000 -0.41399
       4     C     3.29206  3.29206  0.00000 -0.58412
       5     C     3.16196  3.16196  0.00000 -0.32391
       6     H     0.39846  0.39846  0.00000  0.20308
       7     H     0.40587  0.40587  0.00000  0.18826
       8     C     3.15212  3.15212  0.00000 -0.30424
       9     H     0.41852  0.41852  0.00000  0.16296
      10     H     0.41940  0.41940  0.00000  0.16121
      11     C     3.24003  3.24003  0.00000 -0.48006
      12     H     0.41894  0.41894  0.00000  0.16212
      13     H     0.42095  0.42095  0.00000  0.15810
      14     H     0.42026  0.42026  0.00000  0.15947
      15     H     0.42110  0.42110  0.00000  0.15780
      16     H     0.41660  0.41660  0.00000  0.16680
      17     H     0.39567  0.39567  0.00000  0.20866
      18     H     0.40986  0.40986  0.00000  0.18028
      19     H     0.40564  0.40564  0.00000  0.18872

   Total alpha = 28.00000, Total beta = 28.00000, Total charge =  0.00000
