                              Psi4 1.0.54 Driver

  ==> Input File <==

--------------------------------------------------------------------------
set {
	reference rhf
	basis cc-pvtz
}

set_num_threads( 4 )
memory 2 gb

molecule MOL {
0 1

H	 -3.079325	 0.171729	 -3.114251
C	 -2.206934	 0.202891	 -2.489641
C	 -1.920604	 1.343150	 -1.760624
C	 -1.372866	 -0.896614	 -2.416142
H	 -2.568453	 2.196192	 -1.818168
C	 -0.799398	 1.382439	 -0.958222
H	 -1.595797	 -1.780412	 -2.981894
C	 -0.249811	 -0.858814	 -1.613138
H	 -0.562745	 2.257036	 -0.387141
C	 0.040064	 0.281851	 -0.881452
H	 0.398196	 -1.708589	 -1.553970
C	 1.238974	 0.374429	 0.000004
O	 1.968286	 -0.725612	 -0.000027
O	 1.515528	 1.334172	 0.638434
C	 3.373556	 -0.568203	 0.000011
H	 3.695416	 -0.031588	 -0.879663
H	 3.782700	 -1.565294	 -0.000152
H	 3.695405	 -0.031851	 0.879862

	symmetry c1
}
set optking {
	frozen_dihedral = ("
		10 12 13 15
	")
}

ee,wfn = optimize('scf', return_wfn=True)
oeprop( wfn, 'DIPOLE', 'QUADRUPOLE', 'MULLIKEN_CHARGES')
f=open( 'psi4out.xyz', 'w' )
f.write( "18  " )
f.write( str(ee) + "\n" )
f.write( MOL.save_string_xyz() )
f.close()
--------------------------------------------------------------------------

    Molecular point group: c1
  Charge       = 0
  Multiplicity = 1
  Basis Set: CC-PVTZ
  Basis Set:
  @DF-RHF Final Energy:  -457.50238283506798
    Total Energy =                       -457.5023828350681470
    Molecular point group: c1
  Basis Set: CC-PVTZ
  Basis Set:
  Basis Set: CC-PVTZ
  Basis Set:
  @DF-RHF Final Energy:  -457.49925171878726
    Total Energy =                       -457.4992517187874910
  Basis Set: CC-PVTZ
  Basis Set:
  Basis Set: CC-PVTZ
  Basis Set:
  @DF-RHF Final Energy:  -457.50229226632212
    Total Energy =                       -457.5022922663222289
  Basis Set: CC-PVTZ
  Basis Set:
  Basis Set: CC-PVTZ
  Basis Set:
  @DF-RHF Final Energy:  -457.50281028564154
    Total Energy =                       -457.5028102856419991
  Basis Set: CC-PVTZ
  Basis Set:
  Basis Set: CC-PVTZ
  Basis Set:
  @DF-RHF Final Energy:  -457.50283873897672
    Total Energy =                       -457.5028387389763793
  Basis Set: CC-PVTZ
  Basis Set:
  Basis Set: CC-PVTZ
  Basis Set:
  @DF-RHF Final Energy:  -457.50284100969134
    Total Energy =                       -457.5028410096916787
  Basis Set: CC-PVTZ
  Basis Set:
  Charge       = 0
  Multiplicity = 1
  Basis Set: CC-PVTZ
  Basis Set:

    Orbital Energies (a.u.)
    -----------------------

    Doubly Occupied:

       1A    -20.592356     2A    -20.537970     3A    -11.372711
       4A    -11.283528     5A    -11.245885     6A    -11.245019
       7A    -11.244011     8A    -11.241369     9A    -11.237164
      10A    -11.236471    11A     -1.471556    12A     -1.368880
      13A     -1.171760    14A     -1.050898    15A     -1.030251
      16A     -0.978375    17A     -0.866360    18A     -0.839824
      19A     -0.780653    20A     -0.743916    21A     -0.687949
      22A     -0.678783    23A     -0.673300    24A     -0.635984
      25A     -0.631216    26A     -0.603428    27A     -0.595019
      28A     -0.561821    29A     -0.531635    30A     -0.521098
      31A     -0.508310    32A     -0.502948    33A     -0.463060
      34A     -0.447825    35A     -0.351508    36A     -0.347418

  @DF-RHF Final Energy:  -457.50284127462083

   => Energetics <=

    Nuclear Repulsion Energy =            494.4460811017794981
    One-Electron Energy =               -1603.3373256403383493
    Two-Electron Energy =                 651.3884032639383577
    DFT Exchange-Correlation Energy =       0.0000000000000000
    Empirical Dispersion Energy =           0.0000000000000000
    PCM Polarization Energy =               0.0000000000000000
    EFP Energy =                            0.0000000000000000
    Total Energy =                       -457.5028412746204367
    Molecular point group: c1
  Basis Set: CC-PVTZ
  Basis Set:

  -Total Gradient:
     Atom            X                  Y                   Z
    ------   -----------------  -----------------  -----------------
       1        0.000000839901     0.000001464438     0.000002071500
       2       -0.000007344798     0.000039799443     0.000012577375
       3       -0.000023194304    -0.000009691059    -0.000028286052
       4        0.000037561665    -0.000012587228     0.000020787208
       5       -0.000002981284    -0.000000969652     0.000004698662
       6        0.000027234338    -0.000023287058     0.000020313742
       7        0.000003376805     0.000003148808    -0.000000743941
       8       -0.000011942059    -0.000027613365    -0.000020746576
       9        0.000002672429     0.000009151989    -0.000005170085
      10        0.003674439711     0.002082543719    -0.005288463141
      11        0.000001810950     0.000001992213     0.000004582165
      12       -0.005228464460    -0.003124369946     0.004169003091
      13        0.001610337963     0.001490238557     0.008463748738
      14       -0.000094295571    -0.000002125571    -0.000022837838
      15        0.000014162017    -0.000398425123    -0.007323077525
      16       -0.000012254655    -0.000015012063     0.000016327964
      17        0.000006835836    -0.000007858114    -0.000007654759
      18        0.000001205521    -0.000006399993    -0.000017130523

  **** Optimization is complete! (in 6 steps) ****
    Final optimized geometry and variables:
    Molecular point group: c1

    Geometry (in Angstrom), charge = 0, multiplicity = 1:

    H           -3.335886990776    -0.047801071801    -2.246069751273
    C           -2.470879269347    -0.006008652448    -1.611823746974
    C           -2.180103431475     1.155561894264    -0.917377018923
    C           -1.651733533534    -1.111740852644    -1.490785015218
    H           -2.817626544370     2.013166806748    -1.011524767259
    C           -1.069223730507     1.208974984795    -0.102929455716
    H           -1.878801095338    -2.011926850390    -2.028363396453
    C           -0.537329809508    -1.059435631818    -0.675376209849
    H           -0.829083128772     2.100005509302     0.440789986657
    C           -0.240808878600     0.102535164589     0.018381915497
    H            0.098845961807    -1.914414969799    -0.577244618872
    C            0.963550377096     0.215993858996     0.889695028257
    O            1.682800775374    -0.900066347565     0.952922951582
    O            1.291489164857     1.219897607578     1.423066333712
    C            3.090376737846    -0.757970260507     0.943047219626
    H            3.403332273852    -0.221007050973     0.057712133077
    H            3.492554975927    -1.757791606310     0.925938532025
    H            3.434699432925    -0.234598531766     1.821503655997

  Mulliken Charges: (a.u.)
   Center  Symbol    Alpha    Beta     Spin     Total
       1     H     0.42007  0.42007  0.00000  0.15987
       2     C     3.06902  3.06902  0.00000 -0.13803
       3     C     3.07581  3.07581  0.00000 -0.15162
       4     C     3.07590  3.07590  0.00000 -0.15179
       5     H     0.42034  0.42034  0.00000  0.15932
       6     C     3.07612  3.07612  0.00000 -0.15224
       7     H     0.42155  0.42155  0.00000  0.15690
       8     C     3.08683  3.08683  0.00000 -0.17366
       9     H     0.40669  0.40669  0.00000  0.18662
      10     C     3.01279  3.01279  0.00000 -0.02558
      11     H     0.41019  0.41019  0.00000  0.17962
      12     C     2.77908  2.77908  0.00000  0.44183
      13     O     4.15856  4.15856  0.00000 -0.31711
      14     O     4.20015  4.20015  0.00000 -0.40031
      15     C     3.03868  3.03868  0.00000 -0.07735
      16     H     0.45999  0.45999  0.00000  0.08002
      17     H     0.44481  0.44481  0.00000  0.11038
      18     H     0.44343  0.44343  0.00000  0.11313

   Total alpha = 36.00000, Total beta = 36.00000, Total charge = -0.00000

*** Psi4 exiting successfully. Buy a developer a beer!
