  ==> Input File <==

--------------------------------------------------------------------------
set {
	reference rhf
	basis 6-31G*
}

set_num_threads( 4 )
memory 2 gb

molecule MOL {
0 1

H	 -2.049338	 -0.999430	 1.342851
N	 -1.259579	 -0.384014	 1.310883
C	 -0.563778	 -0.502042	 0.037919
H	 -0.656281	 -0.647490	 2.066772
C	 0.575259	 0.508231	 -0.048326
H	 -1.281719	 -0.299442	 -0.751200
H	 -0.171222	 -1.505378	 -0.146370
C	 1.954651	 -0.143624	 0.035137
H	 0.475158	 1.060484	 -0.977307
H	 0.469181	 1.234488	 0.755973
H	 2.103292	 -0.853109	 -0.774172
H	 2.742821	 0.599562	 -0.030094
H	 2.083613	 -0.679371	 0.971560

	symmetry c1
}
set optking {
	frozen_dihedral = ("
		6 3 5 9
	")
}

ee = optimize('scf')
oeprop('DIPOLE', 'QUADRUPOLE', 'MULLIKEN_CHARGES')
f=open( 'psi4out.xyz', 'w' )
f.write( "13  " )
f.write( str(ee) + "\n" )
f.write( MOL.save_string_xyz() )
f.close()
--------------------------------------------------------------------------

    Molecular point group: c1
  Charge       = 0
  Multiplicity = 1
  Basis Set: 6-31G*
  Basis Set:
  @DF-RHF Final Energy:  -173.27608445372459
    Total Energy =                       -173.2760844537245930
    Molecular point group: c1
  Basis Set: 6-31G*
  Basis Set:
  Basis Set: 6-31G*
  Basis Set:
  @DF-RHF Final Energy:  -173.27654025499135
    Total Energy =                       -173.2765402549913460
  Basis Set: 6-31G*
  Basis Set:
  Basis Set: 6-31G*
  Basis Set:
  @DF-RHF Final Energy:  -173.27666805344569
    Total Energy =                       -173.2766680534456896
  Basis Set: 6-31G*
  Basis Set:
  Basis Set: 6-31G*
  Basis Set:
  @DF-RHF Final Energy:  -173.27666996256761
    Total Energy =                       -173.2766699625676665
  Basis Set: 6-31G*
  Basis Set:
  Charge       = 0
  Multiplicity = 1
  Basis Set: 6-31G*
  Basis Set:

    Orbital Energies (a.u.)
    -----------------------

    Doubly Occupied:

       1A    -15.533238     2A    -11.240217     3A    -11.211856
       4A    -11.210477     5A     -1.176148     6A     -1.032397
       7A     -0.901580     8A     -0.797585     9A     -0.665937
      10A     -0.628261    11A     -0.590224    12A     -0.563536
      13A     -0.548758    14A     -0.486700    15A     -0.477118
      16A     -0.465275    17A     -0.380277

  @DF-RHF Final Energy:  -173.27667022913937

   => Energetics <=

    Nuclear Repulsion Energy =            132.2749539918180517
    One-Electron Energy =                -495.2840803339647664
    Two-Electron Energy =                 189.7324561130073164
    DFT Exchange-Correlation Energy =       0.0000000000000000
    Empirical Dispersion Energy =           0.0000000000000000
    PCM Polarization Energy =               0.0000000000000000
    EFP Energy =                            0.0000000000000000
    Total Energy =                       -173.2766702291393983
    Molecular point group: c1
  Basis Set: 6-31G*
  Basis Set:

  -Total Gradient:
     Atom            X                  Y                   Z
    ------   -----------------  -----------------  -----------------
       1       -0.000043128144    -0.000013022615     0.000039276445
       2       -0.000012448615     0.000006152698    -0.000058101127
       3       -0.002046032547     0.002809555882     0.002573640550
       4        0.000016861170    -0.000007589528    -0.000020378138
       5        0.002366070437    -0.003022022604    -0.002134572442
       6        0.001409889445    -0.001823512472    -0.001786785250
       7       -0.000007118357    -0.000026249815     0.000007782199
       8       -0.000039868001     0.000013987905     0.000023448510
       9       -0.001638381678     0.002008344994     0.001343343356
      10        0.000020032927     0.000029412527     0.000022292932
      11       -0.000017801272     0.000021009934    -0.000005776236
      12       -0.000000962292     0.000005661007     0.000012165446
      13       -0.000007113074    -0.000001727913    -0.000016336244

  **** Optimization is complete! (in 5 steps) ****
    Final optimized geometry and variables:
    Molecular point group: c1

    Geometry (in Angstrom), charge = 0, multiplicity = 1:

    H           -2.189870595529    -0.880490270825     1.012830922505
    N           -1.425709068760    -0.233891251872     0.964059909061
    C           -0.747857241119    -0.339130259265    -0.321730804460
    H           -0.799312814553    -0.474027435374     1.709470600179
    C            0.420195396760     0.659400333581    -0.423786496430
    H           -1.475659275195    -0.141955302796    -1.101020884758
    H           -0.373535709115    -1.347127642119    -0.517254790757
    C            1.800376606300     0.011260634325    -0.316943386322
    H            0.346670831399     1.221097491040    -1.350453563989
    H            0.298493969388     1.393031203459     0.367338919881
    H            1.973913214342    -0.684084336352    -1.133160413932
    H            2.587880929298     0.757895975721    -0.345218148476
    H            1.905358261678    -0.542052055715     0.613018689000

  Mulliken Charges: (a.u.)
   Center  Symbol    Alpha    Beta     Spin     Total
       1     H     0.33337  0.33337  0.00000  0.33326
       2     N     3.91989  3.91989  0.00000 -0.83978
       3     C     3.06375  3.06375  0.00000 -0.12751
       4     H     0.33562  0.33562  0.00000  0.32876
       5     C     3.16237  3.16237  0.00000 -0.32474
       6     H     0.41808  0.41808  0.00000  0.16384
       7     H     0.43299  0.43299  0.00000  0.13403
       8     C     3.24067  3.24067  0.00000 -0.48135
       9     H     0.41875  0.41875  0.00000  0.16251
      10     H     0.40945  0.40945  0.00000  0.18110
      11     H     0.42140  0.42140  0.00000  0.15720
      12     H     0.41872  0.41872  0.00000  0.16257
      13     H     0.42494  0.42494  0.00000  0.15012

   Total alpha = 17.00000, Total beta = 17.00000, Total charge =  0.00000
