  ==> Input File <==

--------------------------------------------------------------------------
set {
	reference rhf
	basis 6-31G*
}

set_num_threads( 4 )
memory 2 gb

molecule MOL {
0 1

H	 -0.821032	 -1.655889	 0.000000
O	 -1.037828	 -0.728600	 0.000000
C	 0.100509	 -0.036935	 0.000000
C	 -0.101959	 1.372880	 0.476793
O	 1.132905	 -0.512104	 -0.342924
H	 -0.818796	 1.874565	 -0.162873
H	 0.840687	 1.898574	 0.462153
H	 -0.507980	 1.363027	 1.481664

	symmetry c1
}
set optking {
	frozen_dihedral = ("
		4 3 2 1
	")
}

ee = optimize('scf')
oeprop('DIPOLE', 'QUADRUPOLE', 'MULLIKEN_CHARGES')
f=open( 'psi4out.xyz', 'w' )
f.write( "8  " )
f.write( str(ee) + "\n" )
f.write( MOL.save_string_xyz() )
f.close()
--------------------------------------------------------------------------

    Molecular point group: c1
  Charge       = 0
  Multiplicity = 1
  Basis Set: 6-31G*
  Basis Set:
  @DF-RHF Final Energy:  -227.80770808206157
    Total Energy =                       -227.8077080820615947
    Molecular point group: c1
  Basis Set: 6-31G*
  Basis Set:
  Basis Set: 6-31G*
  Basis Set:
  @DF-RHF Final Energy:  -227.80508107800802
    Total Energy =                       -227.8050810780079871
  Basis Set: 6-31G*
  Basis Set:
  Basis Set: 6-31G*
  Basis Set:
  @DF-RHF Final Energy:  -227.80793408639232
    Total Energy =                       -227.8079340863923221
  Basis Set: 6-31G*
  Basis Set:
  Basis Set: 6-31G*
  Basis Set:
  @DF-RHF Final Energy:  -227.80799432105357
    Total Energy =                       -227.8079943210535419
  Basis Set: 6-31G*
  Basis Set:
  Basis Set: 6-31G*
  Basis Set:
  @DF-RHF Final Energy:  -227.80805013311374
    Total Energy =                       -227.8080501331138521
  Basis Set: 6-31G*
  Basis Set:
  Basis Set: 6-31G*
  Basis Set:
  @DF-RHF Final Energy:  -227.80806907067466
    Total Energy =                       -227.8080690706746338
  Basis Set: 6-31G*
  Basis Set:
  Charge       = 0
  Multiplicity = 1
  Basis Set: 6-31G*
  Basis Set:

    Orbital Energies (a.u.)
    -----------------------

    Doubly Occupied:

       1A    -20.613748     2A    -20.553957     3A    -11.386215
       4A    -11.240673     5A     -1.475628     6A     -1.368406
       7A     -1.026768     8A     -0.831139     9A     -0.702841
      10A     -0.682361    11A     -0.654287    12A     -0.581753
      13A     -0.574934    14A     -0.556435    15A     -0.481116
      16A     -0.449103

  @DF-RHF Final Energy:  -227.80806982468877

   => Energetics <=

    Nuclear Repulsion Energy =            122.3959667937218967
    One-Electron Energy =                -554.0493444964349692
    Two-Electron Energy =                 203.8453078780242436
    DFT Exchange-Correlation Energy =       0.0000000000000000
    Empirical Dispersion Energy =           0.0000000000000000
    PCM Polarization Energy =               0.0000000000000000
    EFP Energy =                            0.0000000000000000
    Total Energy =                       -227.8080698246888574
    Molecular point group: c1
  Basis Set: 6-31G*
  Basis Set:

  -Total Gradient:
     Atom            X                  Y                   Z
    ------   -----------------  -----------------  -----------------
       1       -0.000552955798     0.000065991243     0.007302354782
       2        0.000712904775    -0.000650579515    -0.007036424139
       3       -0.000507716396     0.001958751047    -0.004793634349
       4        0.000450998520    -0.001405636501     0.004516567767
       5       -0.000068351824     0.000038844835     0.000014654721
       6       -0.000016784164     0.000001641622    -0.000006017807
       7       -0.000013297108    -0.000006528828     0.000005240946
       8       -0.000004798005    -0.000002483900    -0.000002741920

  **** Optimization is complete! (in 7 steps) ****
    Final optimized geometry and variables:
    Molecular point group: c1

    Geometry (in Angstrom), charge = 0, multiplicity = 1:

    H           -0.859263434091    -1.631578532010    -0.113375098246
    O           -1.052762020864    -0.699792441730    -0.132154380075
    C            0.098039810489    -0.028765585264    -0.043844134328
    C           -0.112110036258     1.386671394191     0.412302657768
    O            1.149755342632    -0.541867260674    -0.238820907039
    H           -0.911097741725     1.857499887707    -0.146955909726
    H            0.805263648574     1.945608410748     0.304834371806
    H           -0.406725107764     1.366158925468     1.455971137141

  Mulliken Charges: (a.u.)
   Center  Symbol    Alpha    Beta     Spin     Total
       1     H     0.26696  0.26696  0.00000  0.46608
       2     O     4.34642  4.34642  0.00000 -0.69285
       3     C     2.63845  2.63845  0.00000  0.72309
       4     C     3.28436  3.28436  0.00000 -0.56872
       5     O     4.27272  4.27272  0.00000 -0.54545
       6     H     0.39847  0.39847  0.00000  0.20305
       7     H     0.39519  0.39519  0.00000  0.20963
       8     H     0.39742  0.39742  0.00000  0.20516

   Total alpha = 16.00000, Total beta = 16.00000, Total charge = -0.00000
