                              Psi4 1.0.54 Driver

  ==> Input File <==

--------------------------------------------------------------------------
set {
	reference rhf
	basis cc-pvtz
}

set_num_threads( 4 )
memory 2 gb

molecule MOL {
0 1

H	 -3.268214	 -0.875720	 0.463107
C	 -2.806015	 0.000007	 0.024886
N	 -1.391133	 0.000016	 0.301321
H	 -3.029448	 0.000055	 -1.045738
H	 -3.268126	 0.875758	 0.463150
C	 -0.806351	 -1.317778	 0.178747
C	 -1.082012	 0.582628	 1.589164
H	 -1.243847	 -2.016684	 0.897760
H	 -1.009473	 -1.700532	 -0.814392
C	 0.694242	 -1.261088	 0.395583
H	 -1.486368	 1.587243	 1.625688
H	 -1.538295	 0.013270	 2.404323
C	 0.418582	 0.639318	 1.806000
H	 1.098599	 -2.265703	 0.359059
H	 1.150526	 -0.691730	 -0.419576
N	 1.003364	 -0.678476	 1.683426
H	 0.621704	 1.022072	 2.799139
H	 0.856078	 1.338224	 1.086987
C	 2.418246	 -0.678467	 1.959861
H	 2.802944	 -1.689828	 1.918377
H	 2.600253	 -0.292846	 2.955216
H	 2.989091	 -0.070478	 1.252300

	symmetry c1
}
set optking {
	frozen_dihedral = ("
		6 3 2 4
	")
}

ee,wfn = optimize('scf', return_wfn=True)
oeprop( wfn, 'DIPOLE', 'QUADRUPOLE', 'MULLIKEN_CHARGES')
f=open( 'psi4out.xyz', 'w' )
f.write( "22  " )
f.write( str(ee) + "\n" )
f.write( MOL.save_string_xyz() )
f.close()
--------------------------------------------------------------------------

    Molecular point group: c1
  Charge       = 0
  Multiplicity = 1
  Basis Set: CC-PVTZ
  Basis Set:
  @DF-RHF Final Energy:  -344.34809742743886
    Total Energy =                       -344.3480974274385744
    Molecular point group: c1
  Basis Set: CC-PVTZ
  Basis Set:
  Basis Set: CC-PVTZ
  Basis Set:
  @DF-RHF Final Energy:  -344.34885491955913
    Total Energy =                       -344.3488549195590167
  Basis Set: CC-PVTZ
  Basis Set:
  Basis Set: CC-PVTZ
  Basis Set:
  @DF-RHF Final Energy:  -344.34893410680093
    Total Energy =                       -344.3489341068010390
  Basis Set: CC-PVTZ
  Basis Set:
  Charge       = 0
  Multiplicity = 1
  Basis Set: CC-PVTZ
  Basis Set:

    Orbital Energies (a.u.)
    -----------------------

    Doubly Occupied:

       1A    -15.537918     2A    -15.537444     3A    -11.237508
       4A    -11.237406     5A    -11.236830     6A    -11.236755
       7A    -11.234209     8A    -11.234037     9A     -1.257025
      10A     -1.205976    11A     -1.025468    12A     -0.992802
      13A     -0.912306    14A     -0.867528    15A     -0.836504
      16A     -0.756091    17A     -0.666791    18A     -0.637525
      19A     -0.631228    20A     -0.626559    21A     -0.623551
      22A     -0.582708    23A     -0.549383    24A     -0.547852
      25A     -0.541769    26A     -0.519406    27A     -0.496560
      28A     -0.489710    29A     -0.465153    30A     -0.456875
      31A     -0.353226    32A     -0.348452

  @DF-RHF Final Energy:  -344.34893588654165

   => Energetics <=

    Nuclear Repulsion Energy =            421.9100671735370724
    One-Electron Energy =               -1302.7528868062099718
    Two-Electron Energy =                 536.4938837461307912
    DFT Exchange-Correlation Energy =       0.0000000000000000
    Empirical Dispersion Energy =           0.0000000000000000
    PCM Polarization Energy =               0.0000000000000000
    EFP Energy =                            0.0000000000000000
    Total Energy =                       -344.3489358865421082
    Molecular point group: c1
  Basis Set: CC-PVTZ
  Basis Set:

  -Total Gradient:
     Atom            X                  Y                   Z
    ------   -----------------  -----------------  -----------------
       1       -0.000042448979    -0.000039573628     0.000030154136
       2       -0.000159476451    -0.005756363975     0.001108255030
       3        0.000743719071     0.001819128400    -0.004273562415
       4        0.000006679383     0.004427313122     0.000021352079
       5       -0.000003005247    -0.000003943526    -0.000004202413
       6       -0.000646715879    -0.000445383286     0.003154538010
       7        0.000010882408     0.000066884064    -0.000133388541
       8       -0.000016536685     0.000012571004     0.000007548240
       9        0.000003405716    -0.000050327420    -0.000009287994
      10        0.000052026601    -0.000006245825    -0.000007170143
      11       -0.000003083016     0.000010294323     0.000037667201
      12        0.000017497657    -0.000004546997    -0.000008238219
      13        0.000026296869     0.000012754015     0.000045817587
      14        0.000012279480     0.000005613605     0.000015823314
      15        0.000004007969    -0.000003796660    -0.000008218915
      16        0.000006353872    -0.000033102049     0.000023492558
      17        0.000025663625    -0.000006786162     0.000008819744
      18       -0.000018323498    -0.000003613684     0.000003754865
      19       -0.000004332229    -0.000000616963    -0.000008293981
      20       -0.000003577531    -0.000002665582    -0.000001766554
      21       -0.000008558942     0.000001555912    -0.000001837992
      22       -0.000002754196     0.000000851314    -0.000001255595

  **** Optimization is complete! (in 4 steps) ****
    Final optimized geometry and variables:
    Molecular point group: c1

    Geometry (in Angstrom), charge = 0, multiplicity = 1:

    H           -3.140512442528    -0.470957629690    -0.509598014270
    C           -2.615185194143     0.372684803881    -0.960227121890
    N           -1.195449375248     0.368439323798    -0.686795943749
    H           -2.793346011005     0.375041550755    -2.029292598756
    H           -3.057789048971     1.281580252425    -0.572206291375
    C           -0.627051497055    -0.957104538168    -0.816778953252
    C           -0.877046405106     0.919603214278     0.615297430287
    H           -1.071429627715    -1.648602110019    -0.095577594206
    H           -0.843615927475    -1.337087301482    -1.808896197174
    C            0.875471017896    -0.924820053661    -0.610367635369
    H           -1.268167743298     1.927863925270     0.675314852169
    H           -1.334421493464     0.338166088073     1.421192992558
    C            0.625246157919     0.958093331632     0.826811037677
    H            1.264939432218    -1.934876645916    -0.660603416183
    H            1.334948777148    -0.353179406020    -1.422167153053
    N            1.199388582247    -0.361868984028     0.682231294959
    H            0.835796008281     1.324690049313     1.824659705209
    H            1.064870042750     1.664412937866     0.116227459700
    C            2.615806810488    -0.376698031700     0.948654389278
    H            2.992274669936    -1.390405401604     0.890271294794
    H            2.807826911040    -0.006480999175     1.948052236379
    H            3.186745981353     0.236671522595     0.245691563843

  Mulliken Charges: (a.u.)
   Center  Symbol    Alpha    Beta     Spin     Total
       1     H     0.46749  0.46749  0.00000  0.06503
       2     C     3.09783  3.09783  0.00000 -0.19566
       3     N     3.61499  3.61499  0.00000 -0.22998
       4     H     0.44978  0.44978  0.00000  0.10044
       5     H     0.45482  0.45482  0.00000  0.09036
       6     C     3.03656  3.03656  0.00000 -0.07313
       7     C     3.03402  3.03402  0.00000 -0.06803
       8     H     0.46683  0.46683  0.00000  0.06633
       9     H     0.45374  0.45374  0.00000  0.09252
      10     C     3.03582  3.03582  0.00000 -0.07165
      11     H     0.45375  0.45375  0.00000  0.09251
      12     H     0.46890  0.46890  0.00000  0.06220
      13     C     3.03625  3.03625  0.00000 -0.07250
      14     H     0.45382  0.45382  0.00000  0.09236
      15     H     0.46798  0.46798  0.00000  0.06404
      16     N     3.61290  3.61290  0.00000 -0.22580
      17     H     0.45387  0.45387  0.00000  0.09225
      18     H     0.46819  0.46819  0.00000  0.06361
      19     C     3.09850  3.09850  0.00000 -0.19699
      20     H     0.45198  0.45198  0.00000  0.09604
      21     H     0.45198  0.45198  0.00000  0.09603
      22     H     0.46999  0.46999  0.00000  0.06002

   Total alpha = 32.00000, Total beta = 32.00000, Total charge = -0.00000

*** Psi4 exiting successfully. Buy a developer a beer!
