                              Psi4 1.0.54 Driver

  ==> Input File <==

--------------------------------------------------------------------------
set {
	reference rhf
	basis cc-pvtz
}

set_num_threads( 4 )
memory 2 gb

molecule MOL {
0 1

O	 1.529424	 1.846438	 -0.478753
C	 0.781622	 1.719742	 -1.387478
C	 -0.518669	 0.958420	 -1.351787
O	 0.998258	 2.244838	 -2.582366
C	 -0.824290	 0.329213	 -0.000115
H	 -1.301960	 1.647247	 -1.650821
H	 -0.472151	 0.207303	 -2.133516
C	 -2.146151	 -0.432825	 -0.000068
H	 -0.845792	 1.103902	 0.757954
H	 -0.014874	 -0.337531	 0.274818
C	 -3.366283	 0.483552	 0.000557
H	 -2.189286	 -1.084450	 -0.869996
H	 -2.188867	 -1.085083	 0.869399
C	 -4.687436	 -0.278003	 0.000108
H	 -3.325150	 1.134819	 -0.867957
H	 -3.325087	 1.133730	 0.869885
H	 -4.773783	 -0.912098	 -0.876078
H	 -5.531922	 0.401392	 0.000363
H	 -4.773901	 -0.912898	 0.875703
C	 2.186800	 2.988948	 -2.758415
H	 2.210218	 3.834551	 -2.087132
H	 2.177709	 3.326525	 -3.782039
H	 3.053809	 2.371138	 -2.577250

	symmetry c1
}
set optking {
	frozen_dihedral = ("
		9 5 8 12
	")
}

ee,wfn = optimize('scf', return_wfn=True)
oeprop( wfn, 'DIPOLE', 'QUADRUPOLE', 'MULLIKEN_CHARGES')
f=open( 'psi4out.xyz', 'w' )
f.write( "23  " )
f.write( str(ee) + "\n" )
f.write( MOL.save_string_xyz() )
f.close()
--------------------------------------------------------------------------

    Molecular point group: c1
  Charge       = 0
  Multiplicity = 1
  Basis Set: CC-PVTZ
  Basis Set:
  @DF-RHF Final Energy:  -423.12882251572773
    Total Energy =                       -423.1288225157286433
    Molecular point group: c1
  Basis Set: CC-PVTZ
  Basis Set:
  Basis Set: CC-PVTZ
  Basis Set:
  @DF-RHF Final Energy:  -423.12900692688470
    Total Energy =                       -423.1290069268848129
  Basis Set: CC-PVTZ
  Basis Set:
  Basis Set: CC-PVTZ
  Basis Set:
  @DF-RHF Final Energy:  -423.12904275913831
    Total Energy =                       -423.1290427591386560
  Basis Set: CC-PVTZ
  Basis Set:
  Basis Set: CC-PVTZ
  Basis Set:
  @DF-RHF Final Energy:  -423.12911169402219
    Total Energy =                       -423.1291116940224128
  Basis Set: CC-PVTZ
  Basis Set:
  Basis Set: CC-PVTZ
  Basis Set:
  @DF-RHF Final Energy:  -423.12912747732076
    Total Energy =                       -423.1291274773204805
  Basis Set: CC-PVTZ
  Basis Set:
  Charge       = 0
  Multiplicity = 1
  Basis Set: CC-PVTZ
  Basis Set:

    Orbital Energies (a.u.)
    -----------------------

    Doubly Occupied:

       1A    -20.596192     2A    -20.534038     3A    -11.364443
       4A    -11.278392     5A    -11.233324     6A    -11.217452
       7A    -11.216489     8A    -11.215800     9A    -11.208939
      10A     -1.472115    11A     -1.365674    12A     -1.094617
      13A     -1.043476    14A     -0.988030    15A     -0.933371
      16A     -0.849740    17A     -0.793447    18A     -0.766784
      19A     -0.703460    20A     -0.685550    21A     -0.676279
      22A     -0.635202    23A     -0.625418    24A     -0.600727
      25A     -0.576762    26A     -0.558490    27A     -0.556657
      28A     -0.529377    29A     -0.522014    30A     -0.506773
      31A     -0.492474    32A     -0.469416    33A     -0.466540
      34A     -0.461487    35A     -0.453762    36A     -0.440218

  @DF-RHF Final Energy:  -423.12912789554201

   => Energetics <=

    Nuclear Repulsion Energy =            457.6395399085939175
    One-Electron Energy =               -1483.2714740172573329
    Two-Electron Energy =                 602.5028062131211755
    DFT Exchange-Correlation Energy =       0.0000000000000000
    Empirical Dispersion Energy =           0.0000000000000000
    PCM Polarization Energy =               0.0000000000000000
    EFP Energy =                            0.0000000000000000
    Total Energy =                       -423.1291278955422968
    Molecular point group: c1
  Basis Set: CC-PVTZ
  Basis Set:

  -Total Gradient:
     Atom            X                  Y                   Z
    ------   -----------------  -----------------  -----------------
       1        0.000024003521    -0.000013008656    -0.000043438413
       2       -0.000060993113     0.000076905684     0.000022876068
       3        0.000031101678     0.000048096415    -0.000007908096
       4        0.000020078398    -0.000039431256     0.000004517929
       5        0.000645268541    -0.000957574891     0.000982726660
       6        0.000022359540     0.000017528691    -0.000026276305
       7        0.000009454817     0.000018984258     0.000042007351
       8        0.000552015483    -0.001077672639     0.000785673208
       9       -0.000537474949     0.000909273594    -0.000976924796
      10        0.000027426246     0.000000943518    -0.000034253550
      11       -0.000070603209    -0.000040614808     0.000029838894
      12       -0.000627868041     0.001016930036    -0.000746687364
      13       -0.000002069639     0.000054061581    -0.000000710284
      14        0.000021749679     0.000026281967    -0.000086472342
      15       -0.000084692732    -0.000016531474     0.000011278008
      16        0.000024703211    -0.000012503194     0.000016586504
      17       -0.000014587923    -0.000021305385    -0.000010219506
      18        0.000008253570     0.000010923622    -0.000006389012
      19        0.000029081553     0.000020214073     0.000012563837
      20       -0.000001599258    -0.000018375454     0.000022334981
      21       -0.000006005557     0.000007169062     0.000003884775
      22       -0.000009241981    -0.000001637854     0.000003765671
      23       -0.000000359832    -0.000008656891     0.000001225781

  **** Optimization is complete! (in 6 steps) ****
    Final optimized geometry and variables:
    Molecular point group: c1

    Geometry (in Angstrom), charge = 0, multiplicity = 1:

    O            2.175506962903     0.732393822305     0.497599914178
    C            1.436131665235     0.618535059699    -0.419672144654
    C            0.125667983639    -0.126058507452    -0.402491051271
    O            1.673553409522     1.144671568096    -1.610334981142
    C           -0.195229126002    -0.761359009766     0.945397064013
    H           -0.639515683182     0.575982388776    -0.712382891654
    H            0.174463193028    -0.876041816893    -1.185267120918
    C           -1.513527358286    -1.538960045858     0.951850819738
    H           -0.223395640163     0.015366074389     1.701237397923
    H            0.617943241725    -1.422451934867     1.217743890990
    C           -2.767446281755    -0.665134237809     0.969283302727
    H           -1.553486053506    -2.194273533587     0.084509509215
    H           -1.530882146211    -2.184050891701     1.824747029477
    C           -4.055862204136    -1.480575431567     1.004263709084
    H           -2.784252624791    -0.017207014026     0.098381542161
    H           -2.731735375730    -0.010691372892     1.835808166441
    H           -4.136871459045    -2.122743631867     0.133452288831
    H           -4.927660622385    -0.836787853075     1.022076592123
    H           -4.093814203428    -2.113522663888     1.884540027815
    C            2.874146390012     1.872731938049    -1.770017727535
    H            2.901538422327     2.715778418497    -1.095641538929
    H            2.881648375005     2.213828394380    -2.792512323839
    H            3.730425654627     1.242395594468    -1.581017083351

  Mulliken Charges: (a.u.)
   Center  Symbol    Alpha    Beta     Spin     Total
       1     O     4.19705  4.19705  0.00000 -0.39410
       2     C     2.80481  2.80481  0.00000  0.39037
       3     C     3.10003  3.10003  0.00000 -0.20005
       4     O     4.14724  4.14724  0.00000 -0.29448
       5     C     3.09200  3.09200  0.00000 -0.18400
       6     H     0.44001  0.44001  0.00000  0.11997
       7     H     0.44016  0.44016  0.00000  0.11968
       8     C     3.09982  3.09982  0.00000 -0.19965
       9     H     0.44671  0.44671  0.00000  0.10659
      10     H     0.43998  0.43998  0.00000  0.12003
      11     C     3.08419  3.08419  0.00000 -0.16838
      12     H     0.45595  0.45595  0.00000  0.08809
      13     H     0.44509  0.44509  0.00000  0.10981
      14     C     3.14990  3.14990  0.00000 -0.29981
      15     H     0.45550  0.45550  0.00000  0.08899
      16     H     0.45282  0.45282  0.00000  0.09435
      17     H     0.45501  0.45501  0.00000  0.08998
      18     H     0.44793  0.44793  0.00000  0.10414
      19     H     0.45394  0.45394  0.00000  0.09213
      20     C     3.03799  3.03799  0.00000 -0.07598
      21     H     0.45431  0.45431  0.00000  0.09138
      22     H     0.44528  0.44528  0.00000  0.10943
      23     H     0.45425  0.45425  0.00000  0.09150

   Total alpha = 36.00000, Total beta = 36.00000, Total charge = -0.00000

*** Psi4 exiting successfully. Buy a developer a beer!
