  ==> Input File <==

--------------------------------------------------------------------------
set {
	reference rhf
	basis 6-31G*
}

set_num_threads( 4 )
memory 2 gb

molecule MOL {
0 1

O	 -1.264440	 0.662525	 -0.942055
C	 -1.083277	 0.139568	 0.115197
C	 0.323299	 -0.082943	 0.642902
C	 -2.233551	 -0.348434	 0.967578
C	 1.355627	 -0.005344	 -0.493127
H	 0.396251	 -1.044647	 1.143147
H	 0.528637	 0.693580	 1.371677
C	 2.786168	 -0.195604	 0.007473
H	 1.132807	 -0.760304	 -1.243899
H	 1.259610	 0.958506	 -0.981915
H	 3.495561	 -0.130713	 -0.811210
H	 2.912696	 -1.165395	 0.480041
H	 3.049284	 0.565503	 0.735850
H	 -2.082321	 -1.382546	 1.263230
H	 -3.163057	 -0.253952	 0.423678
H	 -2.287706	 0.240735	 1.879253

	symmetry c1
}
set optking {
	frozen_dihedral = ("
		4 2 3 5
	")
}

ee = optimize('scf')
oeprop('DIPOLE', 'QUADRUPOLE', 'MULLIKEN_CHARGES')
f=open( 'psi4out.xyz', 'w' )
f.write( "16  " )
f.write( str(ee) + "\n" )
f.write( MOL.save_string_xyz() )
f.close()
--------------------------------------------------------------------------

    Molecular point group: c1
  Charge       = 0
  Multiplicity = 1
  Basis Set: 6-31G*
  Basis Set:
  @DF-RHF Final Energy:  -270.03087487910921
    Total Energy =                       -270.0308748791090920
    Molecular point group: c1
  Basis Set: 6-31G*
  Basis Set:
  Basis Set: 6-31G*
  Basis Set:
  @DF-RHF Final Energy:  -270.03036139840356
    Total Energy =                       -270.0303613984035564
  Basis Set: 6-31G*
  Basis Set:
  Basis Set: 6-31G*
  Basis Set:
  @DF-RHF Final Energy:  -270.03117926104431
    Total Energy =                       -270.0311792610444286
  Basis Set: 6-31G*
  Basis Set:
  Basis Set: 6-31G*
  Basis Set:
  @DF-RHF Final Energy:  -270.03189330663946
    Total Energy =                       -270.0318933066395743
  Basis Set: 6-31G*
  Basis Set:
  @DF-RHF Final Energy:  -270.03197170204885
    Total Energy =                       -270.0319717020488497
  @DF-RHF Final Energy:  -270.03202318757064
    Total Energy =                       -270.0320231875705304
  @DF-RHF Final Energy:  -270.03205468305185
    Total Energy =                       -270.0320546830517969
  Basis Set: 6-31G*
  Basis Set:
  @DF-RHF Final Energy:  -270.03193149416438
    Total Energy =                       -270.0319314941644961
  Basis Set: 6-31G*
  Basis Set:
  Basis Set: 6-31G*
  Basis Set:
  @DF-RHF Final Energy:  -270.03204730008110
    Total Energy =                       -270.0320473000811035
  Basis Set: 6-31G*
  Basis Set:
  Basis Set: 6-31G*
  Basis Set:
  @DF-RHF Final Energy:  -270.03206795895858
    Total Energy =                       -270.0320679589588053
  Basis Set: 6-31G*
  Basis Set:
  Charge       = 0
  Multiplicity = 1
  Basis Set: 6-31G*
  Basis Set:

    Orbital Energies (a.u.)
    -----------------------

    Doubly Occupied:

       1A    -20.550154     2A    -11.326768     3A    -11.232374
       4A    -11.228934     5A    -11.220693     6A    -11.214060
       7A     -1.395802     8A     -1.077391     9A     -1.015780
      10A     -0.947085    11A     -0.824641    12A     -0.732244
      13A     -0.655329    14A     -0.649528    15A     -0.623713
      16A     -0.599048    17A     -0.567712    18A     -0.559814
      19A     -0.546712    20A     -0.501830    21A     -0.491596
      22A     -0.482478    23A     -0.475931    24A     -0.400690

  @DF-RHF Final Energy:  -270.03206798477743

   => Energetics <=

    Nuclear Repulsion Energy =            236.7649634500458546
    One-Electron Energy =                -834.9534452518851140
    Two-Electron Energy =                 328.1564138170617184
    DFT Exchange-Correlation Energy =       0.0000000000000000
    Empirical Dispersion Energy =           0.0000000000000000
    PCM Polarization Energy =               0.0000000000000000
    EFP Energy =                            0.0000000000000000
    Total Energy =                       -270.0320679847775978
    Molecular point group: c1
  Basis Set: 6-31G*
  Basis Set:

  -Total Gradient:
     Atom            X                  Y                   Z
    ------   -----------------  -----------------  -----------------
       1        0.000006083542    -0.000000102560     0.000000094232
       2       -0.000091024559     0.000837867983     0.000510517125
       3        0.000122314885     0.000865909647    -0.000032534191
       4        0.000045702115    -0.000829893680    -0.000380377609
       5       -0.000080560958    -0.000891238715    -0.000101854047
       6       -0.000001927371     0.000001912049    -0.000000509025
       7       -0.000003741260     0.000002356576     0.000002596114
       8        0.000002675286     0.000016171692     0.000001648456
       9       -0.000008017626    -0.000001863375    -0.000002757501
      10        0.000007639723    -0.000005537592     0.000001429726
      11        0.000000915055     0.000005028982     0.000000880753
      12       -0.000000889167    -0.000001769743    -0.000007772795
      13        0.000001528705    -0.000003891380     0.000007358384
      14       -0.000000794938     0.000002169841    -0.000000644738
      15        0.000001617232     0.000000884893    -0.000003537477
      16       -0.000001520664     0.000001995381     0.000005462593

  **** Optimization is complete! (in 11 steps) ****
    Final optimized geometry and variables:
    Molecular point group: c1

    Geometry (in Angstrom), charge = 0, multiplicity = 1:

    O           -1.312930687504     0.588228902460    -1.021719049948
    C           -1.080338869267     0.104192101773     0.043452657514
    C            0.338617095806    -0.074569782471     0.554221854878
    C           -2.191506847951    -0.370318827753     0.955313665147
    C            1.399667924647    -0.042847988489    -0.543456810863
    H            0.396315940290    -1.002753275579     1.118919950554
    H            0.516917455116     0.720401367311     1.278704223202
    C            2.814691790756    -0.195897585630     0.012160860260
    H            1.197253866593    -0.836207103471    -1.256859788222
    H            1.313898826574     0.887015377514    -1.092973735129
    H            3.549378853154    -0.172497592121    -0.786199859577
    H            2.933757704198    -1.136926879869     0.542243179343
    H            3.055386913210     0.605615449850     0.705170273872
    H           -2.190573829777    -1.456600415486     0.988535651737
    H           -3.146494399106    -0.027746723718     0.581720230233
    H           -2.042887006752    -0.016602144393     1.971048326307

  Mulliken Charges: (a.u.)
   Center  Symbol    Alpha    Beta     Spin     Total
       1     O     4.26191  4.26191  0.00000 -0.52382
       2     C     2.73481  2.73481  0.00000  0.53037
       3     C     3.20916  3.20916  0.00000 -0.41832
       4     C     3.28744  3.28744  0.00000 -0.57488
       5     C     3.14966  3.14966  0.00000 -0.29933
       6     H     0.41340  0.41340  0.00000  0.17320
       7     H     0.40628  0.40628  0.00000  0.18744
       8     C     3.24185  3.24185  0.00000 -0.48370
       9     H     0.41604  0.41604  0.00000  0.16791
      10     H     0.40602  0.40602  0.00000  0.18796
      11     H     0.41563  0.41563  0.00000  0.16874
      12     H     0.42267  0.42267  0.00000  0.15466
      13     H     0.42170  0.42170  0.00000  0.15659
      14     H     0.40615  0.40615  0.00000  0.18770
      15     H     0.39684  0.39684  0.00000  0.20632
      16     H     0.41042  0.41042  0.00000  0.17916

   Total alpha = 24.00000, Total beta = 24.00000, Total charge =  0.00000
