  ==> Input File <==

--------------------------------------------------------------------------
set {
	reference rhf
	basis 6-31G*
}

set_num_threads( 1 )
memory 2 gb

molecule MOL {
0 1

H	 -4.031818	 -0.453427	 -0.000094
C	 -2.967712	 -0.297022	 -0.000064
C	 -2.458620	 0.992929	 0.000032
C	 -2.109895	 -1.385637	 -0.000122
H	 -3.124998	 1.836319	 0.000077
C	 -1.090278	 1.193236	 0.000070
H	 -2.506361	 -2.384847	 -0.000198
C	 -0.739812	 -1.187531	 -0.000085
H	 -0.678594	 2.184290	 0.000146
C	 -0.226438	 0.104061	 0.000012
H	 -0.072310	 -2.027032	 -0.000131
C	 1.239129	 0.373821	 0.000060
O	 1.580668	 1.385859	 0.783471
O	 2.030690	 -0.249905	 -0.634965
C	 2.957876	 1.711976	 0.843615
H	 3.529134	 0.874151	 1.215783
H	 3.032471	 2.547768	 1.521656
H	 3.324481	 1.987645	 -0.134407

	symmetry c1
}
set optking {
	frozen_dihedral = ("
		12 13 15 16,
		10 12 13 15
	")
}

ee = energy('scf')
oeprop('DIPOLE', 'QUADRUPOLE', 'MULLIKEN_CHARGES')
f=open( 'psi4out.xyz', 'w' )
f.write( "18  " )
f.write( str(ee) + "\n" )
f.write( MOL.save_string_xyz() )
f.close()
--------------------------------------------------------------------------

    Molecular point group: c1

    Geometry (in Angstrom), charge = 0, multiplicity = 1:

       Center              X                  Y                   Z               Mass
    ------------   -----------------  -----------------  -----------------  -----------------
           H         -3.976561627622    -0.753605913554    -0.111233184287     1.007825032070
           C         -2.912455627622    -0.597200913554    -0.111203184287    12.000000000000
           C         -2.403363627622     0.692750086446    -0.111107184287    12.000000000000
           C         -2.054638627622    -1.685815913554    -0.111261184287    12.000000000000
           H         -3.069741627622     1.536140086446    -0.111062184287     1.007825032070
           C         -1.035021627622     0.893057086446    -0.111069184287    12.000000000000
           H         -2.451104627622    -2.685025913554    -0.111337184287     1.007825032070
           C         -0.684555627622    -1.487709913554    -0.111224184287    12.000000000000
           H         -0.623337627622     1.884111086446    -0.110993184287     1.007825032070
           C         -0.171181627622    -0.196117913554    -0.111127184287    12.000000000000
           H         -0.017053627622    -2.327210913554    -0.111270184287     1.007825032070
           C          1.294385372378     0.073642086446    -0.111079184287    12.000000000000
           O          1.635924372378     1.085680086446     0.672331815713    15.994914619560
           O          2.085946372378    -0.550083913554    -0.746104184287    15.994914619560
           C          3.013132372378     1.411797086446     0.732475815713    12.000000000000
           H          3.584390372378     0.573972086446     1.104643815713     1.007825032070
           H          3.087727372378     2.247589086446     1.410516815713     1.007825032070
           H          3.379737372378     1.687466086446    -0.245546184287     1.007825032070

  Charge       = 0
  Multiplicity = 1
  Basis Set: 6-31G*
  Basis Set:

    Orbital Energies (a.u.)
    -----------------------

    Doubly Occupied:

       1A    -20.608983     2A    -20.545916     3A    -11.378372
       4A    -11.283421     5A    -11.248507     6A    -11.244917
       7A    -11.243637     8A    -11.243375     9A    -11.238805
      10A    -11.238477    11A     -1.473647    12A     -1.364109
      13A     -1.166240    14A     -1.049369    15A     -1.025794
      16A     -0.978563    17A     -0.860568    18A     -0.836771
      19A     -0.778740    20A     -0.738821    21A     -0.685529
      22A     -0.677841    23A     -0.673777    24A     -0.631061
      25A     -0.626920    26A     -0.598125    27A     -0.588505
      28A     -0.554282    29A     -0.532729    30A     -0.518179
      31A     -0.506369    32A     -0.500785    33A     -0.457966
      34A     -0.443471    35A     -0.343474    36A     -0.342343

  @DF-RHF Final Energy:  -457.34534204180937

   => Energetics <=

    Nuclear Repulsion Energy =            492.6030080843758583
    One-Electron Energy =               -1599.4400464682107668
    Two-Electron Energy =                 649.4916963420251932
    DFT Exchange-Correlation Energy =       0.0000000000000000
    Empirical Dispersion Energy =           0.0000000000000000
    PCM Polarization Energy =               0.0000000000000000
    EFP Energy =                            0.0000000000000000
    Total Energy =                       -457.3453420418096584

  Mulliken Charges: (a.u.)
   Center  Symbol    Alpha    Beta     Spin     Total
       1     H     0.39584  0.39584  0.00000  0.20833
       2     C     3.09294  3.09294  0.00000 -0.18588
       3     C     3.10408  3.10408  0.00000 -0.20815
       4     C     3.10484  3.10484  0.00000 -0.20968
       5     H     0.39606  0.39606  0.00000  0.20788
       6     C     3.09186  3.09186  0.00000 -0.18372
       7     H     0.39515  0.39515  0.00000  0.20970
       8     C     3.09127  3.09127  0.00000 -0.18254
       9     H     0.38526  0.38526  0.00000  0.22949
      10     C     3.03855  3.03855  0.00000 -0.07710
      11     H     0.38349  0.38349  0.00000  0.23302
      12     C     2.61605  2.61605  0.00000  0.76790
      13     O     4.30369  4.30369  0.00000 -0.60737
      14     O     4.28506  4.28506  0.00000 -0.57011
      15     C     3.09339  3.09339  0.00000 -0.18679
      16     H     0.40735  0.40735  0.00000  0.18529
      17     H     0.40727  0.40727  0.00000  0.18546
      18     H     0.40786  0.40786  0.00000  0.18428

   Total alpha = 36.00000, Total beta = 36.00000, Total charge = -0.00000
