  ==> Input File <==

--------------------------------------------------------------------------
set {
	reference rhf
	basis cc-pvtz
}

set_num_threads( 4 )
memory 2 gb

molecule MOL {
0 1

H	 -2.832109	 -0.661343	 0.918978
C	 -2.768027	 -0.308281	 -0.107727
O	 -1.448387	 -0.162153	 -0.513605
H	 -3.234501	 -1.036216	 -0.755339
H	 -3.316097	 0.629120	 -0.183782
C	 -0.718530	 0.758693	 0.228682
C	 0.718529	 0.758687	 -0.228709
H	 -1.130285	 1.759443	 0.098579
H	 -0.756483	 0.515577	 1.288344
O	 1.401606	 -0.295166	 0.366636
H	 0.748705	 0.673477	 -1.312803
H	 1.176496	 1.708671	 0.046552
C	 2.714315	 -0.441627	 -0.061017
H	 2.765292	 -0.641548	 -1.128869
H	 3.305661	 0.447341	 0.150952
H	 3.143725	 -1.278506	 0.470147

	symmetry c1
}
set optking {
	frozen_dihedral = ("
		3 6 7 11
	")
}

ee = optimize('scf')
oeprop('DIPOLE', 'QUADRUPOLE', 'MULLIKEN_CHARGES')
f=open( 'psi4out.xyz', 'w' )
f.write( "16  " )
f.write( str(ee) + "\n" )
f.write( MOL.save_string_xyz() )
f.close()
--------------------------------------------------------------------------

    Molecular point group: c1
  Charge       = 0
  Multiplicity = 1
  Basis Set: CC-PVTZ
  Basis Set:
  @DF-RHF Final Energy:  -307.09757967151046
    Total Energy =                       -307.0975796715108004
    Molecular point group: c1
  Basis Set: CC-PVTZ
  Basis Set:
  Basis Set: CC-PVTZ
  Basis Set:
  @DF-RHF Final Energy:  -307.09762819128724
    Total Energy =                       -307.0976281912875834
  Basis Set: CC-PVTZ
  Basis Set:
  Basis Set: CC-PVTZ
  Basis Set:
  @DF-RHF Final Energy:  -307.09763765365278
    Total Energy =                       -307.0976376536527823
  Basis Set: CC-PVTZ
  Basis Set:
  Charge       = 0
  Multiplicity = 1
  Basis Set: CC-PVTZ
  Basis Set:

    Orbital Energies (a.u.)
    -----------------------

    Doubly Occupied:

       1A    -20.548441     2A    -20.547962     3A    -11.267344
       4A    -11.266670     5A    -11.261900     6A    -11.261669
       7A     -1.391247     8A     -1.374952     9A     -1.031660
      10A     -0.937629    11A     -0.890820    12A     -0.825933
      13A     -0.685549    14A     -0.683726    15A     -0.659115
      16A     -0.636363    17A     -0.634498    18A     -0.599056
      19A     -0.546433    20A     -0.540079    21A     -0.509803
      22A     -0.480287    23A     -0.464896    24A     -0.424623
      25A     -0.413310

  @DF-RHF Final Energy:  -307.09763795489840

   => Energetics <=

    Nuclear Repulsion Energy =            258.4060765079415773
    One-Electron Energy =                -931.2394985449974456
    Two-Electron Energy =                 365.7357840821574086
    DFT Exchange-Correlation Energy =       0.0000000000000000
    Empirical Dispersion Energy =           0.0000000000000000
    PCM Polarization Energy =               0.0000000000000000
    EFP Energy =                            0.0000000000000000
    Total Energy =                       -307.0976379548985165
    Molecular point group: c1
  Basis Set: CC-PVTZ
  Basis Set:

  -Total Gradient:
     Atom            X                  Y                   Z
    ------   -----------------  -----------------  -----------------
       1        0.000002438476     0.000003278347    -0.000003880617
       2       -0.000018489038    -0.000025964634    -0.000024993881
       3       -0.000320622263     0.001116113020    -0.001019126520
       4       -0.000018366728    -0.000003739773     0.000006792463
       5        0.000002140597     0.000002637558     0.000004446572
       6        0.000432523105    -0.001900691450     0.001398380117
       7       -0.000105608504     0.002781313927    -0.000507767506
       8       -0.000006914445     0.000015690893     0.000013991579
       9       -0.000008037180    -0.000010435552    -0.000012333220
      10       -0.000022566678     0.000041938045    -0.000018471759
      11        0.000040955753    -0.001997611360     0.000162882883
      12       -0.000000721630    -0.000003511006     0.000001009044
      13        0.000028066133    -0.000023520453     0.000001788434
      14        0.000002713868     0.000002066224    -0.000000232618
      15       -0.000007736390    -0.000000862109     0.000000217372
      16        0.000000224928     0.000003298322    -0.000002702345

  **** Optimization is complete! (in 4 steps) ****
    Final optimized geometry and variables:
    Molecular point group: c1

    Geometry (in Angstrom), charge = 0, multiplicity = 1:

    H           -2.804627660506    -0.718570077165     0.970891656820
    C           -2.742678535509    -0.364615651193    -0.055537437315
    O           -1.423906478828    -0.206606877008    -0.460382359133
    H           -3.202519166875    -1.096045078373    -0.703988267899
    H           -3.298382794803     0.568254639857    -0.131656900791
    C           -0.703432474157     0.723923438469     0.281347254528
    C            0.737407963213     0.727048842310    -0.170264109257
    H           -1.125561568984     1.718474219720     0.138720370730
    H           -0.743922790547     0.490848347126     1.342421358095
    O            1.412098584907    -0.337769108152     0.420710792869
    H            0.766882139772     0.634637035222    -1.253104011501
    H            1.205234115917     1.669658248808     0.110282591004
    C            2.721771652469    -0.496753413367    -0.011846539091
    H            2.767236889360    -0.694330495633    -1.080383516091
    H            3.322824275509     0.385624802254     0.200320281982
    H            3.144630753493    -1.339214200282     0.515794465912

  Mulliken Charges: (a.u.)
   Center  Symbol    Alpha    Beta     Spin     Total
       1     H     0.46988  0.46988  0.00000  0.06023
       2     C     3.03155  3.03155  0.00000 -0.06310
       3     O     4.17184  4.17184  0.00000 -0.34369
       4     H     0.44647  0.44647  0.00000  0.10707
       5     H     0.47361  0.47361  0.00000  0.05279
       6     C     2.95987  2.95987  0.00000  0.08025
       7     C     2.96037  2.96037  0.00000  0.07926
       8     H     0.47665  0.47665  0.00000  0.04669
       9     H     0.46998  0.46998  0.00000  0.06004
      10     O     4.17229  4.17229  0.00000 -0.34458
      11     H     0.47001  0.47001  0.00000  0.05999
      12     H     0.47564  0.47564  0.00000  0.04872
      13     C     3.03148  3.03148  0.00000 -0.06296
      14     H     0.47017  0.47017  0.00000  0.05965
      15     H     0.47368  0.47368  0.00000  0.05265
      16     H     0.44651  0.44651  0.00000  0.10699

   Total alpha = 25.00000, Total beta = 25.00000, Total charge = -0.00000
