                              Psi4 1.0.54 Driver

  ==> Input File <==

--------------------------------------------------------------------------
set {
	reference rhf
	basis cc-pvtz
}

set_num_threads( 4 )
memory 2 gb

molecule MOL {
0 1

H	 -1.667241	 -1.511070	 -0.127479
O	 -2.321472	 -0.864941	 -0.318626
C	 -2.021813	 0.336996	 0.342658
C	 -0.669613	 0.837286	 -0.127252
H	 -2.780861	 1.084746	 0.127159
H	 -2.006390	 0.184138	 1.420053
C	 0.490865	 -0.082543	 0.241244
H	 -0.708709	 0.967192	 -1.204587
H	 -0.507562	 1.822272	 0.303070
C	 1.839800	 0.429565	 -0.255472
H	 0.305636	 -1.070211	 -0.165276
H	 0.527397	 -0.195943	 1.322876
C	 3.001144	 -0.485193	 0.119072
H	 1.804373	 0.541073	 -1.335756
H	 2.020437	 1.423114	 0.146921
H	 2.866892	 -1.477297	 -0.298806
H	 3.943543	 -0.095749	 -0.249061
H	 3.085064	 -0.590459	 1.195790

	symmetry c1
}
set optking {
	frozen_dihedral = ("
		1 2 3 4
	")
}

ee,wfn = optimize('scf', return_wfn=True)
oeprop( wfn, 'DIPOLE', 'QUADRUPOLE', 'MULLIKEN_CHARGES')
f=open( 'psi4out.xyz', 'w' )
f.write( "18  " )
f.write( str(ee) + "\n" )
f.write( MOL.save_string_xyz() )
f.close()
--------------------------------------------------------------------------

    Molecular point group: c1
  Charge       = 0
  Multiplicity = 1
  Basis Set: CC-PVTZ
  Basis Set:
  @DF-RHF Final Energy:  -271.28383831050587
    Total Energy =                       -271.2838383105058142
    Molecular point group: c1
  Basis Set: CC-PVTZ
  Basis Set:
  Basis Set: CC-PVTZ
  Basis Set:
  @DF-RHF Final Energy:  -271.28528992660642
    Total Energy =                       -271.2852899266062536
  Basis Set: CC-PVTZ
  Basis Set:
  Basis Set: CC-PVTZ
  Basis Set:
  @DF-RHF Final Energy:  -271.28601394110683
    Total Energy =                       -271.2860139411069440
  Basis Set: CC-PVTZ
  Basis Set:
  Basis Set: CC-PVTZ
  Basis Set:
  @DF-RHF Final Energy:  -271.28604901209360
    Total Energy =                       -271.2860490120935424
  Basis Set: CC-PVTZ
  Basis Set:
  Basis Set: CC-PVTZ
  Basis Set:
  @DF-RHF Final Energy:  -271.28605443825836
    Total Energy =                       -271.2860544382582475
  Basis Set: CC-PVTZ
  Basis Set:
  Charge       = 0
  Multiplicity = 1
  Basis Set: CC-PVTZ
  Basis Set:

    Orbital Energies (a.u.)
    -----------------------

    Doubly Occupied:

       1A    -20.544953     2A    -11.265040     3A    -11.220261
       4A    -11.218629     5A    -11.215513     6A    -11.210856
       7A     -1.363296     8A     -1.085201     9A     -1.014260
      10A     -0.923492    11A     -0.831946    12A     -0.794653
      13A     -0.692408    14A     -0.652116    15A     -0.618876
      16A     -0.608775    17A     -0.577703    18A     -0.564780
      19A     -0.528541    20A     -0.513404    21A     -0.495009
      22A     -0.476965    23A     -0.471119    24A     -0.454192
      25A     -0.430370

  @DF-RHF Final Energy:  -271.28605518886042

   => Energetics <=

    Nuclear Repulsion Energy =            249.0549513768126531
    One-Electron Energy =                -861.1373045941778628
    Two-Electron Energy =                 340.7962980285044523
    DFT Exchange-Correlation Energy =       0.0000000000000000
    Empirical Dispersion Energy =           0.0000000000000000
    PCM Polarization Energy =               0.0000000000000000
    EFP Energy =                            0.0000000000000000
    Total Energy =                       -271.2860551888607006
    Molecular point group: c1
  Basis Set: CC-PVTZ
  Basis Set:

  -Total Gradient:
     Atom            X                  Y                   Z
    ------   -----------------  -----------------  -----------------
       1        0.000445930974     0.000262054042    -0.000808539122
       2       -0.000378723610    -0.000383885515     0.001188564674
       3       -0.000317105566     0.000490488197    -0.000752690891
       4        0.000240391333    -0.000364590773     0.000344203601
       5        0.000033114247    -0.000013317198     0.000008879520
       6       -0.000013779133    -0.000007481127    -0.000014243480
       7       -0.000011047719    -0.000024315440     0.000008859186
       8        0.000025121688     0.000022610231    -0.000021853258
       9       -0.000015600646    -0.000019920305     0.000004518671
      10        0.000009200921     0.000036705078     0.000022339832
      11       -0.000016072800     0.000003999009     0.000002451872
      12        0.000014944703     0.000001684589     0.000028977072
      13       -0.000025713975    -0.000015888712    -0.000009255368
      14       -0.000001265435     0.000002314807     0.000006072159
      15        0.000014658894     0.000000519262     0.000002562552
      16        0.000001890503    -0.000002174236     0.000003048046
      17       -0.000004552989     0.000002894222    -0.000010169229
      18       -0.000001391386     0.000008303867    -0.000003725836

  **** Optimization is complete! (in 6 steps) ****
    Final optimized geometry and variables:
    Molecular point group: c1

    Geometry (in Angstrom), charge = 0, multiplicity = 1:

    H           -1.817318609736    -1.563224578595    -0.048264717100
    O           -2.439440566181    -0.884577574657    -0.233203342222
    C           -2.023096425433     0.325160338599     0.341101543452
    C           -0.674340859326     0.812825839948    -0.166913191620
    H           -2.788442801612     1.047247919319     0.091792978233
    H           -2.000288620484     0.239919258687     1.426182550131
    C            0.502922329337    -0.082963817513     0.211607143782
    H           -0.724899002172     0.915041618930    -1.246843789061
    H           -0.507748449501     1.808528801928     0.236487152643
    C            1.847938321226     0.461317472121    -0.262504442019
    H            0.365352768190    -1.075513242606    -0.211196280597
    H            0.528446500615    -0.208286276343     1.292152753521
    C            3.022803200272    -0.437921205266     0.106400398354
    H            1.819455270135     0.593849526321    -1.340268048172
    H            2.002915713441     1.449324958197     0.161841272098
    H            2.914458557167    -1.424011307908    -0.332990939186
    H            3.960138974940    -0.021861585341    -0.244216508271
    H            3.098250501700    -0.562672912239     1.181533079845

  Mulliken Charges: (a.u.)
   Center  Symbol    Alpha    Beta     Spin     Total
       1     H     0.39209  0.39209  0.00000  0.21582
       2     O     4.20566  4.20566  0.00000 -0.41132
       3     C     2.97475  2.97475  0.00000  0.05050
       4     C     3.09338  3.09338  0.00000 -0.18677
       5     H     0.44967  0.44967  0.00000  0.10067
       6     H     0.47182  0.47182  0.00000  0.05635
       7     C     3.09601  3.09601  0.00000 -0.19201
       8     H     0.44994  0.44994  0.00000  0.10012
       9     H     0.45586  0.45586  0.00000  0.08828
      10     C     3.08408  3.08408  0.00000 -0.16816
      11     H     0.46081  0.46081  0.00000  0.07837
      12     H     0.45263  0.45263  0.00000  0.09475
      13     C     3.14970  3.14970  0.00000 -0.29939
      14     H     0.45249  0.45249  0.00000  0.09503
      15     H     0.45345  0.45345  0.00000  0.09310
      16     H     0.45516  0.45516  0.00000  0.08968
      17     H     0.44746  0.44746  0.00000  0.10508
      18     H     0.45505  0.45505  0.00000  0.08990

   Total alpha = 25.00000, Total beta = 25.00000, Total charge =  0.00000

*** Psi4 exiting successfully. Buy a developer a beer!
