                              Psi4 1.0.54 Driver

  ==> Input File <==

--------------------------------------------------------------------------
set {
	reference rhf
	basis cc-pvtz
}

set_num_threads( 4 )
memory 2 gb

molecule MOL {
0 1

H	 5.269878	 0.195679	 1.068175
C	 4.673900	 -0.208485	 0.258034
C	 3.190199	 -0.204714	 0.610086
H	 4.865136	 0.391893	 -0.624684
H	 5.027838	 -1.214511	 0.056939
C	 2.319208	 -0.778154	 -0.505491
H	 2.876954	 0.809861	 0.827925
H	 3.035335	 -0.782733	 1.518235
C	 2.723224	 -0.316672	 -1.902163
H	 2.349652	 -1.860087	 -0.469107
H	 1.287312	 -0.485002	 -0.335092
C	 4.019616	 -0.917574	 -2.418659
H	 1.954811	 -0.594980	 -2.618998
H	 2.790860	 0.766242	 -1.949500
C	 4.688285	 -0.232252	 -3.594494
O	 4.487400	 -1.899289	 -1.938360
C	 3.851261	 -0.252128	 -4.877989
H	 5.633009	 -0.732943	 -3.757722
H	 4.898411	 0.797403	 -3.317270
C	 4.590895	 0.359581	 -6.064759
H	 3.582766	 -1.278461	 -5.112820
H	 2.920691	 0.285135	 -4.725057
C	 3.771671	 0.339395	 -7.350679
H	 5.521797	 -0.177217	 -6.220778
H	 4.864946	 1.383683	 -5.826675
H	 3.509117	 -0.674982	 -7.631367
H	 2.849566	 0.899677	 -7.237247
H	 4.324887	 0.777073	 -8.173299

	symmetry c1
}
set optking {
	frozen_dihedral = ("
		10 6 3 2
	")
}

ee,wfn = optimize('scf', return_wfn=True)
oeprop( wfn, 'DIPOLE', 'QUADRUPOLE', 'MULLIKEN_CHARGES')
f=open( 'psi4out.xyz', 'w' )
f.write( "28  " )
f.write( str(ee) + "\n" )
f.write( MOL.save_string_xyz() )
f.close()
--------------------------------------------------------------------------

    Molecular point group: c1
  Charge       = 0
  Multiplicity = 1
  Basis Set: CC-PVTZ
  Basis Set:
  @DF-RHF Final Energy:  -426.30594162759894
    Total Energy =                       -426.3059416275993954
    Molecular point group: c1
  Basis Set: CC-PVTZ
  Basis Set:
  Basis Set: CC-PVTZ
  Basis Set:
  @DF-RHF Final Energy:  -426.31175286187624
    Total Energy =                       -426.3117528618762435
  Basis Set: CC-PVTZ
  Basis Set:
  Basis Set: CC-PVTZ
  Basis Set:
  @DF-RHF Final Energy:  -426.31273499989106
    Total Energy =                       -426.3127349998914042
  Basis Set: CC-PVTZ
  Basis Set:
  Basis Set: CC-PVTZ
  Basis Set:
  @DF-RHF Final Energy:  -425.39928225136293
    Total Energy =                       -425.3992822513625924
  Basis Set: CC-PVTZ
  Basis Set:
  @DF-RHF Final Energy:  -425.77319193251117
    Total Energy =                       -425.7731919325113950
  @DF-RHF Final Energy:  -426.05615397291427
    Total Energy =                       -426.0561539729144442
  @DF-RHF Final Energy:  -426.24004498099464
    Total Energy =                       -426.2400449809945258
  @DF-RHF Final Energy:  -425.69638867516164
    Total Energy =                       -425.6963886751616428
  @DF-RHF Final Energy:  -425.98328420294462
    Total Energy =                       -425.9832842029450148
  @DF-RHF Final Energy:  -426.18503968291816
    Total Energy =                       -426.1850396829179317
  @DF-RHF Final Energy:  -426.24521117259781
    Total Energy =                       -426.2452111725979194
  @DF-RHF Final Energy:  -426.27209969417368
    Total Energy =                       -426.2720996941736757
  @DF-RHF Final Energy:  -426.29182254442208
    Total Energy =                       -426.2918225444217342
  @DF-RHF Final Energy:  -426.30261545688916
    Total Energy =                       -426.3026154568883612
  @DF-RHF Final Energy:  -426.30868205503725
    Total Energy =                       -426.3086820550373659
  @DF-RHF Final Energy:  -426.28206492067250
    Total Energy =                       -426.2820649206718144
  @DF-RHF Final Energy:  -426.30963906655870
    Total Energy =                       -426.3096390665584750
  @DF-RHF Final Energy:  -426.31101153226018
    Total Energy =                       -426.3110115322594993
  @DF-RHF Final Energy:  -426.31147454545862
    Total Energy =                       -426.3114745454585091
  @DF-RHF Final Energy:  -426.31236464638937
    Total Energy =                       -426.3123646463898240
  @DF-RHF Final Energy:  -426.31366912233443
    Total Energy =                       -426.3136691223348862
  @DF-RHF Final Energy:  -426.31289373171796
    Total Energy =                       -426.3128937317173950
  @DF-RHF Final Energy:  -426.31439924180381
    Total Energy =                       -426.3143992418033577
  @DF-RHF Final Energy:  -426.31484862496563
    Total Energy =                       -426.3148486249658617
  @DF-RHF Final Energy:  -426.31489123554616
    Total Energy =                       -426.3148912355461562
  @DF-RHF Final Energy:  -426.31500523275349
    Total Energy =                       -426.3150052327537196
  Basis Set: CC-PVTZ
  Basis Set:
  @DF-RHF Final Energy:  -426.31501116741345
    Total Energy =                       -426.3150111674131040
  Basis Set: CC-PVTZ
  Basis Set:
  Basis Set: CC-PVTZ
  Basis Set:
  @DF-RHF Final Energy:  -426.31502514263548
    Total Energy =                       -426.3150251426354771
  Basis Set: CC-PVTZ
  Basis Set:
  Basis Set: CC-PVTZ
  Basis Set:
  @DF-RHF Final Energy:  -426.31502698696852
    Total Energy =                       -426.3150269869688600
  Basis Set: CC-PVTZ
  Basis Set:
  Charge       = 0
  Multiplicity = 1
  Basis Set: CC-PVTZ
  Basis Set:

    Orbital Energies (a.u.)
    -----------------------

    Doubly Occupied:

       1A    -20.535247     2A    -11.316169     3A    -11.229635
       4A    -11.228414     5A    -11.226591     6A    -11.223598
       7A    -11.215415     8A    -11.214720     9A    -11.214031
      10A    -11.204555    11A     -1.395657    12A     -1.095952
      13A     -1.078105    14A     -1.021998    15A     -0.989749
      16A     -0.913325    17A     -0.881694    18A     -0.808671
      19A     -0.791386    20A     -0.723303    21A     -0.669315
      22A     -0.650110    23A     -0.640000    24A     -0.627176
      25A     -0.602403    26A     -0.594706    27A     -0.580135
      28A     -0.555781    29A     -0.552039    30A     -0.538250
      31A     -0.521909    32A     -0.512067    33A     -0.506941
      34A     -0.484708    35A     -0.478086    36A     -0.475675
      37A     -0.471754    38A     -0.459862    39A     -0.455696
      40A     -0.393532

  @DF-RHF Final Energy:  -426.31502721183756

   => Energetics <=

    Nuclear Repulsion Energy =            542.4099931656824083
    One-Electron Energy =               -1653.2933224628611697
    Two-Electron Energy =                 684.5683020853408607
    DFT Exchange-Correlation Energy =       0.0000000000000000
    Empirical Dispersion Energy =           0.0000000000000000
    PCM Polarization Energy =               0.0000000000000000
    EFP Energy =                            0.0000000000000000
    Total Energy =                       -426.3150272118379007
    Molecular point group: c1
  Basis Set: CC-PVTZ
  Basis Set:

  -Total Gradient:
     Atom            X                  Y                   Z
    ------   -----------------  -----------------  -----------------
       1        0.000018608605     0.000002939359    -0.000006906099
       2       -0.001165541810     0.000103699990    -0.003047329223
       3        0.001649299019    -0.001204650603     0.004533787703
       4       -0.000001415231    -0.000009153927     0.000014231405
       5       -0.000006365931    -0.000003800244    -0.000001561096
       6       -0.000386348634     0.005398660789    -0.002209958938
       7        0.000005859400     0.000007768160     0.000004099306
       8        0.000009903983     0.000006635041    -0.000010934024
       9       -0.000028752690     0.000017631101    -0.000004728962
      10       -0.000104280534    -0.004311254546     0.000691950996
      11       -0.000002319910     0.000011942633    -0.000003192164
      12       -0.000036234395    -0.000024002227    -0.000057899935
      13        0.000008282757    -0.000005171104     0.000013200473
      14       -0.000001339577    -0.000016785648     0.000009028381
      15       -0.000010140762     0.000009558491     0.000018160056
      16        0.000051939729     0.000026949096     0.000062279171
      17        0.000004632493    -0.000005409701    -0.000001118931
      18       -0.000003428393     0.000005390815    -0.000000274248
      19        0.000011929680    -0.000001386938    -0.000005273966
      20       -0.000008063594    -0.000011840283    -0.000003268390
      21       -0.000011854853    -0.000002704533    -0.000003876795
      22       -0.000001898380     0.000002168287     0.000002092149
      23        0.000006371870     0.000015151109     0.000006183626
      24       -0.000006197024    -0.000006221100    -0.000005237134
      25        0.000008753922    -0.000001665524     0.000000599264
      26       -0.000004834753    -0.000004478501    -0.000004280973
      27       -0.000000072241     0.000008634568     0.000004531955
      28        0.000003507253    -0.000008604559     0.000005696388

  **** Optimization is complete! (in 30 steps) ****
    Final optimized geometry and variables:
    Molecular point group: c1

    Geometry (in Angstrom), charge = 0, multiplicity = 1:

    H           -3.481180632507    -0.754330725607     2.656179228597
    C           -2.480804583894    -0.723991886016     2.239741173538
    C           -1.970201416643    -2.141006281037     1.991021202043
    H           -2.535990410645    -0.149776550540     1.321322366970
    H           -1.845552509666    -0.184104845871     2.930603567715
    C           -0.545484903978    -2.266101682422     1.432466460769
    H           -2.654174808085    -2.628903718925     1.300634882542
    H           -2.021639741623    -2.708464321651     2.913952367728
    C           -0.192648361736    -1.334845017513     0.274235333851
    H            0.179829897437    -2.153970770097     2.227585980839
    H           -0.430994516067    -3.286717296599     1.080459423020
    C            0.269324407103     0.057612277806     0.672529452459
    H            0.638031385625    -1.760287410799    -0.283453469349
    H           -1.012020405244    -1.259463416783    -0.433343784781
    C            0.161660346499     1.152965312163    -0.370097428696
    O            0.738283438626     0.277410689385     1.742234794204
    C            1.077573011121     0.930641450587    -1.578934005363
    H            0.411222489355     2.084714409738     0.119105211139
    H           -0.869687934903     1.214497048612    -0.706129677770
    C            1.015711519487     2.083807382591    -2.576789612285
    H            2.100103595506     0.809654129252    -1.232581928405
    H            0.809690024213     0.008498626815    -2.085086561330
    C            1.928348387306     1.877772638524    -3.780789816954
    H            1.285132257225     3.007102331318    -2.072814750345
    H           -0.008638001865     2.208822071925    -2.916761909906
    H            2.964418709019     1.781554384866    -3.474340005376
    H            1.660762183129     0.979180093495    -4.326648575071
    H            1.863230939351     2.713201899460    -4.467882032782

  Mulliken Charges: (a.u.)
   Center  Symbol    Alpha    Beta     Spin     Total
       1     H     0.44479  0.44479  0.00000  0.11043
       2     C     3.15852  3.15852  0.00000 -0.31705
       3     C     3.08815  3.08815  0.00000 -0.17631
       4     H     0.46094  0.46094  0.00000  0.07811
       5     H     0.44155  0.44155  0.00000  0.11691
       6     C     3.09700  3.09700  0.00000 -0.19399
       7     H     0.45573  0.45573  0.00000  0.08854
       8     H     0.44838  0.44838  0.00000  0.10323
       9     C     3.12987  3.12987  0.00000 -0.25973
      10     H     0.44003  0.44003  0.00000  0.11993
      11     H     0.44628  0.44628  0.00000  0.10744
      12     C     2.86139  2.86139  0.00000  0.27723
      13     H     0.43251  0.43251  0.00000  0.13499
      14     H     0.44151  0.44151  0.00000  0.11698
      15     C     3.09384  3.09384  0.00000 -0.18769
      16     O     4.18143  4.18143  0.00000 -0.36285
      17     C     3.10017  3.10017  0.00000 -0.20034
      18     H     0.43799  0.43799  0.00000  0.12402
      19     H     0.44897  0.44897  0.00000  0.10206
      20     C     3.08713  3.08713  0.00000 -0.17426
      21     H     0.44518  0.44518  0.00000  0.10964
      22     H     0.45032  0.45032  0.00000  0.09937
      23     C     3.14945  3.14945  0.00000 -0.29891
      24     H     0.44982  0.44982  0.00000  0.10035
      25     H     0.45363  0.45363  0.00000  0.09274
      26     H     0.45337  0.45337  0.00000  0.09325
      27     H     0.45521  0.45521  0.00000  0.08959
      28     H     0.44683  0.44683  0.00000  0.10633

   Total alpha = 40.00000, Total beta = 40.00000, Total charge = -0.00000

*** Psi4 exiting successfully. Buy a developer a beer!
