                              Psi4 1.0.54 Driver

  ==> Input File <==

--------------------------------------------------------------------------
set {
	reference rhf
	basis cc-pvtz
}

set_num_threads( 4 )
memory 2 gb

molecule MOL {
0 1

H	 2.614283	 2.028610	 0.296620
O	 3.358864	 1.662087	 -0.142800
C	 3.565468	 0.338079	 0.273842
C	 4.975150	 -0.168509	 0.007664
H	 3.373011	 0.329919	 1.338208
H	 2.836868	 -0.323861	 -0.190299
C	 5.331115	 -0.283752	 -1.472828
H	 5.679293	 0.493488	 0.502739
H	 5.074121	 -1.143735	 0.478341
C	 6.741175	 -0.826331	 -1.701248
H	 5.238732	 0.690673	 -1.940764
H	 4.613380	 -0.937141	 -1.966007
C	 7.124687	 -1.032389	 -3.167779
H	 7.460562	 -0.159194	 -1.232594
H	 6.832186	 -1.778384	 -1.185707
C	 7.252165	 0.249427	 -3.989021
H	 8.074157	 -1.559584	 -3.200956
H	 6.398335	 -1.690687	 -3.639172
C	 7.732424	 -0.000891	 -5.416292
H	 7.944959	 0.925252	 -3.492265
H	 6.297674	 0.765708	 -4.026488
C	 7.857209	 1.276434	 -6.240162
H	 8.694012	 -0.505978	 -5.387800
H	 7.045916	 -0.682626	 -5.911273
H	 8.561919	 1.966489	 -5.788005
H	 8.202265	 1.063607	 -7.245522
H	 6.902674	 1.786241	 -6.319604

	symmetry c1
}
set optking {
	frozen_dihedral = ("
		4 3 2 1
	")
}

ee,wfn = optimize('scf', return_wfn=True)
oeprop( wfn, 'DIPOLE', 'QUADRUPOLE', 'MULLIKEN_CHARGES')
f=open( 'psi4out.xyz', 'w' )
f.write( "27  " )
f.write( str(ee) + "\n" )
f.write( MOL.save_string_xyz() )
f.close()
--------------------------------------------------------------------------

    Molecular point group: c1
  Charge       = 0
  Multiplicity = 1
  Basis Set: CC-PVTZ
  Basis Set:
  @DF-RHF Final Energy:  -388.42638258083747
    Total Energy =                       -388.4263825808374122
    Molecular point group: c1
  Basis Set: CC-PVTZ
  Basis Set:
  Basis Set: CC-PVTZ
  Basis Set:
  @DF-RHF Final Energy:  -388.33684125534535
    Total Energy =                       -388.3368412553452345
  Basis Set: CC-PVTZ
  Basis Set:
  Basis Set: CC-PVTZ
  Basis Set:
  @DF-RHF Final Energy:  -388.41518056036040
    Total Energy =                       -388.4151805603607954
  Basis Set: CC-PVTZ
  Basis Set:
  Basis Set: CC-PVTZ
  Basis Set:
  @DF-RHF Final Energy:  -388.42783953371298
    Total Energy =                       -388.4278395337128131
  Basis Set: CC-PVTZ
  Basis Set:
  @DF-RHF Final Energy:  -388.42806298100578
    Total Energy =                       -388.4280629810053824
  Basis Set: CC-PVTZ
  Basis Set:
  @DF-RHF Final Energy:  -388.42810808009642
    Total Energy =                       -388.4281080800963082
  Basis Set: CC-PVTZ
  Basis Set:
  Basis Set: CC-PVTZ
  Basis Set:
  @DF-RHF Final Energy:  -388.42810919319379
    Total Energy =                       -388.4281091931935634
  Basis Set: CC-PVTZ
  Basis Set:
  Basis Set: CC-PVTZ
  Basis Set:
  @DF-RHF Final Energy:  -388.42811118346486
    Total Energy =                       -388.4281111834654894
  Basis Set: CC-PVTZ
  Basis Set:
  Charge       = 0
  Multiplicity = 1
  Basis Set: CC-PVTZ
  Basis Set:

    Orbital Energies (a.u.)
    -----------------------

    Doubly Occupied:

       1A    -20.545959     2A    -11.265855     3A    -11.210004
       4A    -11.208232     5A    -11.206827     6A    -11.206189
       7A    -11.204598     8A    -11.203756     9A    -11.202247
      10A     -1.363710    11A     -1.088980    12A     -1.057222
      13A     -1.008678    14A     -0.943598    15A     -0.879890
      16A     -0.811318    17A     -0.794697    18A     -0.771225
      19A     -0.706804    20A     -0.645936    21A     -0.640110
      22A     -0.614278    23A     -0.588336    24A     -0.580867
      25A     -0.570487    26A     -0.546566    27A     -0.538087
      28A     -0.518863    29A     -0.505141    30A     -0.496256
      31A     -0.476344    32A     -0.471108    33A     -0.459969
      34A     -0.453352    35A     -0.442182    36A     -0.435006
      37A     -0.429476

  @DF-RHF Final Energy:  -388.42811160411770

   => Energetics <=

    Nuclear Repulsion Energy =            460.6122187862208648
    One-Electron Energy =               -1439.8963538135460567
    Two-Electron Energy =                 590.8560234232079438
    DFT Exchange-Correlation Energy =       0.0000000000000000
    Empirical Dispersion Energy =           0.0000000000000000
    PCM Polarization Energy =               0.0000000000000000
    EFP Energy =                            0.0000000000000000
    Total Energy =                       -388.4281116041172481
    Molecular point group: c1
  Basis Set: CC-PVTZ
  Basis Set:

  -Total Gradient:
     Atom            X                  Y                   Z
    ------   -----------------  -----------------  -----------------
       1        0.000706805766     0.000682413257     0.000946577899
       2       -0.000766470266    -0.000722435006    -0.000900471823
       3       -0.000135393972    -0.000311652300    -0.000798010825
       4        0.000182580463     0.000366261733     0.000741547390
       5        0.000014216796    -0.000006945565    -0.000003378735
       6        0.000003126049    -0.000009321368    -0.000000477380
       7       -0.000015222261     0.000003092280     0.000003862847
       8        0.000010769863     0.000005581277    -0.000003989833
       9       -0.000009737782     0.000002814342     0.000002341113
      10        0.000008337259     0.000010586805     0.000013399066
      11        0.000001063570    -0.000004085849     0.000001105176
      12       -0.000001736133    -0.000002462240     0.000009576577
      13       -0.000013671141    -0.000012250390    -0.000010228418
      14        0.000004709348    -0.000007571925     0.000010075301
      15       -0.000000974155    -0.000001485883    -0.000002440112
      16       -0.000003691651    -0.000001966210    -0.000008099584
      17       -0.000004466245     0.000006706880    -0.000001457905
      18        0.000010006005    -0.000005453430    -0.000004350287
      19        0.000007373135     0.000013503307     0.000001704125
      20        0.000001928881    -0.000001467589    -0.000009342494
      21        0.000000960188     0.000000540653     0.000002821719
      22        0.000003063735    -0.000003357006     0.000001622251
      23        0.000005779445    -0.000002189631    -0.000002108693
      24       -0.000000955417     0.000003204021     0.000008023594
      25       -0.000001399021    -0.000002738678     0.000001354940
      26       -0.000001733606    -0.000001960090     0.000001512781
      27       -0.000005268858     0.000002638603    -0.000001168688

  **** Optimization is complete! (in 9 steps) ****
    Final optimized geometry and variables:
    Molecular point group: c1

    Geometry (in Angstrom), charge = 0, multiplicity = 1:

    H           -3.354027911702     0.365479734594     3.031237267786
    O           -2.569207207696     0.267680445548     2.525830801063
    C           -1.899402430916    -0.911957131848     2.892574413084
    C           -0.447576864282    -0.820641133198     2.463432102780
    H           -1.946744578050    -1.053446154414     3.968901092830
    H           -2.374164500676    -1.773283048205     2.427095549947
    C           -0.259084917184    -0.715293528885     0.952195726503
    H           -0.000057766209     0.040307716803     2.950613771342
    H            0.069975057931    -1.700723301259     2.836844329747
    C            1.210356067996    -0.605050416498     0.549857209705
    H           -0.814547937377     0.139982328108     0.590455446283
    H           -0.694929197163    -1.592087523541     0.477221754409
    C            1.464420980138    -0.583168092941    -0.958610589351
    H            1.638322333479     0.289042549010     0.997430721365
    H            1.752947484275    -1.444795946841     0.976536714579
    C            0.939948623748     0.655471009250    -1.682548326790
    H            2.535670939612    -0.654392988609    -1.126995605535
    H            1.029076020645    -1.472996197460    -1.407877216030
    C            1.293091445393     0.674100714580    -3.167470039719
    H            1.346571727458     1.545773384798    -1.207649494219
    H           -0.138318630350     0.720246463286    -1.576986608436
    C            0.768650353380     1.908497216342    -3.893501293256
    H            2.372548579669     0.621507145359    -3.281075946904
    H            0.894058316609    -0.218462337194    -3.641987688415
    H            1.175799499268     2.817681756613    -3.463501160641
    H            1.036892639036     1.890960012887    -4.943777460796
    H           -0.312654848697     1.970333804930    -3.829389485745

  Mulliken Charges: (a.u.)
   Center  Symbol    Alpha    Beta     Spin     Total
       1     H     0.39497  0.39497  0.00000  0.21006
       2     O     4.19878  4.19878  0.00000 -0.39755
       3     C     2.97354  2.97354  0.00000  0.05292
       4     C     3.08936  3.08936  0.00000 -0.17872
       5     H     0.46610  0.46610  0.00000  0.06781
       6     H     0.47340  0.47340  0.00000  0.05321
       7     C     3.09345  3.09345  0.00000 -0.18690
       8     H     0.45375  0.45375  0.00000  0.09251
       9     H     0.45448  0.45448  0.00000  0.09103
      10     C     3.09878  3.09878  0.00000 -0.19757
      11     H     0.44112  0.44112  0.00000  0.11776
      12     H     0.45828  0.45828  0.00000  0.08343
      13     C     3.09754  3.09754  0.00000 -0.19509
      14     H     0.45352  0.45352  0.00000  0.09296
      15     H     0.45032  0.45032  0.00000  0.09937
      16     C     3.08785  3.08785  0.00000 -0.17570
      17     H     0.44949  0.44949  0.00000  0.10101
      18     H     0.45465  0.45465  0.00000  0.09070
      19     C     3.08378  3.08378  0.00000 -0.16756
      20     H     0.45539  0.45539  0.00000  0.08921
      21     H     0.45184  0.45184  0.00000  0.09633
      22     C     3.14971  3.14971  0.00000 -0.29942
      23     H     0.45486  0.45486  0.00000  0.09028
      24     H     0.45524  0.45524  0.00000  0.08952
      25     H     0.45542  0.45542  0.00000  0.08916
      26     H     0.44927  0.44927  0.00000  0.10147
      27     H     0.45512  0.45512  0.00000  0.08977

   Total alpha = 37.00000, Total beta = 37.00000, Total charge = -0.00000

*** Psi4 exiting successfully. Buy a developer a beer!
