  ==> Input File <==

--------------------------------------------------------------------------
set {
	reference rhf
	basis 6-31G*
}

set_num_threads( 4 )
memory 2 gb

molecule MOL {
0 1

O	 -2.821601	 1.309235	 -0.001213
C	 -2.668563	 0.129746	 -0.000350
C	 -3.801572	 -0.864014	 -0.000442
O	 -1.481751	 -0.454642	 0.000584
H	 -4.417280	 -0.689587	 -0.874708
H	 -3.443784	 -1.883046	 -0.000565
H	 -4.417179	 -0.689832	 0.873954
C	 -0.334255	 0.388708	 0.000906
C	 0.891947	 -0.504646	 0.000751
H	 -0.365390	 1.025305	 -0.873475
H	 -0.365484	 1.024911	 0.875569
C	 1.793943	 -0.244366	 -1.207193
H	 0.570311	 -1.542399	 0.008382
H	 1.445776	 -0.340961	 0.921045
C	 3.036644	 -1.136363	 -1.226178
H	 1.227975	 -0.399768	 -2.124044
H	 2.102717	 0.799527	 -1.212426
C	 3.936841	 -0.877287	 -2.433402
H	 2.729903	 -2.179896	 -1.221333
H	 3.604610	 -0.980644	 -0.311718
H	 3.406431	 -1.057556	 -3.364092
H	 4.808378	 -1.524165	 -2.418988
H	 4.287980	 0.150581	 -2.447463

	symmetry c1
}
set optking {
	frozen_dihedral = ("
		13 9 8 10
	")
}

ee = optimize('scf')
oeprop('DIPOLE', 'QUADRUPOLE', 'MULLIKEN_CHARGES')
f=open( 'psi4out.xyz', 'w' )
f.write( "23  " )
f.write( str(ee) + "\n" )
f.write( MOL.save_string_xyz() )
f.close()
--------------------------------------------------------------------------

    Molecular point group: c1
  Charge       = 0
  Multiplicity = 1
  Basis Set: 6-31G*
  Basis Set:
  @DF-RHF Final Energy:  -422.97336480578713
    Total Energy =                       -422.9733648057872415
    Molecular point group: c1
  Basis Set: 6-31G*
  Basis Set:
  Basis Set: 6-31G*
  Basis Set:
  @DF-RHF Final Energy:  -422.97366392883117
    Total Energy =                       -422.9736639288303195
  Basis Set: 6-31G*
  Basis Set:
  Basis Set: 6-31G*
  Basis Set:
  @DF-RHF Final Energy:  -422.97378624365160
    Total Energy =                       -422.9737862436511477
  Basis Set: 6-31G*
  Basis Set:
  Basis Set: 6-31G*
  Basis Set:
  @DF-RHF Final Energy:  -422.97375881012874
    Total Energy =                       -422.9737588101281744
  Basis Set: 6-31G*
  Basis Set:
  Basis Set: 6-31G*
  Basis Set:
  @DF-RHF Final Energy:  -422.97378689509759
    Total Energy =                       -422.9737868950976463
  Basis Set: 6-31G*
  Basis Set:
  Charge       = 0
  Multiplicity = 1
  Basis Set: 6-31G*
  Basis Set:

    Orbital Energies (a.u.)
    -----------------------

    Doubly Occupied:

       1A    -20.602872     2A    -20.540384     3A    -11.373743
       4A    -11.281796     5A    -11.232392     6A    -11.224079
       7A    -11.222441     8A    -11.220634     9A    -11.212531
      10A     -1.467504    11A     -1.360278    12A     -1.091706
      13A     -1.040785    14A     -1.002383    15A     -0.930689
      16A     -0.842668    17A     -0.800755    18A     -0.779196
      19A     -0.688043    20A     -0.681321    21A     -0.666820
      22A     -0.645410    23A     -0.607277    24A     -0.583213
      25A     -0.581141    26A     -0.571307    27A     -0.558484
      28A     -0.534970    29A     -0.525641    30A     -0.502048
      31A     -0.498161    32A     -0.474826    33A     -0.470804
      34A     -0.464553    35A     -0.445233    36A     -0.435278

  @DF-RHF Final Energy:  -422.97378730091162

   => Energetics <=

    Nuclear Repulsion Energy =            451.2120964183303045
    One-Electron Energy =               -1470.0490310220727679
    Two-Electron Energy =                 595.8631473028309529
    DFT Exchange-Correlation Energy =       0.0000000000000000
    Empirical Dispersion Energy =           0.0000000000000000
    PCM Polarization Energy =               0.0000000000000000
    EFP Energy =                            0.0000000000000000
    Total Energy =                       -422.9737873009115674
    Molecular point group: c1
  Basis Set: 6-31G*
  Basis Set:

  -Total Gradient:
     Atom            X                  Y                   Z
    ------   -----------------  -----------------  -----------------
       1        0.000009235980    -0.000013839022     0.000075043541
       2       -0.000061125324     0.000000595536    -0.000204883276
       3       -0.000031000551     0.000000576591     0.000077287809
       4        0.000167278292     0.000112297318     0.000048039155
       5        0.000003626725     0.000001464079    -0.000001362859
       6       -0.000000331904     0.000003867365     0.000002187413
       7       -0.000022379724    -0.000012184769    -0.000003995217
       8       -0.000045140874    -0.000274445309    -0.000088518506
       9       -0.000001227814     0.000045311018    -0.000344022556
      10        0.000095365250     0.000182412429     0.000115018996
      11       -0.000028994520    -0.000046593758     0.000004789682
      12       -0.000099735179     0.000020279966     0.000056344517
      13       -0.000001548571    -0.000025869791     0.000267730101
      14       -0.000014535718     0.000027206491     0.000008365183
      15       -0.000028862407     0.000010201111     0.000018499138
      16        0.000006425686    -0.000008747386     0.000006164173
      17       -0.000017176705    -0.000004108564    -0.000007587824
      18        0.000047266016    -0.000020443567    -0.000005328794
      19        0.000011266683     0.000011575184    -0.000007277507
      20       -0.000006569438    -0.000010064759    -0.000005479410
      21       -0.000000189675     0.000000089831     0.000009145293
      22        0.000021712570     0.000004700689    -0.000022083289
      23       -0.000003358786    -0.000004280686     0.000001924235

  **** Optimization is complete! (in 6 steps) ****
    Final optimized geometry and variables:
    Molecular point group: c1

    Geometry (in Angstrom), charge = 0, multiplicity = 1:

    O           -2.651956108003     1.558618159187     0.561173359324
    C           -2.503700610019     0.378323733106     0.552030039110
    C           -3.641714342594    -0.609956033451     0.553886372434
    O           -1.320090867573    -0.211666946959     0.540562540057
    H           -4.263932733701    -0.425897433159    -0.313768011008
    H           -3.289130496537    -1.630763705657     0.543107296773
    H           -4.249084859496    -0.439517280171     1.434765019715
    C           -0.167650162254     0.629212869876     0.540796352102
    C            1.079777121035    -0.261171688213     0.524154509589
    H           -0.214576107152     1.273155575747    -0.326963639667
    H           -0.206895248486     1.261908425758     1.415955210124
    C            1.989802250338    -0.004576933182    -0.679313386311
    H            0.758682279577    -1.296988442230     0.526406208391
    H            1.644809534583    -0.113157079371     1.440075810232
    C            3.237401791244    -0.888430876625    -0.685445845843
    H            1.424956811843    -0.168997331399    -1.595143123008
    H            2.291162970156     1.041707763503    -0.690146564660
    C            4.144582964935    -0.631302958220    -1.888137342407
    H            2.936778561767    -1.933878752336    -0.676487116018
    H            3.799055883701    -0.724799516500     0.231823199909
    H            3.621472058179    -0.820166621788    -2.821220455396
    H            5.019924657832    -1.272765676365    -1.864226034377
    H            4.489645881908     0.398576872325    -1.905988512613

  Mulliken Charges: (a.u.)
   Center  Symbol    Alpha    Beta     Spin     Total
       1     O     4.28435  4.28435  0.00000 -0.56870
       2     C     2.61530  2.61530  0.00000  0.76940
       3     C     3.28749  3.28749  0.00000 -0.57499
       4     O     4.31133  4.31133  0.00000 -0.62266
       5     H     0.39757  0.39757  0.00000  0.20485
       6     H     0.40022  0.40022  0.00000  0.19955
       7     H     0.39747  0.39747  0.00000  0.20505
       8     C     3.00358  3.00358  0.00000 -0.00716
       9     C     3.17110  3.17110  0.00000 -0.34220
      10     H     0.40709  0.40709  0.00000  0.18582
      11     H     0.40788  0.40788  0.00000  0.18423
      12     C     3.15823  3.15823  0.00000 -0.31646
      13     H     0.40468  0.40468  0.00000  0.19064
      14     H     0.41626  0.41626  0.00000  0.16749
      15     C     3.15287  3.15287  0.00000 -0.30574
      16     H     0.41961  0.41961  0.00000  0.16078
      17     H     0.42172  0.42172  0.00000  0.15656
      18     C     3.23963  3.23963  0.00000 -0.47927
      19     H     0.42144  0.42144  0.00000  0.15711
      20     H     0.42209  0.42209  0.00000  0.15583
      21     H     0.42085  0.42085  0.00000  0.15831
      22     H     0.41823  0.41823  0.00000  0.16354
      23     H     0.42100  0.42100  0.00000  0.15800

   Total alpha = 36.00000, Total beta = 36.00000, Total charge = -0.00000
