  ==> Input File <==

--------------------------------------------------------------------------
set {
	reference rhf
	basis 6-31G*
}

set_num_threads( 1 )
memory 2 gb

molecule MOL {
0 1

H	 -3.420663	 1.227371	 -1.044276
O	 -3.452007	 0.283848	 -0.965577
C	 -3.181085	 -0.079926	 0.364119
C	 -1.765924	 0.277073	 0.805136
H	 -3.327791	 -1.152017	 0.410903
H	 -3.905698	 0.375695	 1.036898
C	 -1.534627	 0.111291	 2.307646
H	 -1.056186	 -0.340345	 0.253748
H	 -1.564940	 1.305732	 0.510710
C	 -0.105423	 0.450405	 2.736084
H	 -1.770931	 -0.908849	 2.594323
H	 -2.233584	 0.749136	 2.846169
C	 0.116812	 0.287796	 4.242157
H	 0.587815	 -0.182955	 2.187728
H	 0.125146	 1.475565	 2.448875
C	 1.508943	 0.700895	 4.733559
H	 -0.069923	 -0.747423	 4.523488
H	 -0.625678	 0.883085	 4.769563
C	 2.651692	 -0.174781	 4.216142
H	 1.512919	 0.671790	 5.820493
H	 1.694747	 1.737094	 4.457928
H	 2.486591	 -1.219407	 4.466414
H	 3.597157	 0.124358	 4.658238
H	 2.760924	 -0.105925	 3.138881

	symmetry c1
}
set optking {
	frozen_dihedral = ("
		20 16 13 17,
		17 13 10 7,
		13 10 7 11,
		11 7 4 3,
		1 2 3 5
	")
}

ee = energy('scf')
oeprop('DIPOLE', 'QUADRUPOLE', 'MULLIKEN_CHARGES')
f=open( 'psi4out.xyz', 'w' )
f.write( "24  " )
f.write( str(ee) + "\n" )
f.write( MOL.save_string_xyz() )
f.close()
--------------------------------------------------------------------------

    Molecular point group: c1

    Geometry (in Angstrom), charge = 0, multiplicity = 1:

       Center              X                  Y                   Z               Mass
    ------------   -----------------  -----------------  -----------------  -----------------
           H         -2.661270320352     0.991955046440    -3.290493031902     1.007825032070
           O         -2.692614320352     0.048432046440    -3.211794031902    15.994914619560
           C         -2.421692320352    -0.315341953560    -1.882098031902    12.000000000000
           C         -1.006531320352     0.041657046440    -1.441081031902    12.000000000000
           H         -2.568398320352    -1.387432953560    -1.835314031902     1.007825032070
           H         -3.146305320352     0.140279046440    -1.209319031902     1.007825032070
           C         -0.775234320352    -0.124124953560     0.061428968098    12.000000000000
           H         -0.296793320352    -0.575760953560    -1.992469031902     1.007825032070
           H         -0.805547320352     1.070316046440    -1.735507031902     1.007825032070
           C          0.653969679648     0.214989046440     0.489866968098    12.000000000000
           H         -1.011538320352    -1.144264953560     0.348105968098     1.007825032070
           H         -1.474191320352     0.513720046440     0.599951968098     1.007825032070
           C          0.876204679648     0.052380046440     1.995939968098    12.000000000000
           H          1.347207679648    -0.418370953560    -0.058489031902     1.007825032070
           H          0.884538679648     1.240149046440     0.202657968098     1.007825032070
           C          2.268335679648     0.465479046440     2.487341968098    12.000000000000
           H          0.689469679648    -0.982838953560     2.277270968098     1.007825032070
           H          0.133714679648     0.647669046440     2.523345968098     1.007825032070
           C          3.411084679648    -0.410196953560     1.969924968098    12.000000000000
           H          2.272311679648     0.436374046440     3.574275968098     1.007825032070
           H          2.454139679648     1.501678046440     2.211710968098     1.007825032070
           H          3.245983679648    -1.454822953560     2.220196968098     1.007825032070
           H          4.356549679648    -0.111057953560     2.412020968098     1.007825032070
           H          3.520316679648    -0.341340953560     0.892663968098     1.007825032070

  Charge       = 0
  Multiplicity = 1
  Basis Set: 6-31G*
  Basis Set:

    Orbital Energies (a.u.)
    -----------------------

    Doubly Occupied:

       1A    -20.552326     2A    -11.266930     3A    -11.219845
       4A    -11.216872     5A    -11.216737     6A    -11.216688
       7A    -11.215266     8A    -11.209177     9A     -1.358637
      10A     -1.093157    11A     -1.051701    12A     -0.986800
      13A     -0.915044    14A     -0.851203    15A     -0.805167
      16A     -0.779631    17A     -0.691778    18A     -0.653312
      19A     -0.624749    20A     -0.608872    21A     -0.602630
      22A     -0.587400    23A     -0.558274    24A     -0.537967
      25A     -0.527940    26A     -0.513215    27A     -0.488958
      28A     -0.483657    29A     -0.473035    30A     -0.462354
      31A     -0.456635    32A     -0.451403    33A     -0.420881

  @DF-RHF Final Energy:  -349.24680011175406

   => Energetics <=

    Nuclear Repulsion Energy =            379.7194754947418005
    One-Electron Energy =               -1225.7360149543392254
    Two-Electron Energy =                 496.7697393478433696
    DFT Exchange-Correlation Energy =       0.0000000000000000
    Empirical Dispersion Energy =           0.0000000000000000
    PCM Polarization Energy =               0.0000000000000000
    EFP Energy =                            0.0000000000000000
    Total Energy =                       -349.2468001117540553

  Mulliken Charges: (a.u.)
   Center  Symbol    Alpha    Beta     Spin     Total
       1     H     0.28341  0.28341  0.00000  0.43318
       2     O     4.37110  4.37110  0.00000 -0.74220
       3     C     2.98839  2.98839  0.00000  0.02322
       4     C     3.16636  3.16636  0.00000 -0.33272
       5     H     0.41612  0.41612  0.00000  0.16776
       6     H     0.43193  0.43193  0.00000  0.13614
       7     C     3.15947  3.15947  0.00000 -0.31894
       8     H     0.41549  0.41549  0.00000  0.16902
       9     H     0.42855  0.42855  0.00000  0.14289
      10     C     3.15317  3.15317  0.00000 -0.30633
      11     H     0.42104  0.42104  0.00000  0.15792
      12     H     0.42334  0.42334  0.00000  0.15331
      13     C     3.15256  3.15256  0.00000 -0.30512
      14     H     0.42002  0.42002  0.00000  0.15996
      15     H     0.42374  0.42374  0.00000  0.15253
      16     C     3.15245  3.15245  0.00000 -0.30491
      17     H     0.42385  0.42385  0.00000  0.15230
      18     H     0.42248  0.42248  0.00000  0.15503
      19     C     3.24132  3.24132  0.00000 -0.48264
      20     H     0.42076  0.42076  0.00000  0.15849
      21     H     0.42343  0.42343  0.00000  0.15314
      22     H     0.42209  0.42209  0.00000  0.15583
      23     H     0.41903  0.41903  0.00000  0.16194
      24     H     0.41990  0.41990  0.00000  0.16020

   Total alpha = 33.00000, Total beta = 33.00000, Total charge = -0.00000
