  ==> Input File <==

--------------------------------------------------------------------------
set {
	reference rhf
	basis cc-pvtz
}

set_num_threads( 4 )
memory 2 gb

molecule MOL {
0 1

H	 -2.816458	 -0.841657	 -0.064679
N	 -1.878861	 -0.711874	 0.250184
C	 -1.341419	 0.551458	 -0.220231
H	 -1.333674	 -1.468530	 -0.105118
C	 -2.032126	 1.708863	 0.463864
H	 -0.268033	 0.650897	 -0.063715
H	 -1.523284	 0.630620	 -1.286397
O	 -1.733606	 1.669409	 1.826595
H	 -1.691202	 2.649400	 0.033359
H	 -3.106599	 1.634327	 0.312597
C	 -2.367215	 2.646429	 2.583690
H	 -2.061034	 2.520610	 3.612188
H	 -2.088853	 3.645962	 2.256362
H	 -3.449281	 2.554756	 2.526323

	symmetry c1
}
set optking {
	frozen_dihedral = ("
		6 3 2 4
	")
}

ee = optimize('scf')
oeprop('DIPOLE', 'QUADRUPOLE', 'MULLIKEN_CHARGES')
f=open( 'psi4out.xyz', 'w' )
f.write( "14  " )
f.write( str(ee) + "\n" )
f.write( MOL.save_string_xyz() )
f.close()
--------------------------------------------------------------------------

    Molecular point group: c1
  Charge       = 0
  Multiplicity = 1
  Basis Set: CC-PVTZ
  Basis Set:
  @DF-RHF Final Energy:  -248.21918097464419
    Total Energy =                       -248.2191809746443028
    Molecular point group: c1
  Basis Set: CC-PVTZ
  Basis Set:
  Basis Set: CC-PVTZ
  Basis Set:
  @DF-RHF Final Energy:  -248.22121572716264
    Total Energy =                       -248.2212157271625870
  Basis Set: CC-PVTZ
  Basis Set:
  Basis Set: CC-PVTZ
  Basis Set:
  @DF-RHF Final Energy:  -248.22147887481319
    Total Energy =                       -248.2214788748130445
  Basis Set: CC-PVTZ
  Basis Set:
  Basis Set: CC-PVTZ
  Basis Set:
  @DF-RHF Final Energy:  -248.22149376423286
    Total Energy =                       -248.2214937642328891
  Basis Set: CC-PVTZ
  Basis Set:
  Charge       = 0
  Multiplicity = 1
  Basis Set: CC-PVTZ
  Basis Set:

    Orbital Energies (a.u.)
    -----------------------

    Doubly Occupied:

       1A    -20.543559     2A    -15.526162     3A    -11.264261
       4A    -11.258993     5A    -11.241566     6A     -1.379966
       7A     -1.177775     8A     -0.999718     9A     -0.903417
      10A     -0.818500    11A     -0.683398    12A     -0.668208
      13A     -0.648603    14A     -0.619863    15A     -0.596814
      16A     -0.551342    17A     -0.520741    18A     -0.502641
      19A     -0.465381    20A     -0.415251    21A     -0.383679

  @DF-RHF Final Energy:  -248.22149489142802

   => Energetics <=

    Nuclear Repulsion Energy =            193.4685379431463446
    One-Electron Energy =                -721.0403809927595375
    Two-Electron Energy =                 279.3503481581852839
    DFT Exchange-Correlation Energy =       0.0000000000000000
    Empirical Dispersion Energy =           0.0000000000000000
    PCM Polarization Energy =               0.0000000000000000
    EFP Energy =                            0.0000000000000000
    Total Energy =                       -248.2214948914279375
    Molecular point group: c1
  Basis Set: CC-PVTZ
  Basis Set:

  -Total Gradient:
     Atom            X                  Y                   Z
    ------   -----------------  -----------------  -----------------
       1        0.000023648014     0.000004326466     0.000020832141
       2       -0.000043955034     0.000067649320    -0.000149015346
       3       -0.000059427534     0.000002973119     0.000157041198
       4        0.000037939940    -0.000000172962     0.000062601635
       5       -0.000016682106    -0.000074948609     0.000063564196
       6        0.000056663546    -0.000021958494    -0.000043308113
       7       -0.000020762846    -0.000005122071     0.000006409487
       8        0.000029732019     0.000000610678    -0.000096714729
       9        0.000022862954     0.000015039659     0.000039528925
      10       -0.000036249487    -0.000001761384    -0.000041337564
      11        0.000020596246     0.000038260679    -0.000017940320
      12       -0.000002542587    -0.000013436921    -0.000008724015
      13       -0.000006635460    -0.000001003818     0.000008694445
      14       -0.000005187664    -0.000010455659    -0.000001631939

  **** Optimization is complete! (in 5 steps) ****
    Final optimized geometry and variables:
    Molecular point group: c1

    Geometry (in Angstrom), charge = 0, multiplicity = 1:

    H           -0.933827444693    -2.050037201555    -1.168401963788
    N           -0.017051778550    -1.916057502832    -0.797037411142
    C            0.527332775024    -0.630031984249    -1.191612104308
    H            0.552228038334    -2.664910982627    -1.127726554049
    C           -0.165912786083     0.518351570445    -0.488046115412
    H            1.576471909262    -0.605507947700    -0.924434877263
    H            0.462879865690    -0.448712792601    -2.265205270614
    O            0.179957615258     0.536745409184     0.856849808507
    H            0.126081691653     1.455583129446    -0.962200867213
    H           -1.246886490067     0.422293698789    -0.601294347752
    C           -0.466216835156     1.512113674554     1.602316397384
    H           -0.113880662650     1.437974486233     2.620874368235
    H           -0.249342768725     2.511780255411     1.229578103094
    H           -1.545060606639     1.370653364231     1.595195943774

  Mulliken Charges: (a.u.)
   Center  Symbol    Alpha    Beta     Spin     Total
       1     H     0.43276  0.43276  0.00000  0.13447
       2     N     3.68503  3.68503  0.00000 -0.37006
       3     C     3.02513  3.02513  0.00000 -0.05027
       4     H     0.42852  0.42852  0.00000  0.14296
       5     C     2.96039  2.96039  0.00000  0.07921
       6     H     0.45401  0.45401  0.00000  0.09197
       7     H     0.46899  0.46899  0.00000  0.06202
       8     O     4.16673  4.16673  0.00000 -0.33346
       9     H     0.47315  0.47315  0.00000  0.05370
      10     H     0.48005  0.48005  0.00000  0.03990
      11     C     3.03205  3.03205  0.00000 -0.06409
      12     H     0.44669  0.44669  0.00000  0.10663
      13     H     0.47415  0.47415  0.00000  0.05170
      14     H     0.47234  0.47234  0.00000  0.05531

   Total alpha = 21.00000, Total beta = 21.00000, Total charge = -0.00000
