  ==> Input File <==

--------------------------------------------------------------------------
set {
	reference rhf
	basis 6-31G*
}

set_num_threads( 1 )
memory 2 gb

molecule MOL {
0 1

O	 -2.042549	 -1.228399	 -0.269030
C	 -1.653912	 -0.146171	 0.050137
C	 -0.332303	 0.024011	 0.778412
C	 -2.438579	 1.106236	 -0.272369
C	 0.845713	 -0.001731	 -0.208243
H	 -0.323783	 0.953829	 1.340327
H	 -0.235459	 -0.796807	 1.480410
C	 1.230906	 1.393577	 -0.701978
H	 0.596257	 -0.628131	 -1.062923
H	 1.696535	 -0.466812	 0.280575
C	 2.407887	 1.371818	 -1.676375
H	 0.371883	 1.857179	 -1.182163
H	 1.479537	 2.019202	 0.152039
H	 2.176945	 0.780882	 -2.558142
H	 3.291685	 0.942967	 -1.213310
H	 2.660641	 2.374182	 -2.007145
H	 -3.277823	 0.863061	 -0.908988
H	 -1.806773	 1.843019	 -0.759671
H	 -2.802853	 1.554979	 0.648059

	symmetry c1
}
set optking {
	frozen_dihedral = ("
		11 8 5 9,
		5 3 2 4
	")
}

ee = energy('scf')
oeprop('DIPOLE', 'QUADRUPOLE', 'MULLIKEN_CHARGES')
f=open( 'psi4out.xyz', 'w' )
f.write( "19  " )
f.write( str(ee) + "\n" )
f.write( MOL.save_string_xyz() )
f.close()
--------------------------------------------------------------------------

    Molecular point group: c1

    Geometry (in Angstrom), charge = 0, multiplicity = 1:

       Center              X                  Y                   Z               Mass
    ------------   -----------------  -----------------  -----------------  -----------------
           O         -1.761827162201    -1.595180208926     0.075707322619    15.994914619560
           C         -1.373190162201    -0.512952208926     0.394874322619    12.000000000000
           C         -0.051581162201    -0.342770208926     1.123149322619    12.000000000000
           C         -2.157857162201     0.739454791074     0.072368322619    12.000000000000
           C          1.126434837799    -0.368512208926     0.136494322619    12.000000000000
           H         -0.043061162201     0.587047791074     1.685064322619     1.007825032070
           H          0.045262837799    -1.163588208926     1.825147322619     1.007825032070
           C          1.511627837799     1.026795791074    -0.357240677381    12.000000000000
           H          0.876978837799    -0.994912208926    -0.718185677381     1.007825032070
           H          1.977256837799    -0.833593208926     0.625312322619     1.007825032070
           C          2.688608837799     1.005036791074    -1.331637677381    12.000000000000
           H          0.652604837799     1.490397791074    -0.837425677381     1.007825032070
           H          1.760258837799     1.652420791074     0.496776322619     1.007825032070
           H          2.457666837799     0.414100791074    -2.213404677381     1.007825032070
           H          3.572406837799     0.576185791074    -0.868572677381     1.007825032070
           H          2.941362837799     2.007400791074    -1.662407677381     1.007825032070
           H         -2.997101162201     0.496279791074    -0.564250677381     1.007825032070
           H         -1.526051162201     1.476237791074    -0.414933677381     1.007825032070
           H         -2.522131162201     1.188197791074     0.992796322619     1.007825032070

  Charge       = 0
  Multiplicity = 1
  Basis Set: 6-31G*
  Basis Set:

    Orbital Energies (a.u.)
    -----------------------

    Doubly Occupied:

       1A    -20.546980     2A    -11.324428     3A    -11.229644
       4A    -11.228548     5A    -11.227892     6A    -11.226799
       7A    -11.216071     8A     -1.393006     9A     -1.093390
      10A     -1.027553    11A     -0.985407    12A     -0.890479
      13A     -0.809908    14A     -0.733926    15A     -0.664246
      16A     -0.641329    17A     -0.622793    18A     -0.609814
      19A     -0.585118    20A     -0.575290    21A     -0.562565
      22A     -0.527042    23A     -0.521786    24A     -0.506804
      25A     -0.480999    26A     -0.473930    27A     -0.460240
      28A     -0.397529

  @DF-RHF Final Energy:  -309.06047781839288

   => Energetics <=

    Nuclear Repulsion Energy =            306.7494056336967105
    One-Electron Energy =               -1026.4924947080321544
    Two-Electron Energy =                 410.6826112559426747
    DFT Exchange-Correlation Energy =       0.0000000000000000
    Empirical Dispersion Energy =           0.0000000000000000
    PCM Polarization Energy =               0.0000000000000000
    EFP Energy =                            0.0000000000000000
    Total Energy =                       -309.0604778183927692

  Mulliken Charges: (a.u.)
   Center  Symbol    Alpha    Beta     Spin     Total
       1     O     4.26221  4.26221  0.00000 -0.52442
       2     C     2.73860  2.73860  0.00000  0.52281
       3     C     3.20222  3.20222  0.00000 -0.40443
       4     C     3.29089  3.29089  0.00000 -0.58178
       5     C     3.16277  3.16277  0.00000 -0.32555
       6     H     0.41560  0.41560  0.00000  0.16880
       7     H     0.39852  0.39852  0.00000  0.20297
       8     C     3.15608  3.15608  0.00000 -0.31217
       9     H     0.40686  0.40686  0.00000  0.18628
      10     H     0.41324  0.41324  0.00000  0.17353
      11     C     3.24009  3.24009  0.00000 -0.48018
      12     H     0.42304  0.42304  0.00000  0.15391
      13     H     0.42103  0.42103  0.00000  0.15795
      14     H     0.41896  0.41896  0.00000  0.16207
      15     H     0.41973  0.41973  0.00000  0.16053
      16     H     0.41779  0.41779  0.00000  0.16442
      17     H     0.39736  0.39736  0.00000  0.20528
      18     H     0.40835  0.40835  0.00000  0.18329
      19     H     0.40666  0.40666  0.00000  0.18669

   Total alpha = 28.00000, Total beta = 28.00000, Total charge = -0.00000
