                              Psi4 1.0.54 Driver

  ==> Input File <==

--------------------------------------------------------------------------
set {
	reference rhf
	basis cc-pvtz
}

set_num_threads( 4 )
memory 2 gb

molecule MOL {
0 1

H	 1.630835	 -0.646928	 2.322561
O	 0.948872	 -0.097032	 1.984043
C	 1.135873	 0.113391	 0.608264
C	 0.027642	 1.012027	 0.090274
H	 1.104723	 -0.832466	 0.073333
H	 2.108788	 0.559599	 0.421725
C	 -1.138737	 0.285728	 -0.581921
H	 0.464661	 1.708096	 -0.618252
H	 -0.340737	 1.603071	 0.925246
C	 -1.933983	 -0.631436	 0.343653
H	 -0.763151	 -0.285569	 -1.422081
H	 -1.808359	 1.035291	 -0.992333
H	 -2.789188	 -1.049673	 -0.174718
H	 -1.335629	 -1.461368	 0.700418
H	 -2.305435	 -0.092167	 1.209725

	symmetry c1
}
set optking {
	frozen_dihedral = ("
		2 3 4 8
	")
}

ee,wfn = optimize('scf', return_wfn=True)
oeprop( wfn, 'DIPOLE', 'QUADRUPOLE', 'MULLIKEN_CHARGES')
f=open( 'psi4out.xyz', 'w' )
f.write( "15  " )
f.write( str(ee) + "\n" )
f.write( MOL.save_string_xyz() )
f.close()
--------------------------------------------------------------------------

    Molecular point group: c1
  Charge       = 0
  Multiplicity = 1
  Basis Set: CC-PVTZ
  Basis Set:
  @DF-RHF Final Energy:  -232.23379811571954
    Total Energy =                       -232.2337981157198783
    Molecular point group: c1
  Basis Set: CC-PVTZ
  Basis Set:
  Basis Set: CC-PVTZ
  Basis Set:
  @DF-RHF Final Energy:  -232.23419685656242
    Total Energy =                       -232.2341968565625621
  Basis Set: CC-PVTZ
  Basis Set:
  Basis Set: CC-PVTZ
  Basis Set:
  @DF-RHF Final Energy:  -232.23425207579936
    Total Energy =                       -232.2342520757995885
  Basis Set: CC-PVTZ
  Basis Set:
  Basis Set: CC-PVTZ
  Basis Set:
  @DF-RHF Final Energy:  -232.23425576203974
    Total Energy =                       -232.2342557620398225
  Basis Set: CC-PVTZ
  Basis Set:
  Basis Set: CC-PVTZ
  Basis Set:
  @DF-RHF Final Energy:  -232.23425783731648
    Total Energy =                       -232.2342578373165907
  Basis Set: CC-PVTZ
  Basis Set:
  Charge       = 0
  Multiplicity = 1
  Basis Set: CC-PVTZ
  Basis Set:

    Orbital Energies (a.u.)
    -----------------------

    Doubly Occupied:

       1A    -20.546144     2A    -11.266277     3A    -11.212164
       4A    -11.210124     5A    -11.199745     6A     -1.363379
       7A     -1.066023     8A     -0.969609     9A     -0.866586
      10A     -0.782137    11A     -0.703976    12A     -0.649088
      13A     -0.610845    14A     -0.574551    15A     -0.556178
      16A     -0.541498    17A     -0.503840    18A     -0.478507
      19A     -0.468556    20A     -0.456540    21A     -0.429581

  @DF-RHF Final Energy:  -232.23425806790519

   => Energetics <=

    Nuclear Repulsion Energy =            191.7424083708885121
    One-Electron Energy =                -695.0426392052154370
    Two-Electron Energy =                 271.0659727664215097
    DFT Exchange-Correlation Energy =       0.0000000000000000
    Empirical Dispersion Energy =           0.0000000000000000
    PCM Polarization Energy =               0.0000000000000000
    EFP Energy =                            0.0000000000000000
    Total Energy =                       -232.2342580679054436
    Molecular point group: c1
  Basis Set: CC-PVTZ
  Basis Set:

  -Total Gradient:
     Atom            X                  Y                   Z
    ------   -----------------  -----------------  -----------------
       1       -0.000022924912     0.000012951867     0.000001240699
       2        0.001483465126     0.002145496803     0.000563263696
       3       -0.001764500309    -0.002283878404    -0.000166329233
       4       -0.000236992967    -0.002119410188    -0.003036722705
       5       -0.000011715974     0.000013645942     0.000007546020
       6       -0.000002679064    -0.000009065575     0.000012686320
       7        0.000020828434     0.000015387976     0.000021804784
       8        0.000544563540     0.002210384211     0.002574416049
       9       -0.000013252014     0.000001102540     0.000013919823
      10       -0.000002011864    -0.000003625633    -0.000016390264
      11       -0.000004533504     0.000010632347     0.000020191273
      12        0.000001929018     0.000001247258     0.000006049874
      13        0.000023322617     0.000001364256     0.000016755518
      14       -0.000011021851     0.000005347838    -0.000008584219
      15       -0.000004476274    -0.000001581239    -0.000009847635

  **** Optimization is complete! (in 6 steps) ****
    Final optimized geometry and variables:
    Molecular point group: c1

    Geometry (in Angstrom), charge = 0, multiplicity = 1:

    H            1.761364858427    -0.792118413525     1.773395499049
    O            1.099969219274    -0.212530929647     1.442828209882
    C            1.300728015478     0.013296970913     0.069632180893
    C            0.179921814452     0.903585490499    -0.462838363660
    H            1.329408344865    -0.928626900011    -0.473186485725
    H            2.258859258310     0.502880141576    -0.080373012791
    C           -0.985461926679     0.163885810751    -1.118103520518
    H            0.601106309782     1.617900601878    -1.162520389688
    H           -0.183419753645     1.491837037324     0.373540519762
    C           -1.760258671123    -0.749594998157    -0.172191468519
    H           -0.612749520295    -0.416967839734    -1.958055945320
    H           -1.666500558655     0.897658427617    -1.538268678318
    H           -2.577986474965    -1.235711592281    -0.692408972434
    H           -1.127101151911    -1.520538249394     0.249004071884
    H           -2.177310143988    -0.186516568257     0.655302709605

  Mulliken Charges: (a.u.)
   Center  Symbol    Alpha    Beta     Spin     Total
       1     H     0.39533  0.39533  0.00000  0.20934
       2     O     4.20002  4.20002  0.00000 -0.40005
       3     C     2.97941  2.97941  0.00000  0.04119
       4     C     3.09584  3.09584  0.00000 -0.19167
       5     H     0.47069  0.47069  0.00000  0.05862
       6     H     0.46152  0.46152  0.00000  0.07696
       7     C     3.09344  3.09344  0.00000 -0.18688
       8     H     0.44692  0.44692  0.00000  0.10616
       9     H     0.44924  0.44924  0.00000  0.10151
      10     C     3.13937  3.13937  0.00000 -0.27874
      11     H     0.45749  0.45749  0.00000  0.08503
      12     H     0.45049  0.45049  0.00000  0.09903
      13     H     0.45158  0.45158  0.00000  0.09685
      14     H     0.45456  0.45456  0.00000  0.09089
      15     H     0.45411  0.45411  0.00000  0.09179

   Total alpha = 21.00000, Total beta = 21.00000, Total charge = -0.00000

*** Psi4 exiting successfully. Buy a developer a beer!
