  ==> Input File <==

--------------------------------------------------------------------------
set {
	reference rhf
	basis cc-pvtz
}

set_num_threads( 4 )
memory 2 gb

molecule MOL {
0 1

H	 -1.121859	 -0.713851	 0.470511
N	 -0.712187	 0.000026	 -0.093397
C	 0.734067	 -0.000020	 0.038424
H	 -1.097822	 0.869684	 0.207310
H	 1.140372	 -0.872115	 -0.458226
H	 1.140363	 0.872301	 -0.457869
H	 1.095085	 -0.000244	 1.065614

	symmetry c1
}
set optking {
	frozen_dihedral = ("
		1 2 3 7
	")
}

ee = optimize('scf')
oeprop('DIPOLE', 'QUADRUPOLE', 'MULLIKEN_CHARGES')
f=open( 'psi4out.xyz', 'w' )
f.write( "7  " )
f.write( str(ee) + "\n" )
f.write( MOL.save_string_xyz() )
f.close()
--------------------------------------------------------------------------

    Molecular point group: c1
  Charge       = 0
  Multiplicity = 1
  Basis Set: CC-PVTZ
  Basis Set:
  @DF-RHF Final Energy:   -95.25355718960483
    Total Energy =                        -95.2535571896048339
    Molecular point group: c1
  Basis Set: CC-PVTZ
  Basis Set:
  Basis Set: CC-PVTZ
  Basis Set:
  @DF-RHF Final Energy:   -95.25357026064569
    Total Energy =                        -95.2535702606456738
  Basis Set: CC-PVTZ
  Basis Set:
  Charge       = 0
  Multiplicity = 1
  Basis Set: CC-PVTZ
  Basis Set:

    Orbital Energies (a.u.)
    -----------------------

    Doubly Occupied:

       1A    -15.528931     2A    -11.235617     3A     -1.172474
       4A     -0.897230     5A     -0.665252     6A     -0.603504
       7A     -0.558327     8A     -0.517299     9A     -0.387612

  @DF-RHF Final Energy:   -95.25357096654818

   => Energetics <=

    Nuclear Repulsion Energy =             42.3818653667116223
    One-Electron Energy =                -212.1383804374069371
    Two-Electron Energy =                  74.5029441041470903
    DFT Exchange-Correlation Energy =       0.0000000000000000
    Empirical Dispersion Energy =           0.0000000000000000
    PCM Polarization Energy =               0.0000000000000000
    EFP Energy =                            0.0000000000000000
    Total Energy =                        -95.2535709665482244
    Molecular point group: c1
  Basis Set: CC-PVTZ
  Basis Set:

  -Total Gradient:
     Atom            X                  Y                   Z
    ------   -----------------  -----------------  -----------------
       1       -0.000059759343     0.000863204915     0.000971471506
       2        0.000170076707    -0.001391995362    -0.001233823221
       3       -0.000161839145     0.001795491528     0.000259352752
       4        0.000016206975    -0.000024398948    -0.000005431034
       5        0.000024670879    -0.000002421739     0.000007762056
       6       -0.000027298962    -0.000004228052    -0.000009369300
       7        0.000037942889    -0.001235652343     0.000010037242

  **** Optimization is complete! (in 3 steps) ****
    Final optimized geometry and variables:
    Molecular point group: c1

    Geometry (in Angstrom), charge = 0, multiplicity = 1:

    H           -1.121864663074    -0.719495102904     0.469015959661
    N           -0.712630643110    -0.004920767185    -0.094794859575
    C            0.734166508964    -0.004547950093     0.039596705023
    H           -1.095268884909     0.861486444671     0.219739896077
    H            1.143247042662    -0.879617753457    -0.450637677933
    H            1.141672541769     0.864807534341    -0.460209598579
    H            1.092158883340    -0.004658597179     1.067733220204

  Mulliken Charges: (a.u.)
   Center  Symbol    Alpha    Beta     Spin     Total
       1     H     0.42932  0.42932  0.00000  0.14137
       2     N     3.68573  3.68573  0.00000 -0.37147
       3     C     3.07153  3.07153  0.00000 -0.14307
       4     H     0.42882  0.42882  0.00000  0.14237
       5     H     0.45634  0.45634  0.00000  0.08732
       6     H     0.45615  0.45615  0.00000  0.08769
       7     H     0.47211  0.47211  0.00000  0.05578

   Total alpha =  9.00000, Total beta =  9.00000, Total charge = -0.00000
