  ==> Input File <==

--------------------------------------------------------------------------
set {
	reference rhf
	basis 6-31G*
}

set_num_threads( 1 )
memory 2 gb

molecule MOL {
0 1

O	 2.846782	 -1.231332	 -1.843427
C	 2.498453	 -1.118115	 -0.712538
C	 1.068423	 -1.036922	 -0.235874
O	 3.347903	 -1.046386	 0.304773
C	 0.051483	 -1.127835	 -1.371516
H	 0.931840	 -1.825587	 0.496618
H	 0.962483	 -0.102993	 0.310250
C	 -1.400030	 -0.941901	 -0.916505
H	 0.159752	 -2.084268	 -1.874142
H	 0.291280	 -0.372085	 -2.111625
C	 -1.938405	 -2.050398	 -0.007387
H	 -2.026476	 -0.885408	 -1.803691
H	 -1.502178	 0.018781	 -0.413848
C	 -3.420862	 -1.876518	 0.328896
H	 -1.790432	 -3.014116	 -0.492331
H	 -1.369875	 -2.084190	 0.919222
C	 -3.968428	 -2.975678	 1.241119
H	 -3.998867	 -1.855098	 -0.593430
H	 -3.571152	 -0.908415	 0.804174
C	 -5.450378	 -2.796769	 1.569017
H	 -3.818144	 -3.943848	 0.768146
H	 -3.394737	 -2.995769	 2.165378
H	 -5.808981	 -3.590726	 2.216816
H	 -6.055541	 -2.807398	 0.666876
H	 -5.628846	 -1.851727	 2.074309
C	 4.728119	 -1.109107	 -0.004993
H	 4.882018	 -1.033965	 -1.071845
H	 5.068212	 -2.067527	 0.355250
H	 5.265056	 -0.311663	 0.488280

	symmetry c1
}
set optking {
	frozen_dihedral = ("
		21 17 14 11,
		17 14 11 15,
		15 11 8 5,
		6 3 5 9,
		11 8 5 9,
		1 2 4 26,
		6 3 2 1
	")
}

ee = energy('scf')
oeprop('DIPOLE', 'QUADRUPOLE', 'MULLIKEN_CHARGES')
f=open( 'psi4out.xyz', 'w' )
f.write( "29  " )
f.write( str(ee) + "\n" )
f.write( MOL.save_string_xyz() )
f.close()
--------------------------------------------------------------------------

    Molecular point group: c1

    Geometry (in Angstrom), charge = 0, multiplicity = 1:

       Center              X                  Y                   Z               Mass
    ------------   -----------------  -----------------  -----------------  -----------------
           O          2.950924484789     0.342018610768    -1.697972131230    15.994914619560
           C          2.602595484789     0.455235610768    -0.567083131230    12.000000000000
           C          1.172565484789     0.536428610768    -0.090419131230    12.000000000000
           O          3.452045484789     0.526964610768     0.450227868770    15.994914619560
           C          0.155625484789     0.445515610768    -1.226061131230    12.000000000000
           H          1.035982484789    -0.252236389232     0.642072868770     1.007825032070
           H          1.066625484789     1.470357610768     0.455704868770     1.007825032070
           C         -1.295887515211     0.631449610768    -0.771050131230    12.000000000000
           H          0.263894484789    -0.510917389232    -1.728687131230     1.007825032070
           H          0.395422484789     1.201265610768    -1.966170131230     1.007825032070
           C         -1.834262515211    -0.477047389232     0.138067868770    12.000000000000
           H         -1.922333515211     0.687942610768    -1.658236131230     1.007825032070
           H         -1.398035515211     1.592131610768    -0.268393131230     1.007825032070
           C         -3.316719515211    -0.303167389232     0.474350868770    12.000000000000
           H         -1.686289515211    -1.440765389232    -0.346876131230     1.007825032070
           H         -1.265732515211    -0.510839389232     1.064676868770     1.007825032070
           C         -3.864285515211    -1.402327389232     1.386573868770    12.000000000000
           H         -3.894724515211    -0.281747389232    -0.447975131230     1.007825032070
           H         -3.467009515211     0.664935610768     0.949628868770     1.007825032070
           C         -5.346235515211    -1.223418389232     1.714471868770    12.000000000000
           H         -3.714001515211    -2.370497389232     0.913600868770     1.007825032070
           H         -3.290594515211    -1.422418389232     2.310832868770     1.007825032070
           H         -5.704838515211    -2.017375389232     2.362270868770     1.007825032070
           H         -5.951398515211    -1.234047389232     0.812330868770     1.007825032070
           H         -5.524703515211    -0.278376389232     2.219763868770     1.007825032070
           C          4.832261484789     0.464243610768     0.140461868770    12.000000000000
           H          4.986160484789     0.539385610768    -0.926390131230     1.007825032070
           H          5.172354484789    -0.494176389232     0.500704868770     1.007825032070
           H          5.369198484789     1.261687610768     0.633734868770     1.007825032070

  Charge       = 0
  Multiplicity = 1
  Basis Set: 6-31G*
  Basis Set:

    Orbital Energies (a.u.)
    -----------------------

    Doubly Occupied:

       1A    -20.602911     2A    -20.544377     3A    -11.373336
       4A    -11.275983     5A    -11.235228     6A    -11.219302
       7A    -11.217769     8A    -11.216083     9A    -11.215906
      10A    -11.214534    11A    -11.209081    12A     -1.469352
      13A     -1.362655    14A     -1.098265    15A     -1.067005
      16A     -1.019511    17A     -0.976505    18A     -0.928160
      19A     -0.861557    20A     -0.799201    21A     -0.790455
      22A     -0.763031    23A     -0.703540    24A     -0.681515
      25A     -0.673085    26A     -0.650926    27A     -0.629397
      28A     -0.604776    29A     -0.594409    30A     -0.579296
      31A     -0.568359    32A     -0.550619    33A     -0.533652
      34A     -0.525187    35A     -0.515094    36A     -0.512293
      37A     -0.496656    38A     -0.477987    39A     -0.470329
      40A     -0.462429    41A     -0.458772    42A     -0.452669
      43A     -0.441436    44A     -0.436061

  @DF-RHF Final Energy:  -501.04090916065775

   => Energetics <=

    Nuclear Repulsion Energy =            610.3349698786737463
    One-Electron Energy =               -1891.7945158486415949
    Two-Electron Energy =                 780.4186368093113515
    DFT Exchange-Correlation Energy =       0.0000000000000000
    Empirical Dispersion Energy =           0.0000000000000000
    PCM Polarization Energy =               0.0000000000000000
    EFP Energy =                            0.0000000000000000
    Total Energy =                       -501.0409091606564971

  Mulliken Charges: (a.u.)
   Center  Symbol    Alpha    Beta     Spin     Total
       1     O     4.28680  4.28680  0.00000 -0.57360
       2     C     2.60425  2.60425  0.00000  0.79150
       3     C     3.21054  3.21054  0.00000 -0.42107
       4     O     4.30742  4.30742  0.00000 -0.61483
       5     C     3.15386  3.15386  0.00000 -0.30772
       6     H     0.39856  0.39856  0.00000  0.20288
       7     H     0.40096  0.40096  0.00000  0.19807
       8     C     3.15663  3.15663  0.00000 -0.31326
       9     H     0.41302  0.41302  0.00000  0.17397
      10     H     0.40870  0.40870  0.00000  0.18259
      11     C     3.15509  3.15509  0.00000 -0.31018
      12     H     0.41820  0.41820  0.00000  0.16360
      13     H     0.42384  0.42384  0.00000  0.15232
      14     C     3.15030  3.15030  0.00000 -0.30060
      15     H     0.42259  0.42259  0.00000  0.15481
      16     H     0.42360  0.42360  0.00000  0.15280
      17     C     3.15147  3.15147  0.00000 -0.30294
      18     H     0.42332  0.42332  0.00000  0.15337
      19     H     0.42396  0.42396  0.00000  0.15209
      20     C     3.23935  3.23935  0.00000 -0.47871
      21     H     0.42279  0.42279  0.00000  0.15441
      22     H     0.42341  0.42341  0.00000  0.15318
      23     H     0.41921  0.41921  0.00000  0.16157
      24     H     0.42154  0.42154  0.00000  0.15691
      25     H     0.42182  0.42182  0.00000  0.15636
      26     C     3.10250  3.10250  0.00000 -0.20499
      27     H     0.39104  0.39104  0.00000  0.21791
      28     H     0.41329  0.41329  0.00000  0.17341
      29     H     0.41193  0.41193  0.00000  0.17615

   Total alpha = 44.00000, Total beta = 44.00000, Total charge =  0.00000
