  ==> Input File <==

--------------------------------------------------------------------------
set {
	reference rhf
	basis 6-31G*
}

set_num_threads( 4 )
memory 2 gb

molecule MOL {
0 1

H	 1.898200	 2.859677	 2.877021
N	 1.060651	 2.312039	 2.830668
C	 0.824609	 1.844099	 1.472418
H	 0.310590	 2.904198	 3.133301
C	 -0.396102	 0.931278	 1.423663
H	 1.701922	 1.286601	 1.158770
H	 0.697582	 2.657924	 0.754120
C	 -0.679275	 0.379305	 0.025956
H	 -0.243188	 0.116335	 2.125318
H	 -1.267110	 1.482748	 1.776595
C	 -1.903357	 -0.536963	 -0.023547
H	 0.191959	 -0.169442	 -0.328552
H	 -0.822615	 1.204711	 -0.669749
C	 -3.225172	 0.228290	 0.028445
H	 -1.867824	 -1.134999	 -0.931459
H	 -1.860449	 -1.239604	 0.805977
H	 -3.313397	 0.915643	 -0.808262
H	 -4.073500	 -0.448134	 -0.008893
H	 -3.306061	 0.809945	 0.942516

	symmetry c1
}
set optking {
	frozen_dihedral = ("
		12 8 11 15
	")
}

ee = optimize('scf')
oeprop('DIPOLE', 'QUADRUPOLE', 'MULLIKEN_CHARGES')
f=open( 'psi4out.xyz', 'w' )
f.write( "19  " )
f.write( str(ee) + "\n" )
f.write( MOL.save_string_xyz() )
f.close()
--------------------------------------------------------------------------

    Molecular point group: c1
  Charge       = 0
  Multiplicity = 1
  Basis Set: 6-31G*
  Basis Set:
  @DF-RHF Final Energy:  -251.34958938371355
    Total Energy =                       -251.3495893837136919
    Molecular point group: c1
  Basis Set: 6-31G*
  Basis Set:
  Basis Set: 6-31G*
  Basis Set:
  @DF-RHF Final Energy:  -251.34977385865369
    Total Energy =                       -251.3497738586535206
  Basis Set: 6-31G*
  Basis Set:
  Basis Set: 6-31G*
  Basis Set:
  @DF-RHF Final Energy:  -251.34980474004624
    Total Energy =                       -251.3498047400462383
  Basis Set: 6-31G*
  Basis Set:
  Basis Set: 6-31G*
  Basis Set:
  @DF-RHF Final Energy:  -251.34980637912494
    Total Energy =                       -251.3498063791250843
  Basis Set: 6-31G*
  Basis Set:
  Basis Set: 6-31G*
  Basis Set:
  @DF-RHF Final Energy:  -251.34980755567332
    Total Energy =                       -251.3498075556733511
  Basis Set: 6-31G*
  Basis Set:
  Charge       = 0
  Multiplicity = 1
  Basis Set: 6-31G*
  Basis Set:

    Orbital Energies (a.u.)
    -----------------------

    Doubly Occupied:

       1A    -15.532519     2A    -11.239760     3A    -11.214149
       4A    -11.212867     5A    -11.209292     6A    -11.207532
       7A     -1.176624     8A     -1.072207     9A     -0.995838
      10A     -0.903108    11A     -0.821301    12A     -0.780008
      13A     -0.664157    14A     -0.633336    15A     -0.613787
      16A     -0.603830    17A     -0.563466    18A     -0.553565
      19A     -0.520193    20A     -0.498691    21A     -0.490663
      22A     -0.461872    23A     -0.454227    24A     -0.450937
      25A     -0.380981

  @DF-RHF Final Energy:  -251.34980759938333

   => Energetics <=

    Nuclear Repulsion Energy =            248.4039093596165344
    One-Electron Energy =                -830.9976195224214734
    Two-Electron Energy =                 331.2439025634217842
    DFT Exchange-Correlation Energy =       0.0000000000000000
    Empirical Dispersion Energy =           0.0000000000000000
    PCM Polarization Energy =               0.0000000000000000
    EFP Energy =                            0.0000000000000000
    Total Energy =                       -251.3498075993830980
    Molecular point group: c1
  Basis Set: 6-31G*
  Basis Set:

  -Total Gradient:
     Atom            X                  Y                   Z
    ------   -----------------  -----------------  -----------------
       1        0.000000228945    -0.000002160210    -0.000002183492
       2        0.000003674623    -0.000005294564     0.000001002662
       3       -0.000001150879     0.000008799141     0.000005587692
       4       -0.000001042288    -0.000001306262    -0.000002847445
       5        0.000006177035     0.000007083305    -0.000005354377
       6       -0.000002052643    -0.000000928897     0.000001030784
       7       -0.000002412724    -0.000000061151     0.000001230365
       8        0.000590672696    -0.000964607550     0.002202663891
       9       -0.000005413247     0.000002018002     0.000000377429
      10       -0.000001679003     0.000002303264    -0.000000188199
      11       -0.001148207958     0.001661706072    -0.001423837174
      12       -0.000302195407     0.000547869054    -0.001634352612
      13        0.000000054222     0.000000397288     0.000005066844
      14       -0.000007759934    -0.000006792064    -0.000000097385
      15        0.000881055627    -0.001251960134     0.000847745681
      16       -0.000004746944    -0.000002859990    -0.000000383379
      17       -0.000003324540    -0.000003524140     0.000001514673
      18       -0.000004389695     0.000005167440     0.000002797875
      19        0.000002512117     0.000004151396     0.000000226165

  **** Optimization is complete! (in 6 steps) ****
    Final optimized geometry and variables:
    Molecular point group: c1

    Geometry (in Angstrom), charge = 0, multiplicity = 1:

    H            2.638815986301     1.956058899655     1.884692398832
    N            1.791984948511     1.422382915598     1.844434760278
    C            1.545853743293     0.946898058631     0.490544217771
    H            1.052707096614     2.029976613365     2.143050850802
    C            0.311173219835     0.052244231114     0.451767803774
    H            2.413954551933     0.373670167870     0.179497380896
    H            1.429449842718     1.756678570545    -0.234022185095
    C            0.025488129236    -0.508232753907    -0.942916943717
    H            0.454813060245    -0.760720258847     1.157714242768
    H           -0.546017417836     0.621643911445     0.806395284640
    C           -1.202423850598    -1.425636625709    -1.016141043183
    H            0.896786141203    -1.058184401745    -1.292516084461
    H           -0.104570520549     0.313817502395    -1.645865206814
    C           -2.541511627268    -0.688982599758    -0.967088765191
    H           -1.150063190096    -2.011473528959    -1.930309365733
    H           -1.157495076813    -2.146407215201    -0.202132246480
    H           -2.628629417521     0.015882944998    -1.789437887376
    H           -3.370537393762    -1.386148370355    -1.041003570202
    H           -2.664066574116    -0.134648173701    -0.042105944806

  Mulliken Charges: (a.u.)
   Center  Symbol    Alpha    Beta     Spin     Total
       1     H     0.33249  0.33249  0.00000  0.33503
       2     N     3.92187  3.92187  0.00000 -0.84374
       3     C     3.06016  3.06016  0.00000 -0.12033
       4     H     0.33540  0.33540  0.00000  0.32919
       5     C     3.15240  3.15240  0.00000 -0.30480
       6     H     0.42090  0.42090  0.00000  0.15820
       7     H     0.43467  0.43467  0.00000  0.13066
       8     C     3.15744  3.15744  0.00000 -0.31488
       9     H     0.41318  0.41318  0.00000  0.17365
      10     H     0.42640  0.42640  0.00000  0.14720
      11     C     3.15278  3.15278  0.00000 -0.30556
      12     H     0.42155  0.42155  0.00000  0.15691
      13     H     0.42511  0.42511  0.00000  0.14978
      14     C     3.24039  3.24039  0.00000 -0.48077
      15     H     0.42095  0.42095  0.00000  0.15810
      16     H     0.42208  0.42208  0.00000  0.15585
      17     H     0.42247  0.42247  0.00000  0.15506
      18     H     0.41926  0.41926  0.00000  0.16148
      19     H     0.42052  0.42052  0.00000  0.15896

   Total alpha = 25.00000, Total beta = 25.00000, Total charge =  0.00000
