                              Psi4 1.0.54 Driver

  ==> Input File <==

--------------------------------------------------------------------------
set {
	reference rhf
	basis cc-pvtz
}

set_num_threads( 4 )
memory 2 gb

molecule MOL {
0 1

H	 2.838599	 -0.431354	 -0.155595
O	 2.012307	 -0.863440	 0.000222
C	 1.050374	 0.054877	 0.000135
C	 -0.318151	 -0.570512	 0.000144
O	 1.286319	 1.213453	 -0.000040
C	 -1.454884	 0.441630	 -0.000560
H	 -0.371613	 -1.223646	 -0.864985
H	 -0.371920	 -1.222758	 0.865929
C	 -2.822577	 -0.232186	 0.000063
H	 -1.359760	 1.084704	 -0.867077
H	 -1.359641	 1.085996	 0.864983
H	 -2.954352	 -0.858985	 -0.875745
H	 -3.615886	 0.505352	 0.000019
H	 -2.953878	 -0.858359	 0.876394

	symmetry c1
}
set optking {
	frozen_dihedral = ("
		1 2 3 5
	")
}

ee,wfn = optimize('scf', return_wfn=True)
oeprop( wfn, 'DIPOLE', 'QUADRUPOLE', 'MULLIKEN_CHARGES')
f=open( 'psi4out.xyz', 'w' )
f.write( "14  " )
f.write( str(ee) + "\n" )
f.write( MOL.save_string_xyz() )
f.close()
--------------------------------------------------------------------------

    Molecular point group: c1
  Charge       = 0
  Multiplicity = 1
  Basis Set: CC-PVTZ
  Basis Set:
  @DF-RHF Final Energy:  -306.00045153569488
    Total Energy =                       -306.0004515356948787
    Molecular point group: c1
  Basis Set: CC-PVTZ
  Basis Set:
  Basis Set: CC-PVTZ
  Basis Set:
  @DF-RHF Final Energy:  -305.99914599340934
    Total Energy =                       -305.9991459934094564
  Basis Set: CC-PVTZ
  Basis Set:
  Basis Set: CC-PVTZ
  Basis Set:
  @DF-RHF Final Energy:  -306.00050270079839
    Total Energy =                       -306.0005027007984495
  Basis Set: CC-PVTZ
  Basis Set:
  Basis Set: CC-PVTZ
  Basis Set:
  @DF-RHF Final Energy:  -306.00050927858956
    Total Energy =                       -306.0005092785895044
  Basis Set: CC-PVTZ
  Basis Set:
  Basis Set: CC-PVTZ
  Basis Set:
  @DF-RHF Final Energy:  -306.00051151290938
    Total Energy =                       -306.0005115129092701
  Basis Set: CC-PVTZ
  Basis Set:
  Charge       = 0
  Multiplicity = 1
  Basis Set: CC-PVTZ
  Basis Set:

    Orbital Energies (a.u.)
    -----------------------

    Doubly Occupied:

       1A    -20.604043     2A    -20.541310     3A    -11.374041
       4A    -11.239821     5A    -11.223861     6A    -11.215415
       7A     -1.477591     8A     -1.369753     9A     -1.084422
      10A     -0.980919    11A     -0.859163    12A     -0.793074
      13A     -0.704376    14A     -0.691744    15A     -0.669665
      16A     -0.618905    17A     -0.595419    18A     -0.574661
      19A     -0.546108    20A     -0.507011    21A     -0.492326
      22A     -0.485300    23A     -0.482135    24A     -0.447700

  @DF-RHF Final Energy:  -306.00051269375456

   => Energetics <=

    Nuclear Repulsion Energy =            240.4327926551939072
    One-Electron Energy =                -893.7090807057164739
    Two-Electron Energy =                 347.2757753567680084
    DFT Exchange-Correlation Energy =       0.0000000000000000
    Empirical Dispersion Energy =           0.0000000000000000
    PCM Polarization Energy =               0.0000000000000000
    EFP Energy =                            0.0000000000000000
    Total Energy =                       -306.0005126937545583
    Molecular point group: c1
  Basis Set: CC-PVTZ
  Basis Set:

  -Total Gradient:
     Atom            X                  Y                   Z
    ------   -----------------  -----------------  -----------------
       1       -0.000333527554    -0.000597564536    -0.003577468308
       2        0.000351951673     0.000747542605     0.005977067758
       3        0.000120963635    -0.000191592829    -0.005810352443
       4       -0.000000360630     0.000000823895     0.000029995861
       5       -0.000131162980     0.000060626953     0.003354456845
       6       -0.000000721427    -0.000011415409    -0.000001485166
       7        0.000002095992    -0.000013184917     0.000011807439
       8       -0.000008987722    -0.000000039459     0.000017468945
       9        0.000000763118     0.000001426217     0.000001590888
      10       -0.000003020181     0.000004410743    -0.000002539332
      11        0.000000495813    -0.000000401771    -0.000000624597
      12        0.000001490920    -0.000000430409    -0.000000886486
      13        0.000000345418     0.000001722783     0.000000171383
      14       -0.000000326074    -0.000001923858     0.000000797212

  **** Optimization is complete! (in 6 steps) ****
    Final optimized geometry and variables:
    Molecular point group: c1

    Geometry (in Angstrom), charge = 0, multiplicity = 1:

    H            2.844045078128    -0.436180141033    -0.102304848331
    O            2.012619631677    -0.862005849561     0.042383437470
    C            1.050485402243     0.055502783233    -0.016671051198
    C           -0.317797612110    -0.570204124202    -0.004565649939
    O            1.285641631090     1.213542082644    -0.047575596763
    C           -1.454969577613     0.441251270355     0.010853101321
    H           -0.379508856096    -1.217987048361    -0.873425832446
    H           -0.362391673461    -1.227988347122     0.857335288612
    C           -2.822303325930    -0.233214460553     0.019490588957
    H           -1.367656167386     1.089756030305    -0.852309941112
    H           -1.352543096233     1.080227830189     0.879714104298
    H           -2.961407091067    -0.854771715654    -0.858938767235
    H           -3.615889977886     0.503947294814     0.030781305712
    H           -2.945680245190    -0.864736989762     0.893116666817

  Mulliken Charges: (a.u.)
   Center  Symbol    Alpha    Beta     Spin     Total
       1     H     0.38204  0.38204  0.00000  0.23593
       2     O     4.16083  4.16083  0.00000 -0.32165
       3     C     2.80541  2.80541  0.00000  0.38918
       4     C     3.10535  3.10535  0.00000 -0.21070
       5     O     4.19009  4.19009  0.00000 -0.38019
       6     C     3.07939  3.07939  0.00000 -0.15878
       7     H     0.43972  0.43972  0.00000  0.12055
       8     H     0.43839  0.43839  0.00000  0.12322
       9     C     3.15026  3.15026  0.00000 -0.30051
      10     H     0.44595  0.44595  0.00000  0.10809
      11     H     0.44646  0.44646  0.00000  0.10708
      12     H     0.45557  0.45557  0.00000  0.08885
      13     H     0.44511  0.44511  0.00000  0.10979
      14     H     0.45543  0.45543  0.00000  0.08914

   Total alpha = 24.00000, Total beta = 24.00000, Total charge = -0.00000

*** Psi4 exiting successfully. Buy a developer a beer!
