  ==> Input File <==

--------------------------------------------------------------------------
set {
	reference rhf
	basis 6-31G*
}

set_num_threads( 1 )
memory 2 gb

molecule MOL {
0 1

H	 -4.031818	 -0.453427	 0.000382
C	 -2.967712	 -0.297022	 0.000317
C	 -2.458620	 0.992929	 0.000301
C	 -2.109895	 -1.385637	 0.000247
H	 -3.124998	 1.836319	 0.000355
C	 -1.090278	 1.193236	 0.000216
H	 -2.506361	 -2.384847	 0.000258
C	 -0.739812	 -1.187531	 0.000161
H	 -0.678594	 2.184290	 0.000205
C	 -0.226438	 0.104061	 0.000146
H	 -0.072310	 -2.027032	 0.000106
C	 1.239129	 0.373821	 0.000060
O	 1.970282	 -0.730723	 0.000018
O	 1.714856	 1.465857	 0.000035
C	 3.377318	 -0.566646	 -0.000065
H	 3.695437	 -0.028981	 -0.881264
H	 3.789299	 -1.563704	 0.000236
H	 3.695516	 -0.028316	 0.880770

	symmetry c1
}
set optking {
	frozen_dihedral = ("
		12 13 15 16,
		13 12 10 6
	")
}

ee = energy('scf')
oeprop('DIPOLE', 'QUADRUPOLE', 'MULLIKEN_CHARGES')
f=open( 'psi4out.xyz', 'w' )
f.write( "18  " )
f.write( str(ee) + "\n" )
f.write( MOL.save_string_xyz() )
f.close()
--------------------------------------------------------------------------

    Molecular point group: c1

    Geometry (in Angstrom), charge = 0, multiplicity = 1:

       Center              X                  Y                   Z               Mass
    ------------   -----------------  -----------------  -----------------  -----------------
           H         -4.031817544175    -0.453426598670     0.000246023515     1.007825032070
           C         -2.967711544175    -0.297021598670     0.000181023515    12.000000000000
           C         -2.458619544175     0.992929401330     0.000165023515    12.000000000000
           C         -2.109894544175    -1.385636598670     0.000111023515    12.000000000000
           H         -3.124997544175     1.836319401330     0.000219023515     1.007825032070
           C         -1.090277544175     1.193236401330     0.000080023515    12.000000000000
           H         -2.506360544175    -2.384846598670     0.000122023515     1.007825032070
           C         -0.739811544175    -1.187530598670     0.000025023515    12.000000000000
           H         -0.678593544175     2.184290401330     0.000069023515     1.007825032070
           C         -0.226437544175     0.104061401330     0.000010023515    12.000000000000
           H         -0.072309544175    -2.027031598670    -0.000029976485     1.007825032070
           C          1.239129455825     0.373821401330    -0.000075976485    12.000000000000
           O          1.970282455825    -0.730722598670    -0.000117976485    15.994914619560
           O          1.714856455825     1.465857401330    -0.000100976485    15.994914619560
           C          3.377318455825    -0.566645598670    -0.000200976485    12.000000000000
           H          3.695437455825    -0.028980598670    -0.881399976485     1.007825032070
           H          3.789299455825    -1.563703598670     0.000100023515     1.007825032070
           H          3.695516455825    -0.028315598670     0.880634023515     1.007825032070

  Charge       = 0
  Multiplicity = 1
  Basis Set: 6-31G*
  Basis Set:

    Orbital Energies (a.u.)
    -----------------------

    Doubly Occupied:

       1A    -20.607631     2A    -20.544469     3A    -11.377887
       4A    -11.282947     5A    -11.245573     6A    -11.245281
       7A    -11.244137     8A    -11.241702     9A    -11.237473
      10A    -11.236725    11A     -1.472770    12A     -1.363917
      13A     -1.165293    14A     -1.048119    15A     -1.024798
      16A     -0.978108    17A     -0.860198    18A     -0.834335
      19A     -0.777740    20A     -0.739920    21A     -0.683337
      22A     -0.677418    23A     -0.671881    24A     -0.631077
      25A     -0.623944    26A     -0.597771    27A     -0.584641
      28A     -0.561506    29A     -0.529328    30A     -0.516636
      31A     -0.503413    32A     -0.498936    33A     -0.459235
      34A     -0.444421    35A     -0.344873    36A     -0.340975

  @DF-RHF Final Energy:  -457.35066778344759

   => Energetics <=

    Nuclear Repulsion Energy =            493.0137815911500070
    One-Electron Energy =               -1600.3319335063970357
    Two-Electron Energy =                 649.9674841318004610
    DFT Exchange-Correlation Energy =       0.0000000000000000
    Empirical Dispersion Energy =           0.0000000000000000
    PCM Polarization Energy =               0.0000000000000000
    EFP Energy =                            0.0000000000000000
    Total Energy =                       -457.3506677834465108

  Mulliken Charges: (a.u.)
   Center  Symbol    Alpha    Beta     Spin     Total
       1     H     0.39539  0.39539  0.00000  0.20923
       2     C     3.09000  3.09000  0.00000 -0.17999
       3     C     3.10712  3.10712  0.00000 -0.21424
       4     C     3.10717  3.10717  0.00000 -0.21434
       5     H     0.39536  0.39536  0.00000  0.20928
       6     C     3.08641  3.08641  0.00000 -0.17281
       7     H     0.39626  0.39626  0.00000  0.20748
       8     C     3.08716  3.08716  0.00000 -0.17432
       9     H     0.37596  0.37596  0.00000  0.24808
      10     C     3.07711  3.07711  0.00000 -0.15422
      11     H     0.38040  0.38040  0.00000  0.23919
      12     C     2.57966  2.57966  0.00000  0.84067
      13     O     4.31485  4.31485  0.00000 -0.62971
      14     O     4.29181  4.29181  0.00000 -0.58362
      15     C     3.09254  3.09254  0.00000 -0.18507
      16     H     0.40742  0.40742  0.00000  0.18517
      17     H     0.40797  0.40797  0.00000  0.18405
      18     H     0.40741  0.40741  0.00000  0.18518

   Total alpha = 36.00000, Total beta = 36.00000, Total charge =  0.00000
