                              Psi4 1.0.54 Driver

  ==> Input File <==

--------------------------------------------------------------------------
set {
	reference rhf
	basis cc-pvtz
}

set_num_threads( 4 )
memory 2 gb

molecule MOL {
0 1

O	 -1.278239	 1.034789	 -0.784693
C	 -1.204115	 0.062668	 -0.112312
C	 -2.386398	 -0.667698	 0.460323
O	 -0.068058	 -0.518372	 0.226882
H	 -2.382952	 -1.693172	 0.114333
H	 -3.296656	 -0.175702	 0.158400
H	 -2.312537	 -0.685191	 1.540100
C	 -0.096570	 -1.692169	 1.045532
C	 1.226475	 -1.726331	 1.784109
C	 -0.325603	 -2.918569	 0.180607
H	 -0.910193	 -1.587308	 1.747038
H	 1.353269	 -0.833828	 2.383367
H	 1.262888	 -2.587547	 2.440381
H	 2.053743	 -1.790942	 1.087410
H	 -0.335278	 -3.809575	 0.797466
H	 -1.274092	 -2.853846	 -0.334008
H	 0.466400	 -3.019501	 -0.552759

	symmetry c1
}
set optking {
	frozen_dihedral = ("
		8 4 2 1
	")
}

ee,wfn = optimize('scf', return_wfn=True)
oeprop( wfn, 'DIPOLE', 'QUADRUPOLE', 'MULLIKEN_CHARGES')
f=open( 'psi4out.xyz', 'w' )
f.write( "17  " )
f.write( str(ee) + "\n" )
f.write( MOL.save_string_xyz() )
f.close()
--------------------------------------------------------------------------

    Molecular point group: c1
  Charge       = 0
  Multiplicity = 1
  Basis Set: CC-PVTZ
  Basis Set:
  @DF-RHF Final Energy:  -345.01047541711756
    Total Energy =                       -345.0104754171175045
    Molecular point group: c1
  Basis Set: CC-PVTZ
  Basis Set:
  Basis Set: CC-PVTZ
  Basis Set:
  @DF-RHF Final Energy:  -345.02308777989390
    Total Energy =                       -345.0230877798938991
  Basis Set: CC-PVTZ
  Basis Set:
  Basis Set: CC-PVTZ
  Basis Set:
  @DF-RHF Final Energy:  -345.02742010795777
    Total Energy =                       -345.0274201079574823
  Basis Set: CC-PVTZ
  Basis Set:
  Basis Set: CC-PVTZ
  Basis Set:
  @DF-RHF Final Energy:  -345.01898173976934
    Total Energy =                       -345.0189817397695720
  Basis Set: CC-PVTZ
  Basis Set:
  @DF-RHF Final Energy:  -345.02811959952453
    Total Energy =                       -345.0281195995247572
  Basis Set: CC-PVTZ
  Basis Set:
  @DF-RHF Final Energy:  -345.02880324832421
    Total Energy =                       -345.0288032483244933
  Basis Set: CC-PVTZ
  Basis Set:
  Basis Set: CC-PVTZ
  Basis Set:
  @DF-RHF Final Energy:  -345.02895763915524
    Total Energy =                       -345.0289576391550099
  Basis Set: CC-PVTZ
  Basis Set:
  Basis Set: CC-PVTZ
  Basis Set:
  @DF-RHF Final Energy:  -345.02896863381744
    Total Energy =                       -345.0289686338172714
  Basis Set: CC-PVTZ
  Basis Set:
  Charge       = 0
  Multiplicity = 1
  Basis Set: CC-PVTZ
  Basis Set:

    Orbital Energies (a.u.)
    -----------------------

    Doubly Occupied:

       1A    -20.589715     2A    -20.523865     3A    -11.367530
       4A    -11.302624     5A    -11.239975     6A    -11.227069
       7A    -11.223690     8A     -1.463257     9A     -1.364373
      10A     -1.079609    11A     -1.017431    12A     -0.957861
      13A     -0.863452    14A     -0.776545    15A     -0.701030
      16A     -0.667671    17A     -0.664482    18A     -0.622179
      19A     -0.597868    20A     -0.586964    21A     -0.563034
      22A     -0.557644    23A     -0.547228    24A     -0.532878
      25A     -0.510253    26A     -0.492017    27A     -0.441520
      28A     -0.434148

  @DF-RHF Final Energy:  -345.02897119039477

   => Energetics <=

    Nuclear Repulsion Energy =            322.5806080457402345
    One-Electron Energy =               -1109.3873403537265858
    Two-Electron Energy =                 441.7777611175915808
    DFT Exchange-Correlation Energy =       0.0000000000000000
    Empirical Dispersion Energy =           0.0000000000000000
    PCM Polarization Energy =               0.0000000000000000
    EFP Energy =                            0.0000000000000000
    Total Energy =                       -345.0289711903947136
    Molecular point group: c1
  Basis Set: CC-PVTZ
  Basis Set:

  -Total Gradient:
     Atom            X                  Y                   Z
    ------   -----------------  -----------------  -----------------
       1       -0.000147676782     0.000456839251     0.000507092820
       2        0.000011342458    -0.000358660360    -0.000490957433
       3        0.000193434237     0.000073560451    -0.000032942111
       4        0.000118124643    -0.000543818603    -0.000530972340
       5        0.000014254523    -0.000058959235    -0.000022589251
       6       -0.000024789805     0.000004829465    -0.000006648310
       7       -0.000024809987     0.000016719347     0.000069931264
       8       -0.000132967456     0.000515004472     0.000547956675
       9       -0.000018492390    -0.000079242725    -0.000097637662
      10        0.000053634325    -0.000027975369     0.000051063174
      11       -0.000018160815    -0.000028961441     0.000016338182
      12       -0.000028805918     0.000005695345    -0.000014498874
      13        0.000011268967    -0.000006821188     0.000014061841
      14        0.000006072113     0.000007230980     0.000014028553
      15        0.000008670973    -0.000006210187    -0.000015371017
      16       -0.000040528224     0.000027094672    -0.000004592556
      17        0.000019429137     0.000003675124    -0.000004262951

  **** Optimization is complete! (in 9 steps) ****
    Final optimized geometry and variables:
    Molecular point group: c1

    Geometry (in Angstrom), charge = 0, multiplicity = 1:

    O           -0.756313643382     1.659778568058    -1.462057306439
    C           -0.751393774224     0.749786300466    -0.710692351699
    C           -2.011607823365    -0.009655291769    -0.369063510200
    O            0.388670205932     0.394769338363    -0.132905590718
    H           -1.893342656695    -1.075141163512    -0.512050090719
    H           -2.796885997847     0.356826057268    -1.008632137502
    H           -2.288019039225     0.163001166998     0.664043269578
    C            0.551085451147    -0.674550636308     0.789174270108
    C            1.537725152934    -0.196137389380     1.837745344726
    C            1.040086501350    -1.908479348296     0.049391515654
    H           -0.391744569891    -0.889292937990     1.271461590998
    H            1.158935086766     0.682467629075     2.343581114493
    H            1.708786470390    -0.972284858814     2.574249076933
    H            2.483663808331     0.058575637613     1.376766392374
    H            1.186494509090    -2.729562426905     0.741193583845
    H            0.328785988015    -2.223950860889    -0.704022435701
    H            1.981439417639    -1.699347785127    -0.443281817500

  Mulliken Charges: (a.u.)
   Center  Symbol    Alpha    Beta     Spin     Total
       1     O     4.18533  4.18533  0.00000 -0.37067
       2     C     2.82178  2.82178  0.00000  0.35645
       3     C     3.16759  3.16759  0.00000 -0.33518
       4     O     4.13768  4.13768  0.00000 -0.27536
       5     H     0.44734  0.44734  0.00000  0.10531
       6     H     0.42581  0.42581  0.00000  0.14838
       7     H     0.44582  0.44582  0.00000  0.10837
       8     C     2.94883  2.94883  0.00000  0.10235
       9     C     3.13496  3.13496  0.00000 -0.26992
      10     C     3.14148  3.14148  0.00000 -0.28296
      11     H     0.45130  0.45130  0.00000  0.09740
      12     H     0.44556  0.44556  0.00000  0.10888
      13     H     0.45554  0.45554  0.00000  0.08891
      14     H     0.44696  0.44696  0.00000  0.10608
      15     H     0.45019  0.45019  0.00000  0.09963
      16     H     0.44908  0.44908  0.00000  0.10185
      17     H     0.44475  0.44475  0.00000  0.11049

   Total alpha = 28.00000, Total beta = 28.00000, Total charge = -0.00000

*** Psi4 exiting successfully. Buy a developer a beer!
