                              Psi4 1.0.54 Driver

  ==> Input File <==

--------------------------------------------------------------------------
set {
	reference rhf
	basis cc-pvtz
}

set_num_threads( 4 )
memory 2 gb

molecule MOL {
0 1

H	 -2.605807	 0.927161	 1.081222
C	 -2.011898	 1.753321	 1.465427
O	 -0.652481	 1.516426	 1.312430
H	 -2.256755	 2.645910	 0.908456
H	 -2.275642	 1.909816	 2.509857
C	 -0.186081	 0.394770	 1.987705
C	 1.271316	 0.175759	 1.667747
H	 -0.294720	 0.529866	 3.063770
H	 -0.751688	 -0.489448	 1.701914
O	 1.401606	 -0.295166	 0.366636
H	 1.809755	 1.112579	 1.793777
H	 1.682935	 -0.545919	 2.373242
C	 2.714315	 -0.441627	 -0.061017
H	 2.765292	 -0.641548	 -1.128869
H	 3.305661	 0.447341	 0.150952
H	 3.143725	 -1.278506	 0.470147

	symmetry c1
}
set optking {
	frozen_dihedral = ("
		7 10 13 14
	")
}

ee,wfn = optimize('scf', return_wfn=True)
oeprop( wfn, 'DIPOLE', 'QUADRUPOLE', 'MULLIKEN_CHARGES')
f=open( 'psi4out.xyz', 'w' )
f.write( "16  " )
f.write( str(ee) + "\n" )
f.write( MOL.save_string_xyz() )
f.close()
--------------------------------------------------------------------------

    Molecular point group: c1
  Charge       = 0
  Multiplicity = 1
  Basis Set: CC-PVTZ
  Basis Set:
  @DF-RHF Final Energy:  -307.09661631091154
    Total Energy =                       -307.0966163109114859
    Molecular point group: c1
  Basis Set: CC-PVTZ
  Basis Set:
  Basis Set: CC-PVTZ
  Basis Set:
  @DF-RHF Final Energy:  -307.09747659249854
    Total Energy =                       -307.0974765924986514
  Basis Set: CC-PVTZ
  Basis Set:
  Basis Set: CC-PVTZ
  Basis Set:
  @DF-RHF Final Energy:  -307.09769761111636
    Total Energy =                       -307.0976976111167005
  Basis Set: CC-PVTZ
  Basis Set:
  Charge       = 0
  Multiplicity = 1
  Basis Set: CC-PVTZ
  Basis Set:

    Orbital Energies (a.u.)
    -----------------------

    Doubly Occupied:

       1A    -20.547815     2A    -20.547639     3A    -11.267591
       4A    -11.266907     5A    -11.261614     6A    -11.261568
       7A     -1.391710     8A     -1.374469     9A     -1.032127
      10A     -0.937253    11A     -0.892220    12A     -0.824431
      13A     -0.686393    14A     -0.682786    15A     -0.659470
      16A     -0.638487    17A     -0.631935    18A     -0.598617
      19A     -0.551411    20A     -0.535743    21A     -0.509884
      22A     -0.479554    23A     -0.464806    24A     -0.423340
      25A     -0.413549

  @DF-RHF Final Energy:  -307.09769824809337

   => Energetics <=

    Nuclear Repulsion Energy =            258.9039535483570944
    One-Electron Energy =                -932.2406674992730586
    Two-Electron Energy =                 366.2390157028224849
    DFT Exchange-Correlation Energy =       0.0000000000000000
    Empirical Dispersion Energy =           0.0000000000000000
    PCM Polarization Energy =               0.0000000000000000
    EFP Energy =                            0.0000000000000000
    Total Energy =                       -307.0976982480934794
    Molecular point group: c1
  Basis Set: CC-PVTZ
  Basis Set:

  -Total Gradient:
     Atom            X                  Y                   Z
    ------   -----------------  -----------------  -----------------
       1       -0.000000040536    -0.000000559721    -0.000000620969
       2        0.000001009530    -0.000002401621     0.000001651617
       3        0.000005420743     0.000027761454     0.000012205649
       4        0.000003527454    -0.000000819464     0.000001324187
       5       -0.000002624335     0.000001924244     0.000000971606
       6       -0.000012730948    -0.000075602695    -0.000120170213
       7        0.000091398596     0.001177904705    -0.000340212601
       8        0.000052783282    -0.000004121219    -0.000028981033
       9       -0.000031593645    -0.000024495161     0.000013891191
      10        0.000001486532    -0.001260686788     0.000479151297
      11        0.000021316774     0.000012353659     0.000004426820
      12       -0.000010865538    -0.000014695372    -0.000040385635
      13       -0.000076067451    -0.001245045249     0.000255546121
      14       -0.000000325426     0.001395080596    -0.000254648952
      15       -0.000011296632     0.000016928650     0.000008323246
      16       -0.000031398402    -0.000003526014     0.000007527666

  **** Optimization is complete! (in 4 steps) ****
    Final optimized geometry and variables:
    Molecular point group: c1

    Geometry (in Angstrom), charge = 0, multiplicity = 1:

    H           -3.034550827549     0.352942166042    -0.015313032099
    C           -2.452770655306     1.192775256450     0.357618750828
    O           -1.090485508446     0.979015410869     0.196280304172
    H           -2.717740028336     2.076188757173    -0.204736523596
    H           -2.711526814661     1.353188109293     1.402713409084
    C           -0.599075319467    -0.128654862501     0.876835189886
    C            0.859966383027    -0.323236943128     0.548669777648
    H           -0.702364377989     0.013089883193     1.952566161895
    H           -1.150548888027    -1.025239765053     0.602228442789
    O            0.989408774049    -0.799107472580    -0.750619571415
    H            1.382527977629     0.623553236942     0.664329562335
    H            1.288344226732    -1.032603710108     1.256971707758
    C            2.300535316563    -0.934659138101    -1.187388194986
    H            2.276972823540    -1.135511089799    -2.248596482956
    H            2.869591299643    -0.021975190710    -1.025644507979
    H            2.809710632593    -1.751648022074    -0.680073109602

  Mulliken Charges: (a.u.)
   Center  Symbol    Alpha    Beta     Spin     Total
       1     H     0.47020  0.47020  0.00000  0.05960
       2     C     3.03200  3.03200  0.00000 -0.06401
       3     O     4.17040  4.17040  0.00000 -0.34079
       4     H     0.44635  0.44635  0.00000  0.10730
       5     H     0.47369  0.47369  0.00000  0.05262
       6     C     2.96074  2.96074  0.00000  0.07852
       7     C     2.96052  2.96052  0.00000  0.07895
       8     H     0.47618  0.47618  0.00000  0.04764
       9     H     0.47066  0.47066  0.00000  0.05867
      10     O     4.17066  4.17066  0.00000 -0.34132
      11     H     0.46970  0.46970  0.00000  0.06060
      12     H     0.47695  0.47695  0.00000  0.04610
      13     C     3.03161  3.03161  0.00000 -0.06322
      14     H     0.44648  0.44648  0.00000  0.10704
      15     H     0.47259  0.47259  0.00000  0.05482
      16     H     0.47126  0.47126  0.00000  0.05748

   Total alpha = 25.00000, Total beta = 25.00000, Total charge =  0.00000

*** Psi4 exiting successfully. Buy a developer a beer!
