                              Psi4 1.0.54 Driver

  ==> Input File <==

--------------------------------------------------------------------------
set {
	reference rhf
	basis cc-pvtz
}

set_num_threads( 4 )
memory 2 gb

molecule MOL {
0 1

O	 3.670800	 0.019836	 -0.837286
C	 2.841259	 0.166180	 -0.000295
C	 1.542794	 -0.614730	 -0.000853
C	 3.029057	 1.151042	 1.131518
C	 0.288398	 0.247429	 0.000314
H	 1.557171	 -1.273139	 -0.866508
H	 1.557484	 -1.274998	 0.863344
C	 -0.993089	 -0.581367	 -0.000217
H	 0.305153	 0.900562	 -0.864701
H	 0.305567	 0.898805	 0.866656
C	 -2.258482	 0.271340	 0.000669
H	 -1.002280	 -1.233920	 -0.870484
H	 -1.002061	 -1.235367	 0.868958
C	 -3.544441	 -0.550271	 -0.000253
H	 -2.250545	 0.925250	 -0.867923
H	 -2.250598	 0.923423	 0.870642
C	 -4.804551	 0.308747	 0.000556
H	 -3.553737	 -1.201524	 -0.870151
H	 -3.553831	 -1.203282	 0.868313
H	 -4.842050	 0.949078	 -0.874436
H	 -5.698404	 -0.304480	 -0.000254
H	 -4.842277	 0.947103	 0.876982
H	 2.981867	 0.637828	 2.085684
H	 3.982781	 1.645881	 1.031828
H	 2.232997	 1.887414	 1.122222

	symmetry c1
}
set optking {
	frozen_dihedral = ("
		1 2 3 6
	")
}

ee,wfn = optimize('scf', return_wfn=True)
oeprop( wfn, 'DIPOLE', 'QUADRUPOLE', 'MULLIKEN_CHARGES')
f=open( 'psi4out.xyz', 'w' )
f.write( "25  " )
f.write( str(ee) + "\n" )
f.write( MOL.save_string_xyz() )
f.close()
--------------------------------------------------------------------------

    Molecular point group: c1
  Charge       = 0
  Multiplicity = 1
  Basis Set: CC-PVTZ
  Basis Set:
  @DF-RHF Final Energy:  -387.27142310830862
    Total Energy =                       -387.2714231083086815
    Molecular point group: c1
  Basis Set: CC-PVTZ
  Basis Set:
  Basis Set: CC-PVTZ
  Basis Set:
  @DF-RHF Final Energy:  -387.27014332582058
    Total Energy =                       -387.2701433258207544
  Basis Set: CC-PVTZ
  Basis Set:
  Basis Set: CC-PVTZ
  Basis Set:
  @DF-RHF Final Energy:  -387.27189242668351
    Total Energy =                       -387.2718924266836211
  Basis Set: CC-PVTZ
  Basis Set:
  Basis Set: CC-PVTZ
  Basis Set:
  @DF-RHF Final Energy:  -387.27225433430158
    Total Energy =                       -387.2722543343016923
  Basis Set: CC-PVTZ
  Basis Set:
  @DF-RHF Final Energy:  -387.27239739124985
    Total Energy =                       -387.2723973912500242
  Basis Set: CC-PVTZ
  Basis Set:
  @DF-RHF Final Energy:  -387.27242402197828
    Total Energy =                       -387.2724240219786225
  Basis Set: CC-PVTZ
  Basis Set:
  Basis Set: CC-PVTZ
  Basis Set:
  @DF-RHF Final Energy:  -387.27241698171139
    Total Energy =                       -387.2724169817113307
  Basis Set: CC-PVTZ
  Basis Set:
  Basis Set: CC-PVTZ
  Basis Set:
  @DF-RHF Final Energy:  -387.27244941964437
    Total Energy =                       -387.2724494196445448
  Basis Set: CC-PVTZ
  Basis Set:
  Charge       = 0
  Multiplicity = 1
  Basis Set: CC-PVTZ
  Basis Set:

    Orbital Energies (a.u.)
    -----------------------

    Doubly Occupied:

       1A    -20.536946     2A    -11.319050     3A    -11.230273
       4A    -11.227991     5A    -11.225921     6A    -11.221789
       7A    -11.218344     8A    -11.217720     9A    -11.210408
      10A     -1.396602    11A     -1.102703    12A     -1.062210
      13A     -1.012099    14A     -0.971849    15A     -0.897983
      16A     -0.821334    17A     -0.797720    18A     -0.733248
      19A     -0.670081    20A     -0.649722    21A     -0.640088
      22A     -0.618063    23A     -0.604715    24A     -0.589600
      25A     -0.565638    26A     -0.560852    27A     -0.546236
      28A     -0.536145    29A     -0.512970    30A     -0.501595
      31A     -0.489430    32A     -0.481499    33A     -0.469527
      34A     -0.469214    35A     -0.458491    36A     -0.398286

  @DF-RHF Final Energy:  -387.27245016750584

   => Energetics <=

    Nuclear Repulsion Energy =            439.7698260299002300
    One-Electron Energy =               -1396.1518749417682557
    Two-Electron Energy =                 569.1095987443624153
    DFT Exchange-Correlation Energy =       0.0000000000000000
    Empirical Dispersion Energy =           0.0000000000000000
    PCM Polarization Energy =               0.0000000000000000
    EFP Energy =                            0.0000000000000000
    Total Energy =                       -387.2724501675055535
    Molecular point group: c1
  Basis Set: CC-PVTZ
  Basis Set:

  -Total Gradient:
     Atom            X                  Y                   Z
    ------   -----------------  -----------------  -----------------
       1        0.000154619433    -0.000218725842     0.000118132183
       2       -0.000244657071     0.000399484043    -0.000178044061
       3        0.000254275186    -0.000416783529     0.000296014504
       4        0.000057114632    -0.000080839160    -0.000062429231
       5       -0.000050788226     0.000048813211     0.000005943100
       6       -0.000125621484     0.000214343167    -0.000176329235
       7       -0.000021800982     0.000022043350    -0.000012422285
       8        0.000000311038     0.000000711547     0.000001571947
       9        0.000002426914    -0.000006923712    -0.000002691892
      10        0.000013001116     0.000001061531     0.000008380867
      11        0.000008161249     0.000003104597    -0.000011566467
      12       -0.000005975606    -0.000002905379    -0.000006496628
      13       -0.000004958665    -0.000005235430     0.000004631516
      14       -0.000001692424    -0.000008346994     0.000001694792
      15        0.000003311082     0.000005831012    -0.000009388524
      16        0.000006645046     0.000002720205     0.000003297770
      17        0.000008264264    -0.000002396692     0.000002963147
      18       -0.000004260903     0.000000512199    -0.000005181680
      19       -0.000002644862    -0.000008268794     0.000005537562
      20        0.000000960877     0.000003487734    -0.000006525143
      21        0.000000695917    -0.000004955060     0.000001489147
      22        0.000001063610     0.000003805715     0.000005583499
      23       -0.000005990478     0.000002596458    -0.000001776429
      24       -0.000031854932     0.000018393778     0.000015680528
      25       -0.000010604735     0.000028472045     0.000001931013

  **** Optimization is complete! (in 9 steps) ****
    Final optimized geometry and variables:
    Molecular point group: c1

    Geometry (in Angstrom), charge = 0, multiplicity = 1:

    O            3.664370028375    -0.154352939170    -0.882404755014
    C            2.873708875646     0.059284689220    -0.021600485997
    C            1.563519972261    -0.699149819516     0.046081316601
    C            3.147713379798     1.094449978162     1.046848158306
    C            0.319417397378     0.193883578750     0.015164993241
    H            1.552875329411    -1.388159944120    -0.787380397746
    H            1.563890432558    -1.284771556710     0.962320212457
    C           -0.975257486358    -0.614116072441    -0.006398062088
    H            0.359195093143     0.831915392248    -0.863486676653
    H            0.312669100507     0.853327295948     0.877111771108
    C           -2.227757286279     0.256619271096    -0.040494165159
    H           -0.970896644618    -1.272688445278    -0.870709333151
    H           -1.008859348921    -1.259324905016     0.868170758268
    C           -3.523928081540    -0.548561709811    -0.064750844661
    H           -2.191905648141     0.903169170108    -0.914035456000
    H           -2.232086016266     0.915201370439     0.824979206224
    C           -4.772206073336     0.326756455328    -0.098144389418
    H           -3.521636051177    -1.205404262832    -0.930196230457
    H           -3.560969512826    -1.195232055211     0.807696710201
    H           -4.782035767314     0.960979639606    -0.978320694977
    H           -5.673349658599    -0.275234210083    -0.114821259707
    H           -4.821610011556     0.971700643240     0.772941482318
    H            2.878805974790     0.725280262508     2.029626150455
    H            4.191891669347     1.366024750049     1.024776964106
    H            2.550349919542     1.979357883265     0.856936251626

  Mulliken Charges: (a.u.)
   Center  Symbol    Alpha    Beta     Spin     Total
       1     O     4.17279  4.17279  0.00000 -0.34559
       2     C     2.85794  2.85794  0.00000  0.28412
       3     C     3.09704  3.09704  0.00000 -0.19409
       4     C     3.16459  3.16459  0.00000 -0.32918
       5     C     3.10751  3.10751  0.00000 -0.21502
       6     H     0.43848  0.43848  0.00000  0.12305
       7     H     0.44794  0.44794  0.00000  0.10412
       8     C     3.08999  3.08999  0.00000 -0.17998
       9     H     0.44557  0.44557  0.00000  0.10887
      10     H     0.45035  0.45035  0.00000  0.09929
      11     C     3.08583  3.08583  0.00000 -0.17166
      12     H     0.44991  0.44991  0.00000  0.10018
      13     H     0.45364  0.45364  0.00000  0.09271
      14     C     3.08517  3.08517  0.00000 -0.17035
      15     H     0.45368  0.45368  0.00000  0.09263
      16     H     0.45519  0.45519  0.00000  0.08963
      17     C     3.15032  3.15032  0.00000 -0.30063
      18     H     0.45356  0.45356  0.00000  0.09287
      19     H     0.45439  0.45439  0.00000  0.09123
      20     H     0.45460  0.45460  0.00000  0.09080
      21     H     0.44772  0.44772  0.00000  0.10455
      22     H     0.45520  0.45520  0.00000  0.08960
      23     H     0.44897  0.44897  0.00000  0.10205
      24     H     0.43226  0.43226  0.00000  0.13548
      25     H     0.44735  0.44735  0.00000  0.10530

   Total alpha = 36.00000, Total beta = 36.00000, Total charge = -0.00000

*** Psi4 exiting successfully. Buy a developer a beer!
