  ==> Input File <==

--------------------------------------------------------------------------
set {
	reference rhf
	basis 6-31G*
}

set_num_threads( 4 )
memory 2 gb

molecule MOL {
0 1

H	 -1.454736	 -0.331950	 0.435647
N	 -0.626943	 -0.667432	 -0.000092
C	 -0.655931	 -1.980474	 -0.603247
C	 0.469286	 0.129090	 0.000148
H	 -0.886030	 -2.741852	 0.134564
H	 0.317187	 -2.180842	 -1.021126
H	 -1.395891	 -2.028404	 -1.395202
C	 1.788933	 -0.616240	 -0.000037
O	 0.411098	 1.327768	 -0.000049
H	 1.872803	 -1.245775	 -0.880381
H	 2.595421	 0.101576	 0.003713
H	 1.870096	 -1.252171	 0.875943

	symmetry c1
}
set optking {
	frozen_dihedral = ("
		3 2 4 9
	")
}

ee = optimize('scf')
oeprop('DIPOLE', 'QUADRUPOLE', 'MULLIKEN_CHARGES')
f=open( 'psi4out.xyz', 'w' )
f.write( "12  " )
f.write( str(ee) + "\n" )
f.write( MOL.save_string_xyz() )
f.close()
--------------------------------------------------------------------------

    Molecular point group: c1
  Charge       = 0
  Multiplicity = 1
  Basis Set: 6-31G*
  Basis Set:
  @DF-RHF Final Energy:  -246.98785132103444
    Total Energy =                       -246.9878513210344408
    Molecular point group: c1
  Basis Set: 6-31G*
  Basis Set:
  Basis Set: 6-31G*
  Basis Set:
  @DF-RHF Final Energy:  -246.99219955350546
    Total Energy =                       -246.9921995535054862
  Basis Set: 6-31G*
  Basis Set:
  Basis Set: 6-31G*
  Basis Set:
  @DF-RHF Final Energy:  -246.99745913415336
    Total Energy =                       -246.9974591341533596
  Basis Set: 6-31G*
  Basis Set:
  Basis Set: 6-31G*
  Basis Set:
  @DF-RHF Final Energy:  -246.99879115617989
    Total Energy =                       -246.9987911561801184
  Basis Set: 6-31G*
  Basis Set:
  @DF-RHF Final Energy:  -246.99926553726166
    Total Energy =                       -246.9992655372618628
  @DF-RHF Final Energy:  -246.99976077905998
    Total Energy =                       -246.9997607790599545
  @DF-RHF Final Energy:  -247.00027433007108
    Total Energy =                       -247.0002743300711927
  @DF-RHF Final Energy:  -247.00057470956150
    Total Energy =                       -247.0005747095617608
  Basis Set: 6-31G*
  Basis Set:
  @DF-RHF Final Energy:  -247.00069979653716
    Total Energy =                       -247.0006997965368782
  Basis Set: 6-31G*
  Basis Set:
  Basis Set: 6-31G*
  Basis Set:
  @DF-RHF Final Energy:  -247.00074887485951
    Total Energy =                       -247.0007488748595961
  Basis Set: 6-31G*
  Basis Set:
  Basis Set: 6-31G*
  Basis Set:
  @DF-RHF Final Energy:  -247.00075685250013
    Total Energy =                       -247.0007568525002739
  Basis Set: 6-31G*
  Basis Set:
  Charge       = 0
  Multiplicity = 1
  Basis Set: 6-31G*
  Basis Set:

    Orbital Energies (a.u.)
    -----------------------

    Doubly Occupied:

       1A    -20.522495     2A    -15.578022     3A    -11.344984
       4A    -11.270288     5A    -11.230361     6A     -1.389688
       7A     -1.228405     8A     -1.006406     9A     -0.954019
      10A     -0.778110    11A     -0.674059    12A     -0.667097
      13A     -0.638581    14A     -0.590084    15A     -0.577131
      16A     -0.562029    17A     -0.554110    18A     -0.513338
      19A     -0.417923    20A     -0.388193

  @DF-RHF Final Energy:  -247.00075729750600

   => Energetics <=

    Nuclear Repulsion Energy =            181.3217438046101222
    One-Electron Energy =                -694.8743596526948068
    Two-Electron Energy =                 266.5518585505787428
    DFT Exchange-Correlation Energy =       0.0000000000000000
    Empirical Dispersion Energy =           0.0000000000000000
    PCM Polarization Energy =               0.0000000000000000
    EFP Energy =                            0.0000000000000000
    Total Energy =                       -247.0007572975059134
    Molecular point group: c1
  Basis Set: 6-31G*
  Basis Set:

  -Total Gradient:
     Atom            X                  Y                   Z
    ------   -----------------  -----------------  -----------------
       1        0.000002865411    -0.000009639541     0.000006823527
       2        0.001864397170    -0.001932535076     0.001956609506
       3       -0.001321556849     0.001322158861    -0.002166914468
       4        0.000029183022     0.000319137146     0.003470254942
       5       -0.000002942655    -0.000014653712    -0.000005449770
       6        0.000018168371    -0.000006650214    -0.000003626984
       7       -0.000001040362     0.000011234421     0.000006587464
       8       -0.000004686409    -0.000015400973     0.000045942454
       9       -0.000573187781     0.000328225389    -0.003284267596
      10       -0.000011954491    -0.000007230757    -0.000018758505
      11       -0.000006670393    -0.000003455312     0.000001976016
      12        0.000007424968     0.000008809767    -0.000009176586

  **** Optimization is complete! (in 12 steps) ****
    Final optimized geometry and variables:
    Molecular point group: c1

    Geometry (in Angstrom), charge = 0, multiplicity = 1:

    H           -1.709568605442     0.130819068317     0.329643015027
    N           -0.849796646018    -0.368955454565     0.243143676667
    C           -0.944196748545    -1.631673306505    -0.461893423271
    C            0.206614097433     0.495224891507     0.137388627088
    H           -1.847287394675    -2.134166741086    -0.142656613147
    H           -0.109353570563    -2.273063847688    -0.213209411547
    H           -0.981486370448    -1.514625544409    -1.542411204382
    C            1.563989275014    -0.116222306933    -0.132114557736
    O            0.057894278978     1.677102229976     0.267023488139
    H            1.610896770145    -0.513914786302    -1.141291319173
    H            2.310582762724     0.656500275740    -0.025862971619
    H            1.774882350777    -0.926645855150     0.556496985525

  Mulliken Charges: (a.u.)
   Center  Symbol    Alpha    Beta     Spin     Total
       1     H     0.31007  0.31007  0.00000  0.37986
       2     N     3.87706  3.87706  0.00000 -0.75413
       3     C     3.14764  3.14764  0.00000 -0.29527
       4     C     2.63936  2.63936  0.00000  0.72129
       5     H     0.40631  0.40631  0.00000  0.18739
       6     H     0.40906  0.40906  0.00000  0.18188
       7     H     0.41646  0.41646  0.00000  0.16708
       8     C     3.29781  3.29781  0.00000 -0.59561
       9     O     4.29320  4.29320  0.00000 -0.58640
      10     H     0.40654  0.40654  0.00000  0.18692
      11     H     0.39140  0.39140  0.00000  0.21721
      12     H     0.40510  0.40510  0.00000  0.18979

   Total alpha = 20.00000, Total beta = 20.00000, Total charge = -0.00000
