  ==> Input File <==

--------------------------------------------------------------------------
set {
	reference rhf
	basis cc-pvtz
}

set_num_threads( 4 )
memory 2 gb

molecule MOL {
0 1

O	 -0.694481	 1.313155	 -0.204815
C	 -0.862519	 0.151932	 -0.046791
C	 -2.171428	 -0.477048	 0.339095
O	 0.085519	 -0.757083	 -0.192238
H	 -2.467997	 -1.191667	 -0.417688
H	 -2.923379	 0.287970	 0.444097
H	 -2.053854	 -1.015120	 1.270901
C	 0.724313	 -0.883763	 -1.457296
C	 1.868761	 0.096852	 -1.607407
H	 -0.006699	 -0.750952	 -2.239472
H	 1.084190	 -1.901438	 -1.481358
H	 2.371747	 -0.073948	 -2.552544
H	 1.508511	 1.116369	 -1.593695
H	 2.590230	 -0.032052	 -0.809623

	symmetry c1
}
set optking {
	frozen_dihedral = ("
		8 4 2 1
	")
}

ee = optimize('scf')
oeprop('DIPOLE', 'QUADRUPOLE', 'MULLIKEN_CHARGES')
f=open( 'psi4out.xyz', 'w' )
f.write( "14  " )
f.write( str(ee) + "\n" )
f.write( MOL.save_string_xyz() )
f.close()
--------------------------------------------------------------------------

    Molecular point group: c1
  Charge       = 0
  Multiplicity = 1
  Basis Set: CC-PVTZ
  Basis Set:
  @DF-RHF Final Energy:  -305.97592020198397
    Total Energy =                       -305.9759202019840814
    Molecular point group: c1
  Basis Set: CC-PVTZ
  Basis Set:
  Basis Set: CC-PVTZ
  Basis Set:
  @DF-RHF Final Energy:  -305.97392083021327
    Total Energy =                       -305.9739208302135012
  Basis Set: CC-PVTZ
  Basis Set:
  Basis Set: CC-PVTZ
  Basis Set:
  @DF-RHF Final Energy:  -305.97704215922897
    Total Energy =                       -305.9770421592288585
  Basis Set: CC-PVTZ
  Basis Set:
  Basis Set: CC-PVTZ
  Basis Set:
  @DF-RHF Final Energy:  -305.97720703784876
    Total Energy =                       -305.9772070378489843
  Basis Set: CC-PVTZ
  Basis Set:
  @DF-RHF Final Energy:  -305.97726930805783
    Total Energy =                       -305.9772693080582258
  @DF-RHF Final Energy:  -305.97730274621063
    Total Energy =                       -305.9773027462105119
  @DF-RHF Final Energy:  -305.97731177625553
    Total Energy =                       -305.9773117762555330
  @DF-RHF Final Energy:  -305.97731423161349
    Total Energy =                       -305.9773142316138319
  @DF-RHF Final Energy:  -305.97695935041014
    Total Energy =                       -305.9769593504100840
  @DF-RHF Final Energy:  -305.96692004761724
    Total Energy =                       -305.9669200476173501
  @DF-RHF Final Energy:  -305.97683315575898
    Total Energy =                       -305.9768331557590386
  @DF-RHF Final Energy:  -305.97742657519291
    Total Energy =                       -305.9774265751927942
  @DF-RHF Final Energy:  -305.97811153393945
    Total Energy =                       -305.9781115339395683
  @DF-RHF Final Energy:  -305.92146894146629
    Total Energy =                       -305.9214689414666282
  @DF-RHF Final Energy:  -305.96971622047749
    Total Energy =                       -305.9697162204773804
  @DF-RHF Final Energy:  -305.97806450669373
    Total Energy =                       -305.9780645066937268
  @DF-RHF Final Energy:  -305.97850427314427
    Total Energy =                       -305.9785042731440967
  @DF-RHF Final Energy:  -305.97866855734725
    Total Energy =                       -305.9786685573471345
  @DF-RHF Final Energy:  -305.97881995272962
    Total Energy =                       -305.9788199527295092
  Basis Set: CC-PVTZ
  Basis Set:
  @DF-RHF Final Energy:  -305.97886554687136
    Total Energy =                       -305.9788655468714751
  Basis Set: CC-PVTZ
  Basis Set:
  Basis Set: CC-PVTZ
  Basis Set:
  @DF-RHF Final Energy:  -305.97887198726801
    Total Energy =                       -305.9788719872679508
  Basis Set: CC-PVTZ
  Basis Set:
  Basis Set: CC-PVTZ
  Basis Set:
  @DF-RHF Final Energy:  -305.97887382893521
    Total Energy =                       -305.9788738289352636
  Basis Set: CC-PVTZ
  Basis Set:
  Charge       = 0
  Multiplicity = 1
  Basis Set: CC-PVTZ
  Basis Set:

    Orbital Energies (a.u.)
    -----------------------

    Doubly Occupied:

       1A    -20.580625     2A    -20.541618     3A    -11.369478
       4A    -11.289328     5A    -11.234010     6A    -11.221804
       7A     -1.463303     8A     -1.368010     9A     -1.054276
      10A     -1.004680    11A     -0.871720    12A     -0.781215
      13A     -0.698598    14A     -0.687987    15A     -0.655714
      16A     -0.624712    17A     -0.582949    18A     -0.574034
      19A     -0.554507    20A     -0.532893    21A     -0.518628
      22A     -0.501197    23A     -0.453987    24A     -0.440829

  @DF-RHF Final Energy:  -305.97887430096432

   => Energetics <=

    Nuclear Repulsion Energy =            245.1738985445856258
    One-Electron Energy =                -903.0933470965196648
    Two-Electron Energy =                 351.9405742509694619
    DFT Exchange-Correlation Energy =       0.0000000000000000
    Empirical Dispersion Energy =           0.0000000000000000
    PCM Polarization Energy =               0.0000000000000000
    EFP Energy =                            0.0000000000000000
    Total Energy =                       -305.9788743009645486
    Molecular point group: c1
  Basis Set: CC-PVTZ
  Basis Set:

  -Total Gradient:
     Atom            X                  Y                   Z
    ------   -----------------  -----------------  -----------------
       1        0.000515745046     0.005720828531     0.006072390176
       2       -0.001011242654    -0.011538363607    -0.008212103781
       3       -0.000039849239    -0.000017752891    -0.000016348346
       4        0.001181937153     0.012087940727     0.000510712641
       5        0.000013825543     0.000011433436     0.000017315472
       6        0.000000778256    -0.000000604222     0.000018086950
       7       -0.000002028925     0.000021262929     0.000013474752
       8       -0.000632765232    -0.006309907455     0.001589067404
       9       -0.000028025293     0.000033674267    -0.000020308670
      10        0.000001633234     0.000001152226     0.000003836978
      11       -0.000000787297    -0.000000355689     0.000000612266
      12        0.000000000699    -0.000005553064     0.000006367248
      13       -0.000001001352    -0.000001171701     0.000009649023
      14        0.000001780058    -0.000002583486     0.000007247888

  **** Optimization is complete! (in 23 steps) ****
    Final optimized geometry and variables:
    Molecular point group: c1

    Geometry (in Angstrom), charge = 0, multiplicity = 1:

    O           -1.491844438429     0.969671846615    -0.384038166226
    C           -0.932641648626     0.196286675504     0.307523566925
    C           -1.601225458445    -0.665699650027     1.338903285880
    O            0.402137919936     0.068411749977     0.321865625594
    H           -1.419221700593    -1.709096178495     1.109967752184
    H           -2.660907439571    -0.468852845762     1.358959982713
    H           -1.162198477497    -0.465899858390     2.308022436981
    C            1.039251874936    -0.292451670699    -0.895200607582
    C            2.532750397640    -0.261164574333    -0.673478035219
    H            0.744141367252     0.398288665519    -1.672687493997
    H            0.712825316617    -1.287929831328    -1.177685750717
    H            3.045788715044    -0.547674995161    -1.584016765096
    H            2.853971975655     0.734238551485    -0.395148372518
    H            2.819135905927    -0.947179848844     0.113576930807

  Mulliken Charges: (a.u.)
   Center  Symbol    Alpha    Beta     Spin     Total
       1     O     4.17889  4.17889  0.00000 -0.35777
       2     C     2.80529  2.80529  0.00000  0.38942
       3     C     3.13748  3.13748  0.00000 -0.27497
       4     O     4.16799  4.16799  0.00000 -0.33598
       5     H     0.45020  0.45020  0.00000  0.09960
       6     H     0.43800  0.43800  0.00000  0.12400
       7     H     0.44370  0.44370  0.00000  0.11261
       8     C     2.97371  2.97371  0.00000  0.05258
       9     C     3.13479  3.13479  0.00000 -0.26958
      10     H     0.44813  0.44813  0.00000  0.10375
      11     H     0.46659  0.46659  0.00000  0.06682
      12     H     0.45622  0.45622  0.00000  0.08756
      13     H     0.44764  0.44764  0.00000  0.10472
      14     H     0.45139  0.45139  0.00000  0.09722

   Total alpha = 24.00000, Total beta = 24.00000, Total charge = -0.00000
