                              Psi4 1.0.54 Driver

  ==> Input File <==

--------------------------------------------------------------------------
set {
	reference rhf
	basis cc-pvtz
}

set_num_threads( 4 )
memory 2 gb

molecule MOL {
0 1

H	 -1.096423	 -0.875589	 0.191393
N	 -0.712187	 0.000026	 -0.093397
C	 0.734067	 -0.000020	 0.038424
H	 -1.122994	 0.702842	 0.483431
H	 1.140372	 -0.872115	 -0.458226
H	 1.140363	 0.872301	 -0.457869
H	 1.095085	 -0.000244	 1.065614

	symmetry c1
}
set optking {
	frozen_dihedral = ("
		1 2 3 7
	")
}

ee,wfn = optimize('scf', return_wfn=True)
oeprop( wfn, 'DIPOLE', 'QUADRUPOLE', 'MULLIKEN_CHARGES')
f=open( 'psi4out.xyz', 'w' )
f.write( "7  " )
f.write( str(ee) + "\n" )
f.write( MOL.save_string_xyz() )
f.close()
--------------------------------------------------------------------------

    Molecular point group: c1
  Charge       = 0
  Multiplicity = 1
  Basis Set: CC-PVTZ
  Basis Set:
  @DF-RHF Final Energy:   -95.25351123707303
    Total Energy =                        -95.2535112370729991
    Molecular point group: c1
  Basis Set: CC-PVTZ
  Basis Set:
  Basis Set: CC-PVTZ
  Basis Set:
  @DF-RHF Final Energy:   -95.25353192506623
    Total Energy =                        -95.2535319250662553
  Basis Set: CC-PVTZ
  Basis Set:
  Charge       = 0
  Multiplicity = 1
  Basis Set: CC-PVTZ
  Basis Set:

    Orbital Energies (a.u.)
    -----------------------

    Doubly Occupied:

       1A    -15.527955     2A    -11.235464     3A     -1.171613
       4A     -0.897077     5A     -0.666734     6A     -0.602610
       7A     -0.559069     8A     -0.517887     9A     -0.385412

  @DF-RHF Final Energy:   -95.25353399616810

   => Energetics <=

    Nuclear Repulsion Energy =             42.3888211434319047
    One-Electron Energy =                -212.1570679602780558
    Two-Electron Energy =                  74.5147128206780138
    DFT Exchange-Correlation Energy =       0.0000000000000000
    Empirical Dispersion Energy =           0.0000000000000000
    PCM Polarization Energy =               0.0000000000000000
    EFP Energy =                            0.0000000000000000
    Total Energy =                        -95.2535339961681444
    Molecular point group: c1
  Basis Set: CC-PVTZ
  Basis Set:

  -Total Gradient:
     Atom            X                  Y                   Z
    ------   -----------------  -----------------  -----------------
       1        0.000143564453    -0.000532886813    -0.001301866640
       2       -0.000240459452     0.000988214547     0.001564286094
       3        0.000200256179    -0.001851999305    -0.000249932377
       4        0.000019871562     0.000052569117     0.000016200877
       5       -0.000076492860     0.000002293444    -0.000022967322
       6       -0.000019403711     0.000004789562     0.000014328035
       7       -0.000027336172     0.001337019449    -0.000020048667

  **** Optimization is complete! (in 3 steps) ****
    Final optimized geometry and variables:
    Molecular point group: c1

    Geometry (in Angstrom), charge = 0, multiplicity = 1:

    H           -1.097957156502    -0.870030586125     0.194651308994
    N           -0.712162930088     0.004393160691    -0.089781243089
    C            0.734289744716     0.005702653559     0.036899478459
    H           -1.127752424999     0.716672435235     0.470910587217
    H            1.139794276576    -0.862513488578    -0.466396092487
    H            1.139972693357     0.881960724957    -0.454147325182
    H            1.097921615820     0.004970282114     1.063077791934

  Mulliken Charges: (a.u.)
   Center  Symbol    Alpha    Beta     Spin     Total
       1     H     0.42769  0.42769  0.00000  0.14462
       2     N     3.68823  3.68823  0.00000 -0.37645
       3     C     3.07080  3.07080  0.00000 -0.14159
       4     H     0.42820  0.42820  0.00000  0.14359
       5     H     0.45633  0.45633  0.00000  0.08734
       6     H     0.45658  0.45658  0.00000  0.08684
       7     H     0.47217  0.47217  0.00000  0.05565

   Total alpha =  9.00000, Total beta =  9.00000, Total charge =  0.00000

*** Psi4 exiting successfully. Buy a developer a beer!
