                              Psi4 1.0.54 Driver

  ==> Input File <==

--------------------------------------------------------------------------
set {
	reference rhf
	basis cc-pvtz
}

set_num_threads( 4 )
memory 2 gb

molecule MOL {
0 1

H	 3.459101	 0.139266	 -0.762951
C	 2.749156	 -0.051729	 0.031265
C	 1.322304	 0.099773	 -0.484271
H	 2.929445	 -1.053887	 0.403481
H	 2.954281	 0.646699	 0.834672
C	 0.308557	 -0.162619	 0.622645
H	 1.143368	 -0.594400	 -1.295960
H	 1.169532	 1.100095	 -0.870217
N	 -1.069352	 -0.004081	 0.085342
H	 0.371632	 -1.172932	 0.991288
H	 0.400391	 0.548875	 1.426218
O	 -1.452227	 -0.826674	 -0.677104
O	 -1.681163	 0.949660	 0.433203

	symmetry c1
}
set optking {
	frozen_dihedral = ("
		12 9 6 3
	")
}

ee,wfn = optimize('scf', return_wfn=True)
oeprop( wfn, 'DIPOLE', 'QUADRUPOLE', 'MULLIKEN_CHARGES')
f=open( 'psi4out.xyz', 'w' )
f.write( "13  " )
f.write( str(ee) + "\n" )
f.write( MOL.save_string_xyz() )
f.close()
--------------------------------------------------------------------------

    Molecular point group: c1
  Charge       = 0
  Multiplicity = 1
  Basis Set: CC-PVTZ
  Basis Set:
  @DF-RHF Final Energy:  -321.86134913908296
    Total Energy =                       -321.8613491390829608
    Molecular point group: c1
  Basis Set: CC-PVTZ
  Basis Set:
  Basis Set: CC-PVTZ
  Basis Set:
  @DF-RHF Final Energy:  -321.85959824282497
    Total Energy =                       -321.8595982428248021
  Basis Set: CC-PVTZ
  Basis Set:
  Basis Set: CC-PVTZ
  Basis Set:
  @DF-RHF Final Energy:  -321.86121747345612
    Total Energy =                       -321.8612174734564633
  Basis Set: CC-PVTZ
  Basis Set:
  Basis Set: CC-PVTZ
  Basis Set:
  @DF-RHF Final Energy:  -321.86141132454293
    Total Energy =                       -321.8614113245430417
  Basis Set: CC-PVTZ
  Basis Set:
  Basis Set: CC-PVTZ
  Basis Set:
  @DF-RHF Final Energy:  -321.86141344018506
    Total Energy =                       -321.8614134401848332
  Basis Set: CC-PVTZ
  Basis Set:
  Charge       = 0
  Multiplicity = 1
  Basis Set: CC-PVTZ
  Basis Set:

    Orbital Energies (a.u.)
    -----------------------

    Doubly Occupied:

       1A    -20.592126     2A    -20.589016     3A    -15.837145
       4A    -11.297467     5A    -11.253200     6A    -11.236877
       7A     -1.636205     8A     -1.420481     9A     -1.133856
      10A     -1.027754    11A     -0.884189    12A     -0.833501
      13A     -0.762111    14A     -0.739744    15A     -0.728172
      16A     -0.671867    17A     -0.604376    18A     -0.587210
      19A     -0.551340    20A     -0.521246    21A     -0.513348
      22A     -0.487368    23A     -0.474927    24A     -0.453312

  @DF-RHF Final Energy:  -321.86141399664348

   => Energetics <=

    Nuclear Repulsion Energy =            247.9431446415512426
    One-Electron Energy =                -929.9354376946682805
    Two-Electron Energy =                 360.1308790564734181
    DFT Exchange-Correlation Energy =       0.0000000000000000
    Empirical Dispersion Energy =           0.0000000000000000
    PCM Polarization Energy =               0.0000000000000000
    EFP Energy =                            0.0000000000000000
    Total Energy =                       -321.8614139966435914
    Molecular point group: c1
  Basis Set: CC-PVTZ
  Basis Set:

  -Total Gradient:
     Atom            X                  Y                   Z
    ------   -----------------  -----------------  -----------------
       1        0.000001224244     0.000002824384    -0.000006751080
       2       -0.000024597469     0.000001820531     0.000007077464
       3        0.000001747002    -0.000248706764    -0.000053807696
       4        0.000007229432    -0.000007999644     0.000001458664
       5       -0.000006618023    -0.000005031870    -0.000001035080
       6        0.000054917584     0.000421602340    -0.000014451256
       7       -0.000010223752    -0.000005799975     0.000017688543
       8        0.000003872942     0.000014776812    -0.000016904661
       9       -0.000223190249    -0.000416034349     0.000282008384
      10        0.000014940915    -0.000014797067     0.000012284363
      11        0.000015349280     0.000004287367     0.000000468272
      12        0.000158275443     0.000239651239    -0.000243259507
      13        0.000007072649     0.000013406996     0.000015223592

  **** Optimization is complete! (in 6 steps) ****
    Final optimized geometry and variables:
    Molecular point group: c1

    Geometry (in Angstrom), charge = 0, multiplicity = 1:

    H            3.469031676050     0.126343000163    -0.754580171468
    C            2.753415546496    -0.056059089572     0.036560799005
    C            1.330255969313     0.089744853614    -0.491113581268
    H            2.930480990503    -1.054785321123     0.419805275551
    H            2.954221400427     0.649703689222     0.834621163830
    C            0.310920325721    -0.161617398274     0.611669569673
    H            1.155047236624    -0.608956905095    -1.297702387771
    H            1.182593623749     1.088066197577    -0.887277806374
    N           -1.071115350827     0.000809889906     0.083125779458
    H            0.366938198948    -1.175774485120     0.976021615888
    H            0.404511572726     0.539373020911     1.423002981839
    O           -1.457922026964    -0.825873163294    -0.673859292938
    O           -1.686611249478     0.948617264634     0.438228477212

  Mulliken Charges: (a.u.)
   Center  Symbol    Alpha    Beta     Spin     Total
       1     H     0.44163  0.44163  0.00000  0.11674
       2     C     3.15116  3.15116  0.00000 -0.30232
       3     C     3.09624  3.09624  0.00000 -0.19248
       4     H     0.45181  0.45181  0.00000  0.09638
       5     H     0.45176  0.45176  0.00000  0.09649
       6     C     3.03957  3.03957  0.00000 -0.07915
       7     H     0.43470  0.43470  0.00000  0.13059
       8     H     0.44147  0.44147  0.00000  0.11705
       9     N     3.27655  3.27655  0.00000  0.44690
      10     H     0.43627  0.43627  0.00000  0.12746
      11     H     0.43337  0.43337  0.00000  0.13326
      12     O     4.17525  4.17525  0.00000 -0.35050
      13     O     4.17022  4.17022  0.00000 -0.34043

   Total alpha = 24.00000, Total beta = 24.00000, Total charge =  0.00000

*** Psi4 exiting successfully. Buy a developer a beer!
