                              Psi4 1.0.54 Driver

  ==> Input File <==

--------------------------------------------------------------------------
set {
	reference rhf
	basis cc-pvtz
}

set_num_threads( 4 )
memory 2 gb

molecule MOL {
0 1

H	 -4.230259	 0.539112	 0.036360
O	 -3.515113	 -0.019339	 -0.206321
C	 -2.302264	 0.528872	 0.237390
C	 -1.175688	 -0.398187	 -0.171891
H	 -2.148018	 1.514076	 -0.197759
H	 -2.310727	 0.646384	 1.319032
C	 0.196029	 0.106276	 0.266738
H	 -1.201873	 -0.515469	 -1.250677
H	 -1.365975	 -1.378728	 0.252664
C	 1.330220	 -0.826136	 -0.155230
H	 0.359542	 1.097229	 -0.145561
H	 0.212134	 0.218135	 1.348778
C	 2.719700	 -0.407669	 0.328325
H	 1.339388	 -0.911200	 -1.239363
H	 1.119001	 -1.821953	 0.224128
C	 3.872759	 -0.884873	 -0.551499
H	 2.864408	 -0.796711	 1.331527
H	 2.757661	 0.675055	 0.416078
H	 3.856311	 -1.964381	 -0.663088
H	 3.834391	 -0.449613	 -1.542844
H	 4.827107	 -0.613674	 -0.114642

	symmetry c1
}
set optking {
	frozen_dihedral = ("
		16 13 10 14
	")
}

ee,wfn = optimize('scf', return_wfn=True)
oeprop( wfn, 'DIPOLE', 'QUADRUPOLE', 'MULLIKEN_CHARGES')
f=open( 'psi4out.xyz', 'w' )
f.write( "21  " )
f.write( str(ee) + "\n" )
f.write( MOL.save_string_xyz() )
f.close()
--------------------------------------------------------------------------

    Molecular point group: c1
  Charge       = 0
  Multiplicity = 1
  Basis Set: CC-PVTZ
  Basis Set:
  @DF-RHF Final Energy:  -310.33201663431100
    Total Energy =                       -310.3320166343111168
    Molecular point group: c1
  Basis Set: CC-PVTZ
  Basis Set:
  Basis Set: CC-PVTZ
  Basis Set:
  @DF-RHF Final Energy:  -310.33243408110985
    Total Energy =                       -310.3324340811098523
  Basis Set: CC-PVTZ
  Basis Set:
  Basis Set: CC-PVTZ
  Basis Set:
  @DF-RHF Final Energy:  -310.33247025066174
    Total Energy =                       -310.3324702506616291
  Basis Set: CC-PVTZ
  Basis Set:
  Basis Set: CC-PVTZ
  Basis Set:
  @DF-RHF Final Energy:  -310.33247198286756
    Total Energy =                       -310.3324719828674461
  Basis Set: CC-PVTZ
  Basis Set:
  Charge       = 0
  Multiplicity = 1
  Basis Set: CC-PVTZ
  Basis Set:

    Orbital Energies (a.u.)
    -----------------------

    Doubly Occupied:

       1A    -20.545462     2A    -11.265096     3A    -11.214053
       4A    -11.212578     5A    -11.210756     6A    -11.209021
       7A    -11.206232     8A     -1.363331     9A     -1.087007
      10A     -1.035599    11A     -0.957938    12A     -0.868175
      13A     -0.802889    14A     -0.791211    15A     -0.695982
      16A     -0.664220    17A     -0.631051    18A     -0.598734
      19A     -0.583648    20A     -0.564661    21A     -0.548200
      22A     -0.521638    23A     -0.508746    24A     -0.485791
      25A     -0.477850    26A     -0.462914    27A     -0.457972
      28A     -0.444372    29A     -0.437448

  @DF-RHF Final Energy:  -310.33247255694710

   => Energetics <=

    Nuclear Repulsion Energy =            309.4335324043997844
    One-Electron Energy =               -1033.8268655748699985
    Two-Electron Energy =                 414.0608606135228911
    DFT Exchange-Correlation Energy =       0.0000000000000000
    Empirical Dispersion Energy =           0.0000000000000000
    PCM Polarization Energy =               0.0000000000000000
    EFP Energy =                            0.0000000000000000
    Total Energy =                       -310.3324725569473230
    Molecular point group: c1
  Basis Set: CC-PVTZ
  Basis Set:

  -Total Gradient:
     Atom            X                  Y                   Z
    ------   -----------------  -----------------  -----------------
       1        0.000003568307     0.000002350253     0.000002101103
       2        0.000010184689    -0.000006286938    -0.000005334904
       3        0.000008742463     0.000005157883     0.000006139131
       4       -0.000012225004     0.000002379691    -0.000005697770
       5       -0.000003202963    -0.000001573831    -0.000000431325
       6       -0.000000250030     0.000000073289    -0.000001556995
       7       -0.000017211049    -0.000009589980    -0.000003303602
       8        0.000001253340     0.000001310724     0.000002274042
       9        0.000004998756     0.000000584591     0.000002939300
      10       -0.001459642248     0.006029950352    -0.001200690160
      11       -0.000001986592    -0.000013913677    -0.000003562112
      12        0.000009864082    -0.000007754409    -0.000002514791
      13        0.000518304665    -0.004540874524     0.002500205508
      14        0.001115723868    -0.004021776772     0.000404957597
      15        0.000001215783     0.000006505721     0.000024797696
      16       -0.000171532160     0.002554649498    -0.001714725996
      17        0.000000793729     0.000000655160     0.000004066869
      18        0.000003319948    -0.000011109286    -0.000012141776
      19       -0.000003258791     0.000022313079     0.000007141886
      20        0.000010985485     0.000001114974     0.000007336992
      21       -0.000019646294    -0.000014165798    -0.000012000691

  **** Optimization is complete! (in 5 steps) ****
    Final optimized geometry and variables:
    Molecular point group: c1

    Geometry (in Angstrom), charge = 0, multiplicity = 1:

    H           -4.312411919739     0.834114534775     0.068262363035
    O           -3.603226929858     0.267970826852    -0.173925527235
    C           -2.384877013724     0.802451894919     0.271273885297
    C           -1.268143870380    -0.136611172127    -0.137529102253
    H           -2.219340008407     1.786141367756    -0.163108156279
    H           -2.392974340940     0.919370841352     1.352970621723
    C            0.107927107071     0.352498649027     0.302306127544
    H           -1.294408003703    -0.253323196219    -1.216345355106
    H           -1.469144200607    -1.115094129393     0.286740589100
    C            1.239113053645    -0.579574163945    -0.117583713772
    H            0.291375982059     1.341708246508    -0.110254048510
    H            0.124488371569     0.466630287928     1.384011841049
    C            2.620359080170    -0.141350744346     0.380555473605
    H            1.257711525365    -0.687457978508    -1.198810882394
    H            1.031406975247    -1.578938220982     0.257976014347
    C            3.764979493854    -0.643617623557    -0.493525303591
    H            2.761345493169    -0.471790989223     1.404835480535
    H            2.662725544927     0.944377426757     0.406760488435
    H            3.763797237043    -1.726801321561    -0.563719792071
    H            3.682333502943    -0.249045556600    -1.500332587855
    H            4.726704948271    -0.340601080157    -0.095484185941

  Mulliken Charges: (a.u.)
   Center  Symbol    Alpha    Beta     Spin     Total
       1     H     0.39759  0.39759  0.00000  0.20481
       2     O     4.19431  4.19431  0.00000 -0.38862
       3     C     2.96348  2.96348  0.00000  0.07304
       4     C     3.08507  3.08507  0.00000 -0.17013
       5     H     0.47482  0.47482  0.00000  0.05035
       6     H     0.47497  0.47497  0.00000  0.05006
       7     C     3.10001  3.10001  0.00000 -0.20002
       8     H     0.45077  0.45077  0.00000  0.09846
       9     H     0.45085  0.45085  0.00000  0.09831
      10     C     3.08857  3.08857  0.00000 -0.17714
      11     H     0.45527  0.45527  0.00000  0.08945
      12     H     0.45476  0.45476  0.00000  0.09049
      13     C     3.08440  3.08440  0.00000 -0.16880
      14     H     0.45401  0.45401  0.00000  0.09198
      15     H     0.45353  0.45353  0.00000  0.09295
      16     C     3.14908  3.14908  0.00000 -0.29815
      17     H     0.45246  0.45246  0.00000  0.09507
      18     H     0.45699  0.45699  0.00000  0.08602
      19     H     0.45463  0.45463  0.00000  0.09073
      20     H     0.45516  0.45516  0.00000  0.08967
      21     H     0.44926  0.44926  0.00000  0.10148

   Total alpha = 29.00000, Total beta = 29.00000, Total charge =  0.00000

*** Psi4 exiting successfully. Buy a developer a beer!
