  ==> Input File <==

--------------------------------------------------------------------------
set {
	reference rhf
	basis 6-31G*
}

set_num_threads( 1 )
memory 2 gb

molecule MOL {
0 1

H	 -1.836216	 1.387520	 -0.000064
C	 -1.301823	 0.443321	 -0.000031
O	 -0.003969	 0.658512	 0.000451
O	 -1.829879	 -0.616434	 -0.000857
C	 0.847445	 -0.465591	 -0.220172
C	 2.276214	 0.031306	 -0.175094
H	 0.604569	 -0.904084	 -1.178323
H	 0.654635	 -1.204989	 0.544948
H	 2.448823	 0.776740	 -0.942928
H	 2.958870	 -0.795846	 -0.339512
H	 2.499292	 0.474416	 0.788637

	symmetry c1
}
set optking {
	frozen_dihedral = ("
		7 5 3 2
	")
}

ee = energy('scf')
oeprop('DIPOLE', 'QUADRUPOLE', 'MULLIKEN_CHARGES')
f=open( 'psi4out.xyz', 'w' )
f.write( "11  " )
f.write( str(ee) + "\n" )
f.write( MOL.save_string_xyz() )
f.close()
--------------------------------------------------------------------------

    Molecular point group: c1

    Geometry (in Angstrom), charge = 0, multiplicity = 1:

       Center              X                  Y                   Z               Mass
    ------------   -----------------  -----------------  -----------------  -----------------
           H         -1.835096557581     1.380589125085     0.079438656454     1.007825032070
           C         -1.300703557581     0.436390125085     0.079471656454    12.000000000000
           O         -0.002849557581     0.651581125085     0.079953656454    15.994914619560
           O         -1.828759557581    -0.623364874915     0.078645656454    15.994914619560
           C          0.848564442419    -0.472521874915    -0.140669343546    12.000000000000
           C          2.277333442419     0.024375125085    -0.095591343546    12.000000000000
           H          0.605688442419    -0.911014874915    -1.098820343546     1.007825032070
           H          0.655754442419    -1.211919874915     0.624450656454     1.007825032070
           H          2.449942442419     0.769809125085    -0.863425343546     1.007825032070
           H          2.959989442419    -0.802776874915    -0.260009343546     1.007825032070
           H          2.500411442419     0.467485125085     0.868139656454     1.007825032070

  Charge       = 0
  Multiplicity = 1
  Basis Set: 6-31G*
  Basis Set:

    Orbital Energies (a.u.)
    -----------------------

    Doubly Occupied:

       1A    -20.612354     2A    -20.557320     3A    -11.378404
       4A    -11.292099     5A    -11.226895     6A     -1.476294
       7A     -1.374075     8A     -1.052786     9A     -0.902367
      10A     -0.806056    11A     -0.737740    12A     -0.690078
      13A     -0.677604    14A     -0.593527    15A     -0.573911
      16A     -0.556844    17A     -0.518788    18A     -0.514371
      19A     -0.460554    20A     -0.453779

  @DF-RHF Final Energy:  -266.82831722347800

   => Energetics <=

    Nuclear Repulsion Energy =            179.2814453705474307
    One-Electron Energy =                -719.3078441793566071
    Two-Electron Energy =                 273.1980815853314652
    DFT Exchange-Correlation Energy =       0.0000000000000000
    Empirical Dispersion Energy =           0.0000000000000000
    PCM Polarization Energy =               0.0000000000000000
    EFP Energy =                            0.0000000000000000
    Total Energy =                       -266.8283172234777112

  Mulliken Charges: (a.u.)
   Center  Symbol    Alpha    Beta     Spin     Total
       1     H     0.41070  0.41070  0.00000  0.17859
       2     C     2.72750  2.72750  0.00000  0.54500
       3     O     4.29137  4.29137  0.00000 -0.58273
       4     O     4.26259  4.26259  0.00000 -0.52518
       5     C     3.00652  3.00652  0.00000 -0.01305
       6     C     3.24944  3.24944  0.00000 -0.49888
       7     H     0.41005  0.41005  0.00000  0.17990
       8     H     0.40615  0.40615  0.00000  0.18771
       9     H     0.41072  0.41072  0.00000  0.17855
      10     H     0.41503  0.41503  0.00000  0.16994
      11     H     0.40993  0.40993  0.00000  0.18014

   Total alpha = 20.00000, Total beta = 20.00000, Total charge = -0.00000
