                              Psi4 1.0.54 Driver

  ==> Input File <==

--------------------------------------------------------------------------
set {
	reference rhf
	basis cc-pvtz
}

set_num_threads( 4 )
memory 2 gb

molecule MOL {
0 1

H	 -2.698799	 -0.000846	 0.036018
C	 -1.694291	 -0.000483	 0.434279
O	 -0.828718	 -0.000608	 -0.655022
H	 -1.576855	 0.881100	 1.056504
H	 -1.576401	 -0.881658	 1.057001
C	 0.075964	 -1.067169	 -0.802924
C	 1.092229	 -1.134684	 0.331500
C	 -0.624454	 -2.401632	 -1.032866
H	 0.610400	 -0.814326	 -1.710154
H	 1.542442	 -0.162876	 0.492610
H	 1.878715	 -1.836414	 0.078990
H	 0.646268	 -1.465531	 1.262222
H	 -1.364693	 -2.308478	 -1.817986
H	 0.099633	 -3.149471	 -1.334872
H	 -1.116047	 -2.766029	 -0.138387

	symmetry c1
}
set optking {
	frozen_dihedral = ("
		6 3 2 1
	")
}

ee,wfn = optimize('scf', return_wfn=True)
oeprop( wfn, 'DIPOLE', 'QUADRUPOLE', 'MULLIKEN_CHARGES')
f=open( 'psi4out.xyz', 'w' )
f.write( "15  " )
f.write( str(ee) + "\n" )
f.write( MOL.save_string_xyz() )
f.close()
--------------------------------------------------------------------------

    Molecular point group: c1
  Charge       = 0
  Multiplicity = 1
  Basis Set: CC-PVTZ
  Basis Set:
  @DF-RHF Final Energy:  -232.22310704154032
    Total Energy =                       -232.2231070415403451
    Molecular point group: c1
  Basis Set: CC-PVTZ
  Basis Set:
  Basis Set: CC-PVTZ
  Basis Set:
  @DF-RHF Final Energy:  -232.22367858530600
    Total Energy =                       -232.2236785853062315
  Basis Set: CC-PVTZ
  Basis Set:
  Basis Set: CC-PVTZ
  Basis Set:
  @DF-RHF Final Energy:  -232.22380401536537
    Total Energy =                       -232.2238040153653742
  Basis Set: CC-PVTZ
  Basis Set:
  Basis Set: CC-PVTZ
  Basis Set:
  @DF-RHF Final Energy:  -232.22378239912149
    Total Energy =                       -232.2237823991214896
  Basis Set: CC-PVTZ
  Basis Set:
  Basis Set: CC-PVTZ
  Basis Set:
  @DF-RHF Final Energy:  -232.22383162905146
    Total Energy =                       -232.2238316290514604
  Basis Set: CC-PVTZ
  Basis Set:
  Charge       = 0
  Multiplicity = 1
  Basis Set: CC-PVTZ
  Basis Set:

    Orbital Energies (a.u.)
    -----------------------

    Doubly Occupied:

       1A    -20.539308     2A    -11.273288     3A    -11.258916
       4A    -11.208591     5A    -11.208572     6A     -1.371013
       7A     -1.050998     8A     -0.940323     9A     -0.931787
      10A     -0.781817    11A     -0.677194    12A     -0.640233
      13A     -0.633632    14A     -0.570225    15A     -0.563649
      16A     -0.552257    17A     -0.538259    18A     -0.501437
      19A     -0.498597    20A     -0.443372    21A     -0.405828

  @DF-RHF Final Energy:  -232.22383236965558

   => Energetics <=

    Nuclear Repulsion Energy =            198.8656827454356915
    One-Electron Energy =                -709.0004368214738406
    Two-Electron Energy =                 277.9109217063827941
    DFT Exchange-Correlation Energy =       0.0000000000000000
    Empirical Dispersion Energy =           0.0000000000000000
    PCM Polarization Energy =               0.0000000000000000
    EFP Energy =                            0.0000000000000000
    Total Energy =                       -232.2238323696553266
    Molecular point group: c1
  Basis Set: CC-PVTZ
  Basis Set:

  -Total Gradient:
     Atom            X                  Y                   Z
    ------   -----------------  -----------------  -----------------
       1       -0.000023076102     0.000064034854     0.000034351784
       2       -0.000026679765     0.000019677389    -0.000056948945
       3       -0.000036912594    -0.000133686752     0.000046191779
       4       -0.000004113476    -0.000009952572     0.000026161324
       5        0.000063019421    -0.000031966494    -0.000019874335
       6        0.000118093256     0.000085060520    -0.000114623952
       7       -0.000065746028    -0.000004800555     0.000022298281
       8       -0.000021915941     0.000021623245     0.000058848106
       9        0.000027944960    -0.000015684373    -0.000019307227
      10       -0.000006218720     0.000002603500    -0.000010844467
      11       -0.000008312331    -0.000002722865    -0.000011225254
      12       -0.000016233963    -0.000005304703     0.000031464918
      13        0.000002328067     0.000006327343    -0.000001789989
      14        0.000008343491     0.000021276572     0.000003712985
      15       -0.000010520278    -0.000016485107     0.000011584991

  **** Optimization is complete! (in 6 steps) ****
    Final optimized geometry and variables:
    Molecular point group: c1

    Geometry (in Angstrom), charge = 0, multiplicity = 1:

    H           -2.318458571912     0.892511424849     0.435119291892
    C           -1.289239131248     0.907883497092     0.775099664139
    O           -0.431642949294     0.900571735968    -0.326219437903
    H           -1.132055594330     1.812866125300     1.350608281970
    H           -1.141644286446     0.062437551774     1.434524157175
    C            0.486920510721    -0.152146923966    -0.481063075820
    C            1.522247079046    -0.187820214027     0.637275491057
    C           -0.201028821970    -1.496235492441    -0.690835688113
    H            1.003105888855     0.099927155933    -1.399052611048
    H            1.983454255464     0.785524343832     0.750377014851
    H            2.298096957422    -0.907832915558     0.403241769521
    H            1.087830768126    -0.472180438429     1.588815906388
    H           -0.925812749803    -1.423867130364    -1.492317520775
    H            0.529880864443    -2.250538062852    -0.958974381997
    H           -0.712359767371    -1.838238148594     0.201686109922

  Mulliken Charges: (a.u.)
   Center  Symbol    Alpha    Beta     Spin     Total
       1     H     0.45383  0.45383  0.00000  0.09233
       2     C     3.03808  3.03808  0.00000 -0.07617
       3     O     4.18794  4.18794  0.00000 -0.37588
       4     H     0.45346  0.45346  0.00000  0.09307
       5     H     0.46937  0.46937  0.00000  0.06126
       6     C     2.93952  2.93952  0.00000  0.12096
       7     C     3.15481  3.15481  0.00000 -0.30961
       8     C     3.15476  3.15476  0.00000 -0.30953
       9     H     0.44596  0.44596  0.00000  0.10808
      10     H     0.44494  0.44494  0.00000  0.11013
      11     H     0.45066  0.45066  0.00000  0.09868
      12     H     0.45552  0.45552  0.00000  0.08897
      13     H     0.44495  0.44495  0.00000  0.11009
      14     H     0.45065  0.45065  0.00000  0.09871
      15     H     0.45554  0.45554  0.00000  0.08891

   Total alpha = 21.00000, Total beta = 21.00000, Total charge = -0.00000

*** Psi4 exiting successfully. Buy a developer a beer!
