  ==> Input File <==

--------------------------------------------------------------------------
set {
	reference rhf
	basis 6-31G*
}

set_num_threads( 4 )
memory 2 gb

molecule MOL {
0 1

H	 -3.650283	 0.221984	 0.000000
C	 -2.577024	 0.154109	 0.000000
C	 -1.960329	 -1.089307	 0.000000
C	 -1.811733	 1.307557	 0.000000
H	 -2.554473	 -1.985285	 0.000000
C	 -0.581547	 -1.175855	 0.000000
H	 -2.287118	 2.271701	 0.000000
C	 -0.428719	 1.219221	 0.000000
H	 -0.090826	 -2.129898	 0.000000
C	 0.198341	 -0.021559	 0.000000
H	 0.149947	 2.124040	 0.000000
C	 1.691355	 -0.173192	 0.000000
C	 2.424070	 -0.247608	 1.323304
O	 2.295821	 -0.234583	 -1.029673
H	 2.257880	 0.650579	 1.909326
H	 3.480774	 -0.354929	 1.124940
H	 2.080693	 -1.094042	 1.909326

	symmetry c1
}
set optking {
	frozen_dihedral = ("
		13 12 10 8
	")
}

ee = optimize('scf')
oeprop('DIPOLE', 'QUADRUPOLE', 'MULLIKEN_CHARGES')
f=open( 'psi4out.xyz', 'w' )
f.write( "17  " )
f.write( str(ee) + "\n" )
f.write( MOL.save_string_xyz() )
f.close()
--------------------------------------------------------------------------

    Molecular point group: c1
  Charge       = 0
  Multiplicity = 1
  Basis Set: 6-31G*
  Basis Set:
  @DF-RHF Final Energy:  -382.46511034950345
    Total Energy =                       -382.4651103495037887
    Molecular point group: c1
  Basis Set: 6-31G*
  Basis Set:
  Basis Set: 6-31G*
  Basis Set:
  @DF-RHF Final Energy:  -382.46564592307777
    Total Energy =                       -382.4656459230775454
  Basis Set: 6-31G*
  Basis Set:
  Basis Set: 6-31G*
  Basis Set:
  @DF-RHF Final Energy:  -382.46435730439862
    Total Energy =                       -382.4643573043991864
  Basis Set: 6-31G*
  Basis Set:
  Basis Set: 6-31G*
  Basis Set:
  @DF-RHF Final Energy:  -382.46592984344602
    Total Energy =                       -382.4659298434455650
  Basis Set: 6-31G*
  Basis Set:
  Charge       = 0
  Multiplicity = 1
  Basis Set: 6-31G*
  Basis Set:

    Orbital Energies (a.u.)
    -----------------------

    Doubly Occupied:

       1A    -20.558442     2A    -11.334544     3A    -11.247802
       4A    -11.243385     5A    -11.243219     6A    -11.241100
       7A    -11.240734     8A    -11.238805     9A    -11.231561
      10A     -1.403163    11A     -1.165704    12A     -1.050486
      13A     -1.025526    14A     -0.998728    15A     -0.858684
      16A     -0.837543    17A     -0.761784    18A     -0.702065
      19A     -0.663818    20A     -0.641873    21A     -0.628551
      22A     -0.620099    23A     -0.598784    24A     -0.590114
      25A     -0.562658    26A     -0.521546    27A     -0.511383
      28A     -0.507016    29A     -0.492019    30A     -0.409494
      31A     -0.343699    32A     -0.341172

  @DF-RHF Final Energy:  -382.46593953408558

   => Energetics <=

    Nuclear Repulsion Energy =            402.4902334739045955
    One-Electron Energy =               -1316.2813411681750040
    Two-Electron Energy =                 531.3251681601843757
    DFT Exchange-Correlation Energy =       0.0000000000000000
    Empirical Dispersion Energy =           0.0000000000000000
    PCM Polarization Energy =               0.0000000000000000
    EFP Energy =                            0.0000000000000000
    Total Energy =                       -382.4659395340860328
    Molecular point group: c1
  Basis Set: 6-31G*
  Basis Set:

  -Total Gradient:
     Atom            X                  Y                   Z
    ------   -----------------  -----------------  -----------------
       1        0.000009843320     0.000002396734    -0.000003634669
       2        0.000020262343     0.000385780354     0.000051895508
       3        0.000290728782    -0.000198876154    -0.000049547633
       4       -0.000361576708    -0.000191810401    -0.000030342392
       5       -0.000004804843     0.000001406832     0.000006659068
       6       -0.000152948457    -0.000175599067    -0.000007798651
       7        0.000006842324     0.000023107215    -0.000000140292
       8        0.000287014613    -0.000221736874    -0.000075128785
       9       -0.000019951048     0.000005705701     0.000014219250
      10       -0.000104776599     0.000472772733     0.000117399377
      11       -0.000011853880    -0.000005208267     0.000018773012
      12        0.000131878459    -0.000111347185     0.000059923474
      13        0.000063289289    -0.000048817699    -0.000096120393
      14       -0.000024793464     0.000028533823    -0.000023291712
      15       -0.000033041191     0.000027613508     0.000033509613
      16       -0.000059921787     0.000001745884    -0.000019649782
      17       -0.000036191159     0.000004332861     0.000003275012

  **** Optimization is complete! (in 5 steps) ****
    Final optimized geometry and variables:
    Molecular point group: c1

    Geometry (in Angstrom), charge = 0, multiplicity = 1:

    H           -3.642297836006     0.275668093542    -0.007158822493
    C           -2.570203126704     0.195003700191    -0.015135971031
    C           -1.967509907593    -1.052961625387    -0.027985932632
    C           -1.787693957044     1.337680358107    -0.015829555621
    H           -2.570839461851    -1.942954466553    -0.032500690110
    C           -0.586716934529    -1.157897841668    -0.038759214550
    H           -2.250187013417     2.308366293143    -0.011034170647
    C           -0.405845242020     1.234260561714    -0.026375620308
    H           -0.123999521604    -2.129211613580    -0.056577216456
    C            0.199914436856    -0.013858164695    -0.038384449175
    H            0.197072833784     2.125525530359    -0.034256638038
    C            1.705356894607    -0.129195590409    -0.061552395832
    C            2.398588554270    -0.183753211467     1.280283509647
    O            2.306665488086    -0.175072695380    -1.089007194770
    H            2.168591440624     0.708845523711     1.854622222794
    H            3.467757200676    -0.266337298043     1.140543902349
    H            2.033930012549    -1.031347425992     1.852984589761

  Mulliken Charges: (a.u.)
   Center  Symbol    Alpha    Beta     Spin     Total
       1     H     0.39684  0.39684  0.00000  0.20633
       2     C     3.09974  3.09974  0.00000 -0.19948
       3     C     3.09760  3.09760  0.00000 -0.19520
       4     C     3.09758  3.09758  0.00000 -0.19515
       5     H     0.39621  0.39621  0.00000  0.20758
       6     C     3.10410  3.10410  0.00000 -0.20819
       7     H     0.39621  0.39621  0.00000  0.20759
       8     C     3.10424  3.10424  0.00000 -0.20848
       9     H     0.39371  0.39371  0.00000  0.21258
      10     C     3.02728  3.02728  0.00000 -0.05457
      11     H     0.39380  0.39380  0.00000  0.21240
      12     C     2.75335  2.75335  0.00000  0.49331
      13     C     3.28665  3.28665  0.00000 -0.57329
      14     O     4.24496  4.24496  0.00000 -0.48993
      15     H     0.40512  0.40512  0.00000  0.18976
      16     H     0.39754  0.39754  0.00000  0.20491
      17     H     0.40508  0.40508  0.00000  0.18984

   Total alpha = 32.00000, Total beta = 32.00000, Total charge = -0.00000
