  ==> Input File <==

--------------------------------------------------------------------------
set {
	reference rhf
	basis 6-31G*
}

set_num_threads( 4 )
memory 2 gb

molecule MOL {
0 1

H	 -1.836216	 1.387520	 -0.000064
C	 -1.301823	 0.443321	 -0.000031
O	 -0.003969	 0.658512	 0.000451
O	 -1.829879	 -0.616434	 -0.000857
C	 0.463789	 1.849229	 -0.632464
C	 1.971305	 1.870997	 -0.501158
H	 0.006175	 2.702633	 -0.151204
H	 0.150481	 1.840605	 -1.667384
H	 2.266798	 1.871242	 0.541779
H	 2.368780	 2.764500	 -0.971156
H	 2.411961	 1.005090	 -0.981694

	symmetry c1
}
set optking {
	frozen_dihedral = ("
		5 3 2 4
	")
}

ee = optimize('scf')
oeprop('DIPOLE', 'QUADRUPOLE', 'MULLIKEN_CHARGES')
f=open( 'psi4out.xyz', 'w' )
f.write( "11  " )
f.write( str(ee) + "\n" )
f.write( MOL.save_string_xyz() )
f.close()
--------------------------------------------------------------------------

    Molecular point group: c1
  Charge       = 0
  Multiplicity = 1
  Basis Set: 6-31G*
  Basis Set:
  @DF-RHF Final Energy:  -266.81603223413879
    Total Energy =                       -266.8160322341386177
    Molecular point group: c1
  Basis Set: 6-31G*
  Basis Set:
  Basis Set: 6-31G*
  Basis Set:
  @DF-RHF Final Energy:  -266.81697332319254
    Total Energy =                       -266.8169733231925989
  Basis Set: 6-31G*
  Basis Set:
  Basis Set: 6-31G*
  Basis Set:
  @DF-RHF Final Energy:  -266.81583560039155
    Total Energy =                       -266.8158356003915515
  Basis Set: 6-31G*
  Basis Set:
  Basis Set: 6-31G*
  Basis Set:
  @DF-RHF Final Energy:  -266.81727438268979
    Total Energy =                       -266.8172743826897317
  Basis Set: 6-31G*
  Basis Set:
  Basis Set: 6-31G*
  Basis Set:
  @DF-RHF Final Energy:  -266.81728681040454
    Total Energy =                       -266.8172868104044255
  Basis Set: 6-31G*
  Basis Set:
  Basis Set: 6-31G*
  Basis Set:
  @DF-RHF Final Energy:  -266.81729214661527
    Total Energy =                       -266.8172921466152729
  Basis Set: 6-31G*
  Basis Set:
  Charge       = 0
  Multiplicity = 1
  Basis Set: 6-31G*
  Basis Set:

    Orbital Energies (a.u.)
    -----------------------

    Doubly Occupied:

       1A    -20.608932     2A    -20.558614     3A    -11.380087
       4A    -11.306784     5A    -11.233334     6A     -1.472205
       7A     -1.380770     8A     -1.054937     9A     -0.889018
      10A     -0.845874    11A     -0.740050    12A     -0.692700
      13A     -0.663218    14A     -0.614195    15A     -0.570651
      16A     -0.557030    17A     -0.536179    18A     -0.516137
      19A     -0.459485    20A     -0.450053

  @DF-RHF Final Energy:  -266.81729250419653

   => Energetics <=

    Nuclear Repulsion Energy =            176.2868908373531838
    One-Electron Energy =                -713.1478582231957262
    Two-Electron Energy =                 270.0436748816458703
    DFT Exchange-Correlation Energy =       0.0000000000000000
    Empirical Dispersion Energy =           0.0000000000000000
    PCM Polarization Energy =               0.0000000000000000
    EFP Energy =                            0.0000000000000000
    Total Energy =                       -266.8172925041966437
    Molecular point group: c1
  Basis Set: 6-31G*
  Basis Set:

  -Total Gradient:
     Atom            X                  Y                   Z
    ------   -----------------  -----------------  -----------------
       1       -0.000006881149    -0.000011844033    -0.000000387697
       2        0.000789178095    -0.001496974410     0.005021810043
       3        0.000083884824     0.002383093464     0.002683121982
       4       -0.000639734701     0.000517020491    -0.004450192476
       5       -0.000238943464    -0.001405975241    -0.003251431227
       6        0.000004096805     0.000007488269    -0.000005921273
       7        0.000003987623     0.000002429384     0.000001836055
       8        0.000010103382     0.000005590318     0.000004517943
       9       -0.000007618357     0.000000128668    -0.000002989093
      10        0.000002007779    -0.000000513054    -0.000000750211
      11       -0.000000080836    -0.000000443855     0.000000385955

  **** Optimization is complete! (in 7 steps) ****
    Final optimized geometry and variables:
    Molecular point group: c1

    Geometry (in Angstrom), charge = 0, multiplicity = 1:

    H           -1.686423911354     0.565566513879     0.461392245181
    C           -1.163186024576    -0.375845168801     0.291173283963
    O            0.144756135321    -0.233457996299     0.127149225732
    O           -1.715053182206    -1.415545990506     0.251315779598
    C            0.616229818332     0.978963738250    -0.438945236751
    C            2.113817907984     1.043762854030    -0.228273398236
    H            0.121767141274     1.821775152145     0.035233606612
    H            0.371099587326     0.991517617225    -1.494617883777
    H            2.349095116961     1.034448993122     0.829426128211
    H            2.511644279097     1.953623775656    -0.665253299116
    H            2.598217603593     0.194822899557    -0.695187505046

  Mulliken Charges: (a.u.)
   Center  Symbol    Alpha    Beta     Spin     Total
       1     H     0.43196  0.43196  0.00000  0.13608
       2     C     2.72261  2.72261  0.00000  0.55478
       3     O     4.28647  4.28647  0.00000 -0.57294
       4     O     4.24314  4.24314  0.00000 -0.48627
       5     C     3.00887  3.00887  0.00000 -0.01773
       6     C     3.24702  3.24702  0.00000 -0.49405
       7     H     0.41935  0.41935  0.00000  0.16130
       8     H     0.41201  0.41201  0.00000  0.17597
       9     H     0.40839  0.40839  0.00000  0.18322
      10     H     0.41561  0.41561  0.00000  0.16879
      11     H     0.40457  0.40457  0.00000  0.19087

   Total alpha = 20.00000, Total beta = 20.00000, Total charge =  0.00000
