                              Psi4 1.0.54 Driver

  ==> Input File <==

--------------------------------------------------------------------------
set {
	reference rhf
	basis cc-pvtz
}

set_num_threads( 4 )
memory 2 gb

molecule MOL {
0 1

H	 -2.297343	 0.118795	 2.573853
C	 -2.736467	 -0.280329	 1.649323
C	 -2.641733	 0.632804	 0.457222
O	 -3.242742	 -1.348501	 1.648159
C	 -1.216901	 1.136108	 0.207794
H	 -3.038753	 0.114587	 -0.406005
H	 -3.289403	 1.481830	 0.664543
C	 -0.247837	 0.040196	 -0.230469
H	 -1.254442	 1.909026	 -0.552158
H	 -0.842141	 1.616480	 1.108345
C	 1.181757	 0.280428	 0.247371
H	 -0.259600	 -0.030819	 -1.314870
H	 -0.591284	 -0.923375	 0.136958
C	 2.151032	 -0.811012	 -0.202643
H	 1.515939	 1.247397	 -0.115449
H	 1.191514	 0.341223	 1.333422
C	 3.580021	 -0.656538	 0.320835
H	 2.170545	 -0.847575	 -1.289412
H	 1.766632	 -1.772905	 0.124928
C	 4.327657	 0.562694	 -0.213579
H	 4.138806	 -1.549270	 0.057813
H	 3.561991	 -0.620783	 1.406976
H	 4.355973	 0.557257	 -1.298551
H	 3.867136	 1.491650	 0.100501
H	 5.351524	 0.571613	 0.142204

	symmetry c1
}
set optking {
	frozen_dihedral = ("
		3 5 8 12
	")
}

ee,wfn = optimize('scf', return_wfn=True)
oeprop( wfn, 'DIPOLE', 'QUADRUPOLE', 'MULLIKEN_CHARGES')
f=open( 'psi4out.xyz', 'w' )
f.write( "25  " )
f.write( str(ee) + "\n" )
f.write( MOL.save_string_xyz() )
f.close()
--------------------------------------------------------------------------

    Molecular point group: c1
  Charge       = 0
  Multiplicity = 1
  Basis Set: CC-PVTZ
  Basis Set:
  @DF-RHF Final Energy:  -387.25726241359627
    Total Energy =                       -387.2572624135962087
    Molecular point group: c1
  Basis Set: CC-PVTZ
  Basis Set:
  Basis Set: CC-PVTZ
  Basis Set:
  @DF-RHF Final Energy:  -387.25741010288931
    Total Energy =                       -387.2574101028894802
  Basis Set: CC-PVTZ
  Basis Set:
  Basis Set: CC-PVTZ
  Basis Set:
  @DF-RHF Final Energy:  -387.25755420387992
    Total Energy =                       -387.2575542038800904
  Basis Set: CC-PVTZ
  Basis Set:
  Basis Set: CC-PVTZ
  Basis Set:
  @DF-RHF Final Energy:  -387.25710734740585
    Total Energy =                       -387.2571073474056220
  Basis Set: CC-PVTZ
  Basis Set:
  @DF-RHF Final Energy:  -387.25756227358636
    Total Energy =                       -387.2575622735867000
  Basis Set: CC-PVTZ
  Basis Set:
  @DF-RHF Final Energy:  -387.25756129365971
    Total Energy =                       -387.2575612936594780
  Basis Set: CC-PVTZ
  Basis Set:
  Basis Set: CC-PVTZ
  Basis Set:
  @DF-RHF Final Energy:  -387.25756627381122
    Total Energy =                       -387.2575662738107667
  Basis Set: CC-PVTZ
  Basis Set:
  Basis Set: CC-PVTZ
  Basis Set:
  @DF-RHF Final Energy:  -387.25756742425011
    Total Energy =                       -387.2575674242501691
  Basis Set: CC-PVTZ
  Basis Set:
  Charge       = 0
  Multiplicity = 1
  Basis Set: CC-PVTZ
  Basis Set:

    Orbital Energies (a.u.)
    -----------------------

    Doubly Occupied:

       1A    -20.552413     2A    -11.321457     3A    -11.233948
       4A    -11.232862     5A    -11.220804     6A    -11.217310
       7A    -11.215730     8A    -11.214346     9A    -11.208526
      10A     -1.407258    11A     -1.104044    12A     -1.070351
      13A     -1.014183    14A     -0.942871    15A     -0.876086
      16A     -0.819345    17A     -0.790215    18A     -0.780847
      19A     -0.668837    20A     -0.662151    21A     -0.638270
      22A     -0.623563    23A     -0.609636    24A     -0.588174
      25A     -0.575045    26A     -0.556568    27A     -0.534578
      28A     -0.525435    29A     -0.510852    30A     -0.499507
      31A     -0.488393    32A     -0.478215    33A     -0.464276
      34A     -0.458500    35A     -0.441803    36A     -0.412803

  @DF-RHF Final Energy:  -387.25756775293036

   => Energetics <=

    Nuclear Repulsion Energy =            441.9034970457279883
    One-Electron Energy =               -1400.4037269515301887
    Two-Electron Energy =                 571.2426621528715032
    DFT Exchange-Correlation Energy =       0.0000000000000000
    Empirical Dispersion Energy =           0.0000000000000000
    PCM Polarization Energy =               0.0000000000000000
    EFP Energy =                            0.0000000000000000
    Total Energy =                       -387.2575677529306404
    Molecular point group: c1
  Basis Set: CC-PVTZ
  Basis Set:

  -Total Gradient:
     Atom            X                  Y                   Z
    ------   -----------------  -----------------  -----------------
       1        0.000002761609    -0.000025639871    -0.000017374826
       2       -0.000044210015    -0.000012555521     0.000016778650
       3        0.000664941806    -0.000517567928     0.002912189817
       4        0.000013670840     0.000009095044     0.000021488217
       5       -0.000204643560     0.001406547517    -0.004178546236
       6        0.000001894824     0.000002764934     0.000010498135
       7       -0.000005206985    -0.000001762807    -0.000003761033
       8       -0.003536514170    -0.003565220262     0.001373561503
       9        0.000025275521     0.000013434657     0.000011875133
      10       -0.000014766165    -0.000019059928     0.000008673986
      11        0.000020267751    -0.000007584425     0.000008685364
      12        0.003075725027     0.002716846643    -0.000162321075
      13        0.000011506421     0.000001647369     0.000002230562
      14       -0.000005987327     0.000006808098    -0.000001541336
      15       -0.000009520220    -0.000006425877    -0.000003042284
      16       -0.000003099507     0.000002254495    -0.000002302958
      17        0.000007573966    -0.000000437865    -0.000000708906
      18        0.000002549722    -0.000002424968     0.000000135120
      19       -0.000001524694     0.000002943522     0.000001118538
      20       -0.000003052407    -0.000005301772     0.000000444735
      21        0.000003634083     0.000001752143     0.000000112553
      22       -0.000001000454    -0.000000024829     0.000000050266
      23       -0.000001400200    -0.000000352854     0.000000946976
      24       -0.000000070275     0.000000344628     0.000001339667
      25        0.000001194409    -0.000000080136    -0.000000530571

  **** Optimization is complete! (in 9 steps) ****
    Final optimized geometry and variables:
    Molecular point group: c1

    Geometry (in Angstrom), charge = 0, multiplicity = 1:

    H           -2.538164399973     0.277854600153     2.143947370791
    C           -2.916159488399    -0.172794120714     1.216280134494
    C           -2.785722247227     0.693199828828    -0.007043563140
    O           -3.385852758055    -1.257472883148     1.234488976869
    C           -1.346398121909     1.169292359787    -0.231348674779
    H           -3.165658481563     0.145201612948    -0.859846080125
    H           -3.428840218552     1.556212394284     0.150570631321
    C           -0.379037949506     0.050600729192    -0.644585460455
    H           -1.343894627043     1.954418454157    -0.977545449360
    H           -0.993850839278     1.631375561157     0.687554289946
    C            1.054697760174     0.303032505508    -0.178662435706
    H           -0.369744336798    -0.026888302672    -1.727654049077
    H           -0.717379328437    -0.906457252643    -0.261582941038
    C            2.033378715020    -0.765981853634    -0.659831369176
    H            1.370559532896     1.281797694553    -0.527213877129
    H            1.075845926030     0.344389446204     0.908108999156
    C            3.462476142262    -0.610802801804    -0.136895605604
    H            2.049953247224    -0.774187962242    -1.747312029626
    H            1.659409637481    -1.739801951605    -0.356090132996
    C            4.194034954117     0.632030138505    -0.638121170973
    H            4.030337832298    -1.489129721084    -0.427531990386
    H            3.447903425264    -0.606831275412     0.949818519302
    H            4.217615397609     0.658951594749    -1.722917406243
    H            3.724373549950     1.546006727364    -0.294890739575
    H            5.219311222151     0.642164241666    -0.286431958445

  Mulliken Charges: (a.u.)
   Center  Symbol    Alpha    Beta     Spin     Total
       1     H     0.46480  0.46480  0.00000  0.07041
       2     C     2.90355  2.90355  0.00000  0.19290
       3     C     3.08800  3.08800  0.00000 -0.17601
       4     O     4.16584  4.16584  0.00000 -0.33169
       5     C     3.11657  3.11657  0.00000 -0.23315
       6     H     0.44250  0.44250  0.00000  0.11501
       7     H     0.44188  0.44188  0.00000  0.11625
       8     C     3.09732  3.09732  0.00000 -0.19465
       9     H     0.44079  0.44079  0.00000  0.11843
      10     H     0.45165  0.45165  0.00000  0.09671
      11     C     3.09174  3.09174  0.00000 -0.18349
      12     H     0.44768  0.44768  0.00000  0.10463
      13     H     0.44368  0.44368  0.00000  0.11264
      14     C     3.09667  3.09667  0.00000 -0.19334
      15     H     0.45166  0.45166  0.00000  0.09667
      16     H     0.45504  0.45504  0.00000  0.08991
      17     C     3.09060  3.09060  0.00000 -0.18119
      18     H     0.45345  0.45345  0.00000  0.09310
      19     H     0.44692  0.44692  0.00000  0.10617
      20     C     3.15245  3.15245  0.00000 -0.30490
      21     H     0.44769  0.44769  0.00000  0.10463
      22     H     0.45435  0.45435  0.00000  0.09130
      23     H     0.45480  0.45480  0.00000  0.09039
      24     H     0.45440  0.45440  0.00000  0.09120
      25     H     0.44597  0.44597  0.00000  0.10806

   Total alpha = 36.00000, Total beta = 36.00000, Total charge = -0.00000

*** Psi4 exiting successfully. Buy a developer a beer!
