                              Psi4 1.0.54 Driver

  ==> Input File <==

--------------------------------------------------------------------------
set {
	reference rhf
	basis cc-pvtz
}

set_num_threads( 4 )
memory 2 gb

molecule MOL {
0 1

H	 -2.303434	 0.899356	 2.853845
C	 -2.320136	 0.232878	 2.016089
C	 -1.225995	 0.044817	 1.319787
H	 -3.236473	 -0.266517	 1.769653
O	 -1.189946	 -0.765863	 0.237511
H	 -0.300202	 0.533568	 1.563009
C	 0.026572	 -0.995256	 -0.379403
C	 1.057223	 0.049888	 -0.004615
H	 -0.054361	 -1.010670	 -1.459674
H	 0.397526	 -1.952058	 -0.044198
F	 2.203233	 -0.234060	 -0.590375
F	 0.698147	 1.254887	 -0.392621
F	 1.266440	 0.094219	 1.288722

	symmetry c1
}
set optking {
	frozen_dihedral = ("
		3 5 7 9
	")
}

ee,wfn = optimize('scf', return_wfn=True)
oeprop( wfn, 'DIPOLE', 'QUADRUPOLE', 'MULLIKEN_CHARGES')
f=open( 'psi4out.xyz', 'w' )
f.write( "13  " )
f.write( str(ee) + "\n" )
f.write( MOL.save_string_xyz() )
f.close()
--------------------------------------------------------------------------

    Molecular point group: c1
  Charge       = 0
  Multiplicity = 1
  Basis Set: CC-PVTZ
  Basis Set:
  @DF-RHF Final Energy:  -527.71104112211674
    Total Energy =                       -527.7110411221166260
    Molecular point group: c1
  Basis Set: CC-PVTZ
  Basis Set:
  Basis Set: CC-PVTZ
  Basis Set:
  @DF-RHF Final Energy:  -527.72679939660452
    Total Energy =                       -527.7267993966047470
  Basis Set: CC-PVTZ
  Basis Set:
  Basis Set: CC-PVTZ
  Basis Set:
  @DF-RHF Final Energy:  -527.73151140906180
    Total Energy =                       -527.7315114090617953
  Basis Set: CC-PVTZ
  Basis Set:
  Basis Set: CC-PVTZ
  Basis Set:
  @DF-RHF Final Energy:  -527.73244391494393
    Total Energy =                       -527.7324439149439286
  Basis Set: CC-PVTZ
  Basis Set:
  @DF-RHF Final Energy:  -527.73291475467340
    Total Energy =                       -527.7329147546736294
  @DF-RHF Final Energy:  -527.73310915073921
    Total Energy =                       -527.7331091507393239
  @DF-RHF Final Energy:  -527.73314337984891
    Total Energy =                       -527.7331433798487978
  @DF-RHF Final Energy:  -527.73315474485253
    Total Energy =                       -527.7331547448527544
  @DF-RHF Final Energy:  -527.73316130470494
    Total Energy =                       -527.7331613047051633
  Basis Set: CC-PVTZ
  Basis Set:
  @DF-RHF Final Energy:  -527.73316917131342
    Total Energy =                       -527.7331691713134205
  Basis Set: CC-PVTZ
  Basis Set:
  Basis Set: CC-PVTZ
  Basis Set:
  @DF-RHF Final Energy:  -527.73317486295639
    Total Energy =                       -527.7331748629565027
  Basis Set: CC-PVTZ
  Basis Set:
  Basis Set: CC-PVTZ
  Basis Set:
  @DF-RHF Final Energy:  -527.73317830244503
    Total Energy =                       -527.7331783024452534
  Basis Set: CC-PVTZ
  Basis Set:
  Charge       = 0
  Multiplicity = 1
  Basis Set: CC-PVTZ
  Basis Set:

    Orbital Energies (a.u.)
    -----------------------

    Doubly Occupied:

       1A    -26.347671     2A    -26.347232     3A    -26.346887
       4A    -20.598033     5A    -11.506902     6A    -11.320840
       7A    -11.294960     8A    -11.212756     9A     -1.758035
      10A     -1.653729    11A     -1.652980    12A     -1.435113
      13A     -1.088197    14A     -1.023914    15A     -0.937497
      16A     -0.851947    17A     -0.847452    18A     -0.842182
      19A     -0.764764    20A     -0.732455    21A     -0.729045
      22A     -0.709552    23A     -0.688772    24A     -0.670972
      25A     -0.661953    26A     -0.658335    27A     -0.651304
      28A     -0.592372    29A     -0.561997    30A     -0.531019
      31A     -0.496474    32A     -0.356599

  @DF-RHF Final Energy:  -527.73317882523054

   => Energetics <=

    Nuclear Repulsion Energy =            416.3686235119993171
    One-Electron Energy =               -1556.4597188705613462
    Two-Electron Energy =                 612.3579165333319452
    DFT Exchange-Correlation Energy =       0.0000000000000000
    Empirical Dispersion Energy =           0.0000000000000000
    PCM Polarization Energy =               0.0000000000000000
    EFP Energy =                            0.0000000000000000
    Total Energy =                       -527.7331788252301976
    Molecular point group: c1
  Basis Set: CC-PVTZ
  Basis Set:

  -Total Gradient:
     Atom            X                  Y                   Z
    ------   -----------------  -----------------  -----------------
       1       -0.000002006574     0.000000162392    -0.000005180402
       2        0.000012857481    -0.000000409954    -0.000018611742
       3       -0.000295250721     0.002221734152    -0.001744708384
       4        0.000009297805     0.000013419193     0.000002728628
       5        0.000589237841    -0.002736422402     0.002710347809
       6       -0.000012178682    -0.000002307242    -0.000004058594
       7       -0.000773959887    -0.002575766749    -0.000895852989
       8        0.000008992625    -0.000001269650    -0.000035426727
       9        0.000505838849     0.003080763774    -0.000074948508
      10       -0.000013415912     0.000011041316    -0.000004067925
      11       -0.000058114565     0.000028197328     0.000034424039
      12       -0.000016866007    -0.000042633414    -0.000013809844
      13        0.000045567745     0.000003491257     0.000049164644

  **** Optimization is complete! (in 13 steps) ****
    Final optimized geometry and variables:
    Molecular point group: c1

    Geometry (in Angstrom), charge = 0, multiplicity = 1:

    H           -2.955034790716     0.545415625680     2.435698848837
    C           -2.726323009207    -0.137631373557     1.643144976154
    C           -1.686519009534     0.087077816423     0.876666728060
    H           -3.368688180671    -0.981999213726     1.486681760134
    O           -1.411087593094    -0.709144688619    -0.183922086207
    H           -1.047793201407     0.933087963405     1.025316549222
    C           -0.135157276985    -0.924165367828    -0.688658972571
    C            0.933090972903     0.108663410941    -0.382454297134
    H           -0.214126034542    -0.934797923584    -1.766012826974
    H            0.249521935908    -1.876811329387    -0.346098581083
    F            2.017398432993    -0.210202587908    -1.056455351838
    F            0.580274234908     1.322973448736    -0.744812461017
    F            1.262791300003     0.154103795920     0.890647207315

  Mulliken Charges: (a.u.)
   Center  Symbol    Alpha    Beta     Spin     Total
       1     H     0.42531  0.42531  0.00000  0.14938
       2     C     3.19264  3.19264  0.00000 -0.38528
       3     C     2.96652  2.96652  0.00000  0.06696
       4     H     0.42490  0.42490  0.00000  0.15021
       5     O     4.15031  4.15031  0.00000 -0.30062
       6     H     0.42801  0.42801  0.00000  0.14398
       7     C     2.98988  2.98988  0.00000  0.02025
       8     C     2.69086  2.69086  0.00000  0.61828
       9     H     0.44850  0.44850  0.00000  0.10301
      10     H     0.45460  0.45460  0.00000  0.09079
      11     F     4.60633  4.60633  0.00000 -0.21266
      12     F     4.61119  4.61119  0.00000 -0.22238
      13     F     4.61096  4.61096  0.00000 -0.22192

   Total alpha = 32.00000, Total beta = 32.00000, Total charge =  0.00000

*** Psi4 exiting successfully. Buy a developer a beer!
