  ==> Input File <==

--------------------------------------------------------------------------
set {
	reference rhf
	basis 6-31G*
}

set_num_threads( 4 )
memory 2 gb

molecule MOL {
0 1

O	 3.225979	 0.970355	 -0.599647
C	 2.701189	 0.057885	 -0.047330
C	 1.245376	 -0.013843	 0.345420
O	 3.347903	 -1.046386	 0.304773
C	 0.455112	 1.231400	 -0.050772
H	 0.838542	 -0.913825	 -0.103701
H	 1.208210	 -0.175333	 1.419774
C	 -0.998893	 1.219485	 0.433193
H	 0.482531	 1.345121	 -1.130325
H	 0.957290	 2.103070	 0.354729
C	 -1.883438	 0.145884	 -0.207175
H	 -1.431207	 2.195402	 0.224832
H	 -1.019646	 1.105716	 1.516076
C	 -3.347647	 0.245583	 0.225435
H	 -1.822183	 0.231698	 -1.291012
H	 -1.510341	 -0.844814	 0.042401
C	 -3.548380	 1.066517	 1.500544
H	 -3.746916	 -0.755810	 0.377200
H	 -3.932025	 0.686729	 -0.580538
C	 -5.012872	 1.157990	 1.927856
H	 -2.964318	 0.627647	 2.306711
H	 -3.153833	 2.069138	 1.349334
H	 -5.122694	 1.745753	 2.833991
H	 -5.427231	 0.172451	 2.120768
H	 -5.618213	 1.624494	 1.155709
C	 4.728119	 -1.109107	 -0.004993
H	 4.882018	 -1.033965	 -1.071845
H	 5.068212	 -2.067527	 0.355250
H	 5.265056	 -0.311663	 0.488280

	symmetry c1
}
set optking {
	frozen_dihedral = ("
		17 14 11 15
	")
}

ee = optimize('scf')
oeprop('DIPOLE', 'QUADRUPOLE', 'MULLIKEN_CHARGES')
f=open( 'psi4out.xyz', 'w' )
f.write( "29  " )
f.write( str(ee) + "\n" )
f.write( MOL.save_string_xyz() )
f.close()
--------------------------------------------------------------------------

    Molecular point group: c1
  Charge       = 0
  Multiplicity = 1
  Basis Set: 6-31G*
  Basis Set:
  @DF-RHF Final Energy:  -501.03173661529615
    Total Energy =                       -501.0317366152962677
    Molecular point group: c1
  Basis Set: 6-31G*
  Basis Set:
  Basis Set: 6-31G*
  Basis Set:
  @DF-RHF Final Energy:  -501.03189172433633
    Total Energy =                       -501.0318917243356509
  Basis Set: 6-31G*
  Basis Set:
  Basis Set: 6-31G*
  Basis Set:
  @DF-RHF Final Energy:  -501.03514801440031
    Total Energy =                       -501.0351480143998515
  Basis Set: 6-31G*
  Basis Set:
  Basis Set: 6-31G*
  Basis Set:
  @DF-RHF Final Energy:  -501.03556403258438
    Total Energy =                       -501.0355640325840341
  Basis Set: 6-31G*
  Basis Set:
  @DF-RHF Final Energy:  -501.03551347507232
    Total Energy =                       -501.0355134750730031
  @DF-RHF Final Energy:  -501.03527867115633
    Total Energy =                       -501.0352786711565614
  @DF-RHF Final Energy:  -501.03561165098859
    Total Energy =                       -501.0356116509888125
  Basis Set: 6-31G*
  Basis Set:
  @DF-RHF Final Energy:  -501.03553187853561
    Total Energy =                       -501.0355318785360623
  Basis Set: 6-31G*
  Basis Set:
  Basis Set: 6-31G*
  Basis Set:
  @DF-RHF Final Energy:  -501.03560812220405
    Total Energy =                       -501.0356081222034845
  Basis Set: 6-31G*
  Basis Set:
  Basis Set: 6-31G*
  Basis Set:
  @DF-RHF Final Energy:  -501.03561705620723
    Total Energy =                       -501.0356170562074567
  Basis Set: 6-31G*
  Basis Set:
  Charge       = 0
  Multiplicity = 1
  Basis Set: 6-31G*
  Basis Set:

    Orbital Energies (a.u.)
    -----------------------

    Doubly Occupied:

       1A    -20.603310     2A    -20.545130     3A    -11.371944
       4A    -11.280619     5A    -11.234637     6A    -11.218858
       7A    -11.217148     8A    -11.216540     9A    -11.215637
      10A    -11.215008    11A    -11.208892    12A     -1.469004
      13A     -1.362444    14A     -1.096639    15A     -1.064605
      16A     -1.017287    17A     -0.975918    18A     -0.928675
      19A     -0.862701    20A     -0.820053    21A     -0.773534
      22A     -0.756723    23A     -0.701009    24A     -0.682130
      25A     -0.671917    26A     -0.648902    27A     -0.627128
      28A     -0.603336    29A     -0.596742    30A     -0.581518
      31A     -0.564065    32A     -0.553100    33A     -0.547595
      34A     -0.523898    35A     -0.516808    36A     -0.503350
      37A     -0.491525    38A     -0.484538    39A     -0.480925
      40A     -0.456700    41A     -0.449829    42A     -0.445990
      43A     -0.442700    44A     -0.437003

  @DF-RHF Final Energy:  -501.03561650998279

   => Energetics <=

    Nuclear Repulsion Energy =            615.2374422972062575
    One-Electron Energy =               -1901.6140896193951448
    Two-Electron Energy =                 785.3410308122055312
    DFT Exchange-Correlation Energy =       0.0000000000000000
    Empirical Dispersion Energy =           0.0000000000000000
    PCM Polarization Energy =               0.0000000000000000
    EFP Energy =                            0.0000000000000000
    Total Energy =                       -501.0356165099834698
    Molecular point group: c1
  Basis Set: 6-31G*
  Basis Set:

  -Total Gradient:
     Atom            X                  Y                   Z
    ------   -----------------  -----------------  -----------------
       1        0.000001833312    -0.000000197187     0.000005922054
       2       -0.000004106503    -0.000011679565    -0.000025342711
       3       -0.000015404053    -0.000000568725     0.000017251867
       4       -0.000003677922     0.000003960315     0.000002312527
       5       -0.000000750031     0.000037349870    -0.000001131143
       6       -0.000000255458    -0.000007589376     0.000003284737
       7        0.000004894604    -0.000001090440    -0.000000720436
       8       -0.000003087600    -0.000042357659     0.000030348238
       9        0.000002936510     0.000015704803    -0.000007846835
      10        0.000003074666    -0.000013230831     0.000001224507
      11       -0.000757327420    -0.005133099226    -0.001657780126
      12       -0.000036335524     0.000000005430     0.000006241278
      13        0.000026672077     0.000009742854    -0.000011310323
      14        0.000737517686    -0.003884064722     0.003454335972
      15        0.000462226069     0.005494625278     0.000507911749
      16        0.000001110361    -0.000005340399     0.000005891968
      17       -0.000442074205     0.003547722918    -0.002360314607
      18       -0.000012939013    -0.000009101236    -0.000006431352
      19        0.000022397636     0.000010064820    -0.000004800263
      20        0.000008285814    -0.000028606219     0.000038656446
      21        0.000006074739     0.000019399065     0.000010964359
      22       -0.000007737506     0.000001641872    -0.000014201769
      23       -0.000005376000    -0.000017340873     0.000014899482
      24       -0.000005425340    -0.000003084188    -0.000019562626
      25        0.000014944141     0.000017338283     0.000008913517
      26        0.000002391145     0.000000646635     0.000002169381
      27       -0.000000760855     0.000000066557    -0.000000036096
      28        0.000000175837    -0.000000092197    -0.000000251086
      29        0.000000722830    -0.000000825856    -0.000000598709

  **** Optimization is complete! (in 11 steps) ****
    Final optimized geometry and variables:
    Molecular point group: c1

    Geometry (in Angstrom), charge = 0, multiplicity = 1:

    O            3.126753289889     0.562261663636    -1.047356352957
    C            2.604851272041    -0.311842584398    -0.433662174553
    C            1.162588092703    -0.335590820423     0.011579833921
    O            3.243119550630    -1.410639841111    -0.050304033115
    C            0.381947854662     0.904685001713    -0.418697863288
    H            0.725193137149    -1.248835026210    -0.377724179881
    H            1.160503733196    -0.443055616568     1.093330416904
    C           -1.052369463782     0.953577686219     0.121380072313
    H            0.370805509320     0.963146342830    -1.503022375786
    H            0.917844365390     1.783842024007    -0.077615580767
    C           -1.972646398855    -0.131550856050    -0.456525668468
    H           -1.462252233717     1.931079459603    -0.118621721126
    H           -1.026670725090     0.892500095614     1.206432400702
    C           -3.466339262164    -0.046522773650    -0.049015363273
    H           -1.909446098513    -0.037774769009    -1.537664577549
    H           -1.583953140399    -1.110731768163    -0.195778784263
    C           -3.805115027527     0.747487944538     1.217575609480
    H           -3.860743603347    -1.054130733219     0.052644193670
    H           -4.022791377307     0.403189262185    -0.868633397339
    C           -5.303317573432     0.724386976351     1.521499803327
    H           -3.264414158553     0.342877294889     2.070391116884
    H           -3.481442590202     1.777620441762     1.109354784685
    H           -5.530887179990     1.293501745456     2.417611877533
    H           -5.657963240665    -0.290853674151     1.675332074634
    H           -5.875996516119     1.152752483956     0.703572007284
    C            4.610274709090    -1.515835671662    -0.403415003849
    H            4.728153291862    -1.495185926970    -1.477283086982
    H            4.945066521752    -2.462448910471    -0.008653479235
    H            5.178695866334    -0.706526905161     0.031851416974

  Mulliken Charges: (a.u.)
   Center  Symbol    Alpha    Beta     Spin     Total
       1     O     4.28598  4.28598  0.00000 -0.57196
       2     C     2.60471  2.60471  0.00000  0.79057
       3     C     3.20981  3.20981  0.00000 -0.41961
       4     O     4.30751  4.30751  0.00000 -0.61502
       5     C     3.15380  3.15380  0.00000 -0.30761
       6     H     0.39887  0.39887  0.00000  0.20226
       7     H     0.40133  0.40133  0.00000  0.19733
       8     C     3.16026  3.16026  0.00000 -0.32053
       9     H     0.41348  0.41348  0.00000  0.17303
      10     H     0.40861  0.40861  0.00000  0.18279
      11     C     3.15721  3.15721  0.00000 -0.31442
      12     H     0.41800  0.41800  0.00000  0.16400
      13     H     0.42180  0.42180  0.00000  0.15641
      14     C     3.15377  3.15377  0.00000 -0.30754
      15     H     0.42038  0.42038  0.00000  0.15924
      16     H     0.42165  0.42165  0.00000  0.15671
      17     C     3.15464  3.15464  0.00000 -0.30928
      18     H     0.42102  0.42102  0.00000  0.15797
      19     H     0.42242  0.42242  0.00000  0.15517
      20     C     3.23930  3.23930  0.00000 -0.47861
      21     H     0.42341  0.42341  0.00000  0.15318
      22     H     0.42010  0.42010  0.00000  0.15980
      23     H     0.41915  0.41915  0.00000  0.16169
      24     H     0.42189  0.42189  0.00000  0.15621
      25     H     0.42174  0.42174  0.00000  0.15651
      26     C     3.09239  3.09239  0.00000 -0.18478
      27     H     0.40909  0.40909  0.00000  0.18183
      28     H     0.40853  0.40853  0.00000  0.18294
      29     H     0.40914  0.40914  0.00000  0.18172

   Total alpha = 44.00000, Total beta = 44.00000, Total charge = -0.00000
