                              Psi4 1.0.54 Driver

  ==> Input File <==

--------------------------------------------------------------------------
set {
	reference rhf
	basis cc-pvtz
}

set_num_threads( 4 )
memory 2 gb

molecule MOL {
0 1

O	 -2.081319	 -0.951530	 -0.502732
N	 -1.613558	 0.006676	 0.014756
C	 -0.329345	 -0.171618	 0.743966
O	 -2.068523	 1.100482	 -0.024385
C	 0.236429	 1.191283	 1.122764
H	 0.323694	 -0.703957	 0.072718
H	 -0.559037	 -0.765871	 1.612491
C	 1.556915	 1.055363	 1.876428
H	 0.382539	 1.774610	 0.221132
H	 -0.487964	 1.714873	 1.735826
C	 2.141642	 2.406087	 2.274070
H	 2.271680	 0.519755	 1.258632
H	 1.404233	 0.451584	 2.766117
H	 2.336436	 3.019672	 1.401564
H	 1.461501	 2.951920	 2.918422
H	 3.076045	 2.281488	 2.807482

	symmetry c1
}
set optking {
	frozen_dihedral = ("
		5 3 2 1
	")
}

ee,wfn = optimize('scf', return_wfn=True)
oeprop( wfn, 'DIPOLE', 'QUADRUPOLE', 'MULLIKEN_CHARGES')
f=open( 'psi4out.xyz', 'w' )
f.write( "16  " )
f.write( str(ee) + "\n" )
f.write( MOL.save_string_xyz() )
f.close()
--------------------------------------------------------------------------

    Molecular point group: c1
  Charge       = 0
  Multiplicity = 1
  Basis Set: CC-PVTZ
  Basis Set:
  @DF-RHF Final Energy:  -360.90635198108231
    Total Energy =                       -360.9063519810823095
    Molecular point group: c1
  Basis Set: CC-PVTZ
  Basis Set:
  Basis Set: CC-PVTZ
  Basis Set:
  @DF-RHF Final Energy:  -360.67670967184375
    Total Energy =                       -360.6767096718436960
  Basis Set: CC-PVTZ
  Basis Set:
  Basis Set: CC-PVTZ
  Basis Set:
  @DF-RHF Final Energy:  -360.82365445762895
    Total Energy =                       -360.8236544576287770
  Basis Set: CC-PVTZ
  Basis Set:
  Basis Set: CC-PVTZ
  Basis Set:
  @DF-RHF Final Energy:  -360.89903529226541
    Total Energy =                       -360.8990352922655802
  Basis Set: CC-PVTZ
  Basis Set:
  @DF-RHF Final Energy:  -360.90525761540084
    Total Energy =                       -360.9052576154009557
  @DF-RHF Final Energy:  -360.90370978347875
    Total Energy =                       -360.9037097834786891
  @DF-RHF Final Energy:  -360.90816698736330
    Total Energy =                       -360.9081669873631881
  @DF-RHF Final Energy:  -360.90815890592569
    Total Energy =                       -360.9081589059255180
  Basis Set: CC-PVTZ
  Basis Set:
  @DF-RHF Final Energy:  -360.90816577883135
    Total Energy =                       -360.9081657788312327
  Basis Set: CC-PVTZ
  Basis Set:
  Basis Set: CC-PVTZ
  Basis Set:
  @DF-RHF Final Energy:  -360.90845411318043
    Total Energy =                       -360.9084541131803689
  Basis Set: CC-PVTZ
  Basis Set:
  Basis Set: CC-PVTZ
  Basis Set:
  @DF-RHF Final Energy:  -360.90846015030240
    Total Energy =                       -360.9084601503022895
  Basis Set: CC-PVTZ
  Basis Set:
  Charge       = 0
  Multiplicity = 1
  Basis Set: CC-PVTZ
  Basis Set:

    Orbital Energies (a.u.)
    -----------------------

    Doubly Occupied:

       1A    -20.592982     2A    -20.586977     3A    -15.837870
       4A    -11.298169     5A    -11.243508     6A    -11.239710
       7A    -11.224202     8A     -1.636590     9A     -1.420706
      10A     -1.133947    11A     -1.058534    12A     -0.948820
      13A     -0.843454    14A     -0.821166    15A     -0.759024
      16A     -0.752420    17A     -0.730602    18A     -0.666817
      19A     -0.615315    20A     -0.602565    21A     -0.565572
      22A     -0.534444    23A     -0.523962    24A     -0.501928
      25A     -0.494372    26A     -0.486694    27A     -0.469071
      28A     -0.452867

  @DF-RHF Final Energy:  -360.90846038264476

   => Energetics <=

    Nuclear Repulsion Energy =            312.4930591442381456
    One-Electron Energy =               -1110.7184624590438489
    Two-Electron Energy =                 437.3169429321606003
    DFT Exchange-Correlation Energy =       0.0000000000000000
    Empirical Dispersion Energy =           0.0000000000000000
    PCM Polarization Energy =               0.0000000000000000
    EFP Energy =                            0.0000000000000000
    Total Energy =                       -360.9084603826451030
    Molecular point group: c1
  Basis Set: CC-PVTZ
  Basis Set:

  -Total Gradient:
     Atom            X                  Y                   Z
    ------   -----------------  -----------------  -----------------
       1        0.000013712848     0.000040510830     0.000204418148
       2       -0.000081951643    -0.000048408497    -0.000227399252
       3        0.000050442523    -0.000020776970    -0.000120150258
       4        0.000091110710     0.000041001539     0.000040131757
       5       -0.000094932769     0.000004550647     0.000116029590
       6        0.000004428775    -0.000005320562     0.000000885913
       7       -0.000002661556    -0.000012174828    -0.000002248748
       8        0.000019878779    -0.000018101460    -0.000002437011
       9       -0.000005123398     0.000007755791     0.000001280351
      10       -0.000003739759    -0.000004788993    -0.000010789012
      11       -0.000009439117     0.000012784309    -0.000004177645
      12        0.000010263820     0.000001425862     0.000007207530
      13        0.000002719039    -0.000003689968    -0.000005934884
      14       -0.000002393235     0.000002960160     0.000002188666
      15       -0.000002207150     0.000000475509    -0.000003843989
      16        0.000009892129     0.000001796624     0.000004838841

  **** Optimization is complete! (in 12 steps) ****
    Final optimized geometry and variables:
    Molecular point group: c1

    Geometry (in Angstrom), charge = 0, multiplicity = 1:

    O           -0.718040185207    -2.439523904764    -0.825096566441
    N           -0.835359551272    -1.292707601709    -0.547930043976
    C            0.349147867227    -0.654157713684     0.102551556652
    O           -1.805759686804    -0.640683374759    -0.729765137496
    C            0.250277552623     0.852263856095     0.221432866800
    H            1.191210997805    -0.975018138226    -0.490209712283
    H            0.416845973399    -1.140095443934     1.065605570419
    C            1.505311118059     1.428001629141     0.875874494067
    H            0.114644864107     1.284469098217    -0.762574994917
    H           -0.624872297272     1.114515384799     0.800666726101
    C            1.444283263252     2.945020390810     1.015288975441
    H            2.379480558575     1.154905653398     0.291679537618
    H            1.640896399752     0.981538930457     1.856994863352
    H            1.342812925849     3.422418608377     0.046996195715
    H            0.599185168653     3.247566511461     1.623547213441
    H            2.343538292299     3.328516465070     1.481823660391

  Mulliken Charges: (a.u.)
   Center  Symbol    Alpha    Beta     Spin     Total
       1     O     4.17479  4.17479  0.00000 -0.34958
       2     N     3.27189  3.27189  0.00000  0.45623
       3     C     3.05189  3.05189  0.00000 -0.10379
       4     O     4.16887  4.16887  0.00000 -0.33775
       5     C     3.09325  3.09325  0.00000 -0.18650
       6     H     0.43169  0.43169  0.00000  0.13662
       7     H     0.43339  0.43339  0.00000  0.13322
       8     C     3.09430  3.09430  0.00000 -0.18860
       9     H     0.44104  0.44104  0.00000  0.11792
      10     H     0.43770  0.43770  0.00000  0.12460
      11     C     3.14807  3.14807  0.00000 -0.29615
      12     H     0.45165  0.45165  0.00000  0.09670
      13     H     0.45189  0.45189  0.00000  0.09622
      14     H     0.45206  0.45206  0.00000  0.09588
      15     H     0.45190  0.45190  0.00000  0.09621
      16     H     0.44561  0.44561  0.00000  0.10877

   Total alpha = 28.00000, Total beta = 28.00000, Total charge = -0.00000

*** Psi4 exiting successfully. Buy a developer a beer!
