  ==> Input File <==

--------------------------------------------------------------------------
set {
	reference rhf
	basis cc-pvtz
}

set_num_threads( 4 )
memory 2 gb

molecule MOL {
0 1

H	 2.135413	 0.199768	 -0.854025
O	 1.371592	 -0.355673	 -0.893129
C	 0.489979	 0.078084	 0.002623
C	 -0.763662	 -0.754014	 0.000816
O	 0.700789	 1.014214	 0.693369
C	 -2.038001	 0.074705	 -0.000833
H	 -0.712945	 -1.405886	 -0.864342
H	 -0.715137	 -1.405770	 0.866182
H	 -2.087267	 0.710831	 -0.874232
H	 -2.903419	 -0.576199	 -0.001922
H	 -2.089467	 0.710909	 0.872389

	symmetry c1
}
set optking {
	frozen_dihedral = ("
		2 3 4 7
	")
}

ee = optimize('scf')
oeprop('DIPOLE', 'QUADRUPOLE', 'MULLIKEN_CHARGES')
f=open( 'psi4out.xyz', 'w' )
f.write( "11  " )
f.write( str(ee) + "\n" )
f.write( MOL.save_string_xyz() )
f.close()
--------------------------------------------------------------------------

    Molecular point group: c1
  Charge       = 0
  Multiplicity = 1
  Basis Set: CC-PVTZ
  Basis Set:
  @DF-RHF Final Energy:  -266.95124075261913
    Total Energy =                       -266.9512407526193556
    Molecular point group: c1
  Basis Set: CC-PVTZ
  Basis Set:
  Basis Set: CC-PVTZ
  Basis Set:
  @DF-RHF Final Energy:  -266.95160710385130
    Total Energy =                       -266.9516071038512450
  Basis Set: CC-PVTZ
  Basis Set:
  Basis Set: CC-PVTZ
  Basis Set:
  @DF-RHF Final Energy:  -266.95082079004726
    Total Energy =                       -266.9508207900473735
  Basis Set: CC-PVTZ
  Basis Set:
  Basis Set: CC-PVTZ
  Basis Set:
  @DF-RHF Final Energy:  -266.95171809967877
    Total Energy =                       -266.9517180996788852
  Basis Set: CC-PVTZ
  Basis Set:
  Basis Set: CC-PVTZ
  Basis Set:
  @DF-RHF Final Energy:  -266.95172122389675
    Total Energy =                       -266.9517212238966408
  Basis Set: CC-PVTZ
  Basis Set:
  Charge       = 0
  Multiplicity = 1
  Basis Set: CC-PVTZ
  Basis Set:

    Orbital Energies (a.u.)
    -----------------------

    Doubly Occupied:

       1A    -20.607256     2A    -20.539276     3A    -11.374528
       4A    -11.242076     5A    -11.223192     6A     -1.479357
       7A     -1.369631     8A     -1.066492     9A     -0.917297
      10A     -0.809986    11A     -0.707039    12A     -0.692309
      13A     -0.655188    14A     -0.607885    15A     -0.596679
      16A     -0.536830    17A     -0.527524    18A     -0.509831
      19A     -0.480316    20A     -0.446919

  @DF-RHF Final Energy:  -266.95172151605334

   => Energetics <=

    Nuclear Repulsion Energy =            180.0657015229902527
    One-Electron Energy =                -721.2556224941254186
    Two-Electron Energy =                 274.2381994550817694
    DFT Exchange-Correlation Energy =       0.0000000000000000
    Empirical Dispersion Energy =           0.0000000000000000
    PCM Polarization Energy =               0.0000000000000000
    EFP Energy =                            0.0000000000000000
    Total Energy =                       -266.9517215160533965
    Molecular point group: c1
  Basis Set: CC-PVTZ
  Basis Set:

  -Total Gradient:
     Atom            X                  Y                   Z
    ------   -----------------  -----------------  -----------------
       1        0.000003360447    -0.000000881182     0.000001925710
       2       -0.000388742757     0.000587623359    -0.000683489312
       3        0.000636202514    -0.000972029093     0.001092226885
       4       -0.000809850958     0.001231838402    -0.001043227512
       5       -0.000001535676    -0.000021025912    -0.000024321368
       6        0.000010684230    -0.000000523245     0.000001388229
       7        0.000547991928    -0.000812875035     0.000643748009
       8        0.000004600722    -0.000009029398     0.000012767837
       9       -0.000002929146    -0.000004440216     0.000004510696
      10        0.000000616373     0.000000282510    -0.000005608759
      11       -0.000000397672     0.000001059810     0.000000079586

  **** Optimization is complete! (in 6 steps) ****
    Final optimized geometry and variables:
    Molecular point group: c1

    Geometry (in Angstrom), charge = 0, multiplicity = 1:

    H            2.170552607282     0.202088294058    -0.753846870916
    O            1.408521378923    -0.352335859905    -0.834858139874
    C            0.501030447066     0.052847217780     0.045900685614
    C           -0.749663145417    -0.788114125654     0.030605154531
    O            0.686550795668     0.976318630050     0.761678883554
    C           -2.017611112474     0.059202068837     0.059704167223
    H           -0.725735139266    -1.450854382833    -0.822146225034
    H           -0.702210687151    -1.409994520723     0.918963870141
    H           -2.098587095503     0.671329347893    -0.830627218921
    H           -2.890290739362    -0.579593709727     0.107657198788
    H           -2.020267902197     0.713753813483     0.919577925883

  Mulliken Charges: (a.u.)
   Center  Symbol    Alpha    Beta     Spin     Total
       1     H     0.38025  0.38025  0.00000  0.23950
       2     O     4.15842  4.15842  0.00000 -0.31684
       3     C     2.80404  2.80404  0.00000  0.39193
       4     C     3.09248  3.09248  0.00000 -0.18496
       5     O     4.19700  4.19700  0.00000 -0.39401
       6     C     3.14331  3.14331  0.00000 -0.28662
       7     H     0.43727  0.43727  0.00000  0.12546
       8     H     0.44463  0.44463  0.00000  0.11074
       9     H     0.45242  0.45242  0.00000  0.09516
      10     H     0.44883  0.44883  0.00000  0.10234
      11     H     0.44135  0.44135  0.00000  0.11729

   Total alpha = 20.00000, Total beta = 20.00000, Total charge = -0.00000
