  ==> Input File <==

--------------------------------------------------------------------------
set {
	reference rhf
	basis 6-31G*
}

set_num_threads( 4 )
memory 2 gb

molecule MOL {
0 1

O	 -2.439739	 -0.935931	 -0.423848
C	 -1.921153	 0.064240	 -0.045697
C	 -2.624470	 1.379923	 0.150949
O	 -0.632575	 0.154573	 0.251549
H	 -2.168117	 2.136577	 -0.476876
H	 -3.669540	 1.273223	 -0.098610
H	 -2.519365	 1.700893	 1.180846
C	 0.160891	 -1.019931	 0.106212
C	 1.589627	 -0.672828	 0.480843
H	 0.089836	 -1.367806	 -0.916050
H	 -0.238459	 -1.792301	 0.749618
C	 2.141005	 -1.489854	 1.650822
H	 1.613750	 0.385765	 0.731307
H	 2.223028	 -0.802219	 -0.392838
C	 3.571044	 -1.096167	 2.018244
H	 1.495445	 -1.356667	 2.516624
H	 2.107459	 -2.544813	 1.399233
H	 3.939251	 -1.689760	 2.848968
H	 3.629977	 -0.050553	 2.307201
H	 4.246199	 -1.245694	 1.180457

	symmetry c1
}
set optking {
	frozen_dihedral = ("
		12 9 8 10
	")
}

ee = optimize('scf')
oeprop('DIPOLE', 'QUADRUPOLE', 'MULLIKEN_CHARGES')
f=open( 'psi4out.xyz', 'w' )
f.write( "20  " )
f.write( str(ee) + "\n" )
f.write( MOL.save_string_xyz() )
f.close()
--------------------------------------------------------------------------

    Molecular point group: c1
  Charge       = 0
  Multiplicity = 1
  Basis Set: 6-31G*
  Basis Set:
  @DF-RHF Final Energy:  -383.93955875787265
    Total Energy =                       -383.9395587578725326
    Molecular point group: c1
  Basis Set: 6-31G*
  Basis Set:
  Basis Set: 6-31G*
  Basis Set:
  @DF-RHF Final Energy:  -383.93974627198912
    Total Energy =                       -383.9397462719890655
  Basis Set: 6-31G*
  Basis Set:
  Basis Set: 6-31G*
  Basis Set:
  @DF-RHF Final Energy:  -383.93881749672977
    Total Energy =                       -383.9388174967298824
  Basis Set: 6-31G*
  Basis Set:
  Basis Set: 6-31G*
  Basis Set:
  @DF-RHF Final Energy:  -383.93988291803458
    Total Energy =                       -383.9398829180345842
  Basis Set: 6-31G*
  Basis Set:
  Basis Set: 6-31G*
  Basis Set:
  @DF-RHF Final Energy:  -383.93989174287879
    Total Energy =                       -383.9398917428788991
  Basis Set: 6-31G*
  Basis Set:
  Basis Set: 6-31G*
  Basis Set:
  @DF-RHF Final Energy:  -383.93988981741336
    Total Energy =                       -383.9398898174133592
  Basis Set: 6-31G*
  Basis Set:
  Basis Set: 6-31G*
  Basis Set:
  @DF-RHF Final Energy:  -383.93989278552948
    Total Energy =                       -383.9398927855294232
  Basis Set: 6-31G*
  Basis Set:
  Charge       = 0
  Multiplicity = 1
  Basis Set: 6-31G*
  Basis Set:

    Orbital Energies (a.u.)
    -----------------------

    Doubly Occupied:

       1A    -20.601042     2A    -20.543339     3A    -11.373549
       4A    -11.282032     5A    -11.232810     6A    -11.224948
       7A    -11.224115     8A    -11.214931     9A     -1.467024
      10A     -1.361164    11A     -1.085125    12A     -1.028924
      13A     -0.979301    14A     -0.881856    15A     -0.807900
      16A     -0.779765    17A     -0.689110    18A     -0.681321
      19A     -0.667179    20A     -0.633798    21A     -0.600048
      22A     -0.592704    23A     -0.570489    24A     -0.555268
      25A     -0.544623    26A     -0.522083    27A     -0.512888
      28A     -0.482115    29A     -0.480186    30A     -0.474753
      31A     -0.447345    32A     -0.436713

  @DF-RHF Final Energy:  -383.93989277346714

   => Energetics <=

    Nuclear Repulsion Energy =            379.9479727446018842
    One-Electron Energy =               -1275.8188331153351101
    Two-Electron Energy =                 511.9309675972659761
    DFT Exchange-Correlation Energy =       0.0000000000000000
    Empirical Dispersion Energy =           0.0000000000000000
    PCM Polarization Energy =               0.0000000000000000
    EFP Energy =                            0.0000000000000000
    Total Energy =                       -383.9398927734672498
    Molecular point group: c1
  Basis Set: 6-31G*
  Basis Set:

  -Total Gradient:
     Atom            X                  Y                   Z
    ------   -----------------  -----------------  -----------------
       1        0.000003562252     0.000003572358    -0.000004567681
       2       -0.000017325146    -0.000003778113    -0.000009059566
       3        0.000000436683     0.000000417068     0.000004314375
       4        0.000018615060    -0.000010432944    -0.000009869988
       5       -0.000000122147    -0.000002364793    -0.000000223283
       6        0.000000414569     0.000000028646     0.000000134890
       7       -0.000000363997     0.000002453880     0.000001302273
       8       -0.000011318757    -0.000010602931     0.000047817484
       9        0.000008269594    -0.000007206378    -0.000013215454
      10       -0.000010745719     0.000011442489    -0.000013312354
      11        0.000003405985     0.000000295544    -0.000010828260
      12       -0.000003604278     0.000010381949     0.000008126872
      13        0.000002036468     0.000001022165     0.000001435060
      14        0.000006737989     0.000002793925     0.000003169237
      15        0.000003558974    -0.000005524211    -0.000007197573
      16       -0.000000316577     0.000005331423    -0.000000252300
      17       -0.000001966365     0.000003061331     0.000002729980
      18        0.000000490434    -0.000003019338    -0.000002464170
      19       -0.000002846963    -0.000001637983     0.000003138941
      20        0.000001081943     0.000003765910    -0.000001178484

  **** Optimization is complete! (in 8 steps) ****
    Final optimized geometry and variables:
    Molecular point group: c1

    Geometry (in Angstrom), charge = 0, multiplicity = 1:

    O           -2.413173473774    -0.502227114549    -0.928946321645
    C           -1.898563963254     0.506724617597    -0.567956908347
    C           -2.612335662345     1.817685534167    -0.375736426730
    O           -0.608949832394     0.611715790191    -0.283073124486
    H           -2.169675272983     2.572615964917    -1.015255590990
    H           -3.658857713066     1.698666282109    -0.613460839505
    H           -2.499679986106     2.149157763434     0.650065339718
    C            0.192802227709    -0.559731880683    -0.424186794322
    C            1.634580454805    -0.206306881111    -0.042473689402
    H            0.113362483493    -0.908152753436    -1.444063360413
    H           -0.214528828053    -1.331020482685     0.215507285956
    C            2.170632137803    -1.031564918573     1.130110505255
    H            1.671661981488     0.848230096246     0.207879729927
    H            2.284179333745    -0.341578555643    -0.902677204100
    C            3.608749979688    -0.671073176011     1.496984924449
    H            1.526277344534    -0.883698038047     1.993782283253
    H            2.115188028324    -2.089953974483     0.884275581195
    H            3.962530663383    -1.269766708479     2.330208112329
    H            3.689891311475     0.374065777621     1.781616615267
    H            4.281004364029    -0.838471171368     0.660216284947

  Mulliken Charges: (a.u.)
   Center  Symbol    Alpha    Beta     Spin     Total
       1     O     4.28395  4.28395  0.00000 -0.56790
       2     C     2.61995  2.61995  0.00000  0.76011
       3     C     3.28149  3.28149  0.00000 -0.56298
       4     O     4.30976  4.30976  0.00000 -0.61952
       5     H     0.40068  0.40068  0.00000  0.19865
       6     H     0.39705  0.39705  0.00000  0.20590
       7     H     0.40084  0.40084  0.00000  0.19831
       8     C     3.00261  3.00261  0.00000 -0.00523
       9     C     3.16987  3.16987  0.00000 -0.33974
      10     H     0.40821  0.40821  0.00000  0.18358
      11     H     0.40765  0.40765  0.00000  0.18470
      12     C     3.15878  3.15878  0.00000 -0.31755
      13     H     0.40490  0.40490  0.00000  0.19020
      14     H     0.41656  0.41656  0.00000  0.16687
      15     C     3.24079  3.24079  0.00000 -0.48158
      16     H     0.41862  0.41862  0.00000  0.16276
      17     H     0.42067  0.42067  0.00000  0.15866
      18     H     0.41705  0.41705  0.00000  0.16590
      19     H     0.41997  0.41997  0.00000  0.16005
      20     H     0.42060  0.42060  0.00000  0.15880

   Total alpha = 32.00000, Total beta = 32.00000, Total charge = -0.00000
