  ==> Input File <==

--------------------------------------------------------------------------
set {
	reference rhf
	basis cc-pvtz
}

set_num_threads( 4 )
memory 2 gb

molecule MOL {
0 1

O	 -0.694481	 1.313155	 -0.204815
C	 -0.862519	 0.151932	 -0.046791
C	 -2.171428	 -0.477048	 0.339095
O	 0.085519	 -0.757083	 -0.192238
H	 -2.467997	 -1.191667	 -0.417688
H	 -2.923379	 0.287970	 0.444097
H	 -2.053854	 -1.015120	 1.270901
C	 1.392036	 -0.330828	 -0.560749
C	 2.191639	 0.126757	 0.641395
H	 1.315425	 0.452961	 -1.298055
H	 1.844768	 -1.198896	 -1.015990
H	 3.199584	 0.379605	 0.332256
H	 1.744901	 1.002276	 1.092254
H	 2.250494	 -0.659992	 1.383793

	symmetry c1
}
set optking {
	frozen_dihedral = ("
		10 8 4 2
	")
}

ee = optimize('scf')
oeprop('DIPOLE', 'QUADRUPOLE', 'MULLIKEN_CHARGES')
f=open( 'psi4out.xyz', 'w' )
f.write( "14  " )
f.write( str(ee) + "\n" )
f.write( MOL.save_string_xyz() )
f.close()
--------------------------------------------------------------------------

    Molecular point group: c1
  Charge       = 0
  Multiplicity = 1
  Basis Set: CC-PVTZ
  Basis Set:
  @DF-RHF Final Energy:  -305.99115905227870
    Total Energy =                       -305.9911590522784763
    Molecular point group: c1
  Basis Set: CC-PVTZ
  Basis Set:
  Basis Set: CC-PVTZ
  Basis Set:
  @DF-RHF Final Energy:  -305.99116089523210
    Total Energy =                       -305.9911608952322695
  Basis Set: CC-PVTZ
  Basis Set:
  Basis Set: CC-PVTZ
  Basis Set:
  @DF-RHF Final Energy:  -305.99114795529817
    Total Energy =                       -305.9911479552976630
  Basis Set: CC-PVTZ
  Basis Set:
  Charge       = 0
  Multiplicity = 1
  Basis Set: CC-PVTZ
  Basis Set:

    Orbital Energies (a.u.)
    -----------------------

    Doubly Occupied:

       1A    -20.594423     2A    -20.533091     3A    -11.367976
       4A    -11.283277     5A    -11.231615     6A    -11.216808
       7A     -1.470643     8A     -1.365773     9A     -1.056002
      10A     -0.999446    11A     -0.884001    12A     -0.766732
      13A     -0.701277    14A     -0.685682    15A     -0.660847
      16A     -0.611742    17A     -0.587598    18A     -0.571171
      19A     -0.559979    20A     -0.529891    21A     -0.518854
      22A     -0.494792    23A     -0.454684    24A     -0.442169

  @DF-RHF Final Energy:  -305.99116266511413

   => Energetics <=

    Nuclear Repulsion Energy =            249.2685595251458039
    One-Electron Energy =                -911.3424996085331031
    Two-Electron Energy =                 356.0827774182733947
    DFT Exchange-Correlation Energy =       0.0000000000000000
    Empirical Dispersion Energy =           0.0000000000000000
    PCM Polarization Energy =               0.0000000000000000
    EFP Energy =                            0.0000000000000000
    Total Energy =                       -305.9911626651138477
    Molecular point group: c1
  Basis Set: CC-PVTZ
  Basis Set:

  -Total Gradient:
     Atom            X                  Y                   Z
    ------   -----------------  -----------------  -----------------
       1        0.000034979385    -0.000016981296    -0.000026623722
       2        0.000075776096     0.000006874782     0.000292248718
       3       -0.000002301194     0.000002025511    -0.000016579481
       4       -0.000119747624    -0.000120556906    -0.000430007295
       5        0.000000075137     0.000002906757    -0.000000276198
       6        0.000000627800    -0.000000266195     0.000001178151
       7        0.000003894241     0.000002456837    -0.000002014376
       8        0.000010862280     0.000283927767     0.000399112097
       9        0.000006584713     0.000044905856    -0.000002170920
      10        0.000006121219    -0.000184661014    -0.000211480982
      11       -0.000033383462     0.000006787314     0.000004824623
      12        0.000005153095    -0.000000071820     0.000016548940
      13        0.000007044152    -0.000020004657    -0.000020986084
      14        0.000004314162    -0.000007342932    -0.000003773472

  **** Optimization is complete! (in 4 steps) ****
    Final optimized geometry and variables:
    Molecular point group: c1

    Geometry (in Angstrom), charge = 0, multiplicity = 1:

    O           -0.694736929227     1.305784596428    -0.210707258017
    C           -0.860975994845     0.145013190495    -0.047482884529
    C           -2.168516356263    -0.484246965051     0.342159030172
    O            0.088089319725    -0.763123380300    -0.191345699299
    H           -2.464839208141    -1.202121074326    -0.411613198074
    H           -2.921410881263     0.280108411745     0.444955367597
    H           -2.049272418346    -1.018577961601     1.275878975497
    C            1.394842580956    -0.334963511850    -0.557040595662
    C            2.196265939651     0.118829834734     0.645370927831
    H            1.318389645936     0.449188725289    -1.294185119434
    H            1.846847714342    -1.202288505332    -1.014346397228
    H            3.204315702584     0.370116529132     0.335404234327
    H            1.752096640736     0.993979916564     1.098931581167
    H            2.254743084076    -0.670168237420     1.385454235343

  Mulliken Charges: (a.u.)
   Center  Symbol    Alpha    Beta     Spin     Total
       1     O     4.19918  4.19918  0.00000 -0.39836
       2     C     2.80181  2.80181  0.00000  0.39637
       3     C     3.13838  3.13838  0.00000 -0.27677
       4     O     4.15725  4.15725  0.00000 -0.31449
       5     H     0.44556  0.44556  0.00000  0.10888
       6     H     0.43828  0.43828  0.00000  0.12344
       7     H     0.44601  0.44601  0.00000  0.10797
       8     C     2.98547  2.98547  0.00000  0.02905
       9     C     3.14874  3.14874  0.00000 -0.29748
      10     H     0.44912  0.44912  0.00000  0.10176
      11     H     0.44464  0.44464  0.00000  0.11072
      12     H     0.45137  0.45137  0.00000  0.09727
      13     H     0.44176  0.44176  0.00000  0.11649
      14     H     0.45243  0.45243  0.00000  0.09514

   Total alpha = 24.00000, Total beta = 24.00000, Total charge =  0.00000
