  ==> Input File <==

--------------------------------------------------------------------------
set {
	reference rhf
	basis cc-pvtz
}

set_num_threads( 4 )
memory 2 gb

molecule MOL {
0 1

H	 -3.424675	 0.737685	 1.804002
O	 -2.724903	 0.175402	 1.527682
C	 -2.302264	 0.528872	 0.237390
C	 -1.175688	 -0.398187	 -0.171891
H	 -3.125616	 0.445826	 -0.468987
H	 -1.957899	 1.560813	 0.218951
C	 0.196029	 0.106276	 0.266738
H	 -1.201873	 -0.515469	 -1.250677
H	 -1.365975	 -1.378728	 0.252664
C	 1.330220	 -0.826136	 -0.155230
H	 0.359542	 1.097229	 -0.145561
H	 0.212134	 0.218135	 1.348778
C	 2.719700	 -0.407669	 0.328325
H	 1.339388	 -0.911200	 -1.239363
H	 1.119001	 -1.821953	 0.224128
C	 3.241564	 0.893452	 -0.276737
H	 3.418299	 -1.204729	 0.093035
H	 2.711776	 -0.323368	 1.411960
H	 3.254204	 0.841071	 -1.360784
H	 2.634460	 1.745075	 0.005842
H	 4.254264	 1.092401	 0.054971

	symmetry c1
}
set optking {
	frozen_dihedral = ("
		2 3 4 8
	")
}

ee = optimize('scf')
oeprop('DIPOLE', 'QUADRUPOLE', 'MULLIKEN_CHARGES')
f=open( 'psi4out.xyz', 'w' )
f.write( "21  " )
f.write( str(ee) + "\n" )
f.write( MOL.save_string_xyz() )
f.close()
--------------------------------------------------------------------------

    Molecular point group: c1
  Charge       = 0
  Multiplicity = 1
  Basis Set: CC-PVTZ
  Basis Set:
  @DF-RHF Final Energy:  -310.33056540395808
    Total Energy =                       -310.3305654039583601
    Molecular point group: c1
  Basis Set: CC-PVTZ
  Basis Set:
  Basis Set: CC-PVTZ
  Basis Set:
  @DF-RHF Final Energy:  -310.33093611212411
    Total Energy =                       -310.3309361121235952
  Basis Set: CC-PVTZ
  Basis Set:
  Basis Set: CC-PVTZ
  Basis Set:
  @DF-RHF Final Energy:  -310.33100793567496
    Total Energy =                       -310.3310079356749611
  Basis Set: CC-PVTZ
  Basis Set:
  Basis Set: CC-PVTZ
  Basis Set:
  @DF-RHF Final Energy:  -310.33100810704462
    Total Energy =                       -310.3310081070446813
  Basis Set: CC-PVTZ
  Basis Set:
  Basis Set: CC-PVTZ
  Basis Set:
  @DF-RHF Final Energy:  -310.33101360070424
    Total Energy =                       -310.3310136007040114
  Basis Set: CC-PVTZ
  Basis Set:
  Charge       = 0
  Multiplicity = 1
  Basis Set: CC-PVTZ
  Basis Set:

    Orbital Energies (a.u.)
    -----------------------

    Doubly Occupied:

       1A    -20.545735     2A    -11.265467     3A    -11.210515
       4A    -11.209426     5A    -11.208346     6A    -11.207380
       7A    -11.204071     8A     -1.362998     9A     -1.083764
      10A     -1.031700    11A     -0.954710    12A     -0.876616
      13A     -0.804832    14A     -0.775685    15A     -0.707598
      16A     -0.638982    17A     -0.631221    18A     -0.603068
      19A     -0.585688    20A     -0.570737    21A     -0.535129
      22A     -0.525160    23A     -0.507503    24A     -0.486011
      25A     -0.481300    26A     -0.459869    27A     -0.454557
      28A     -0.448217    29A     -0.426236

  @DF-RHF Final Energy:  -310.33101449980762

   => Energetics <=

    Nuclear Repulsion Energy =            315.6985935970076866
    One-Electron Energy =               -1046.4541754776200833
    Two-Electron Energy =                 420.4245673808048309
    DFT Exchange-Correlation Energy =       0.0000000000000000
    Empirical Dispersion Energy =           0.0000000000000000
    PCM Polarization Energy =               0.0000000000000000
    EFP Energy =                            0.0000000000000000
    Total Energy =                       -310.3310144998076225
    Molecular point group: c1
  Basis Set: CC-PVTZ
  Basis Set:

  -Total Gradient:
     Atom            X                  Y                   Z
    ------   -----------------  -----------------  -----------------
       1       -0.000007219657     0.000001851327     0.000006850536
       2       -0.002194553804    -0.002210509989    -0.001305723057
       3        0.002268522296     0.002014635118     0.001781145132
       4        0.002506785925     0.003802236342    -0.000902669947
       5        0.000003196620    -0.000000785997    -0.000007947215
       6        0.000000738605    -0.000000143714     0.000011857656
       7       -0.000039937585    -0.000005700868    -0.000007555625
       8       -0.002535092401    -0.003574586325     0.000441506608
       9       -0.000009406298    -0.000027234241     0.000000497128
      10       -0.000006232663    -0.000007812404    -0.000044976798
      11        0.000002359749    -0.000004755061     0.000002629198
      12       -0.000009533788    -0.000001234529    -0.000012406310
      13        0.000001709558     0.000005058544     0.000051400445
      14       -0.000012005267    -0.000018523253    -0.000004981087
      15       -0.000012921307     0.000019128163    -0.000002474692
      16        0.000012670375    -0.000003896137    -0.000015516378
      17        0.000004994801     0.000026235309    -0.000003599283
      18        0.000018629264    -0.000013916686     0.000014661027
      19        0.000002234715     0.000003753671    -0.000000663811
      20        0.000006765699    -0.000011433868     0.000002496932
      21       -0.000001704840     0.000007634599    -0.000004530460

  **** Optimization is complete! (in 6 steps) ****
    Final optimized geometry and variables:
    Molecular point group: c1

    Geometry (in Angstrom), charge = 0, multiplicity = 1:

    H           -3.480208609757     0.681563033483     1.608297994505
    O           -2.831645558578     0.094264033218     1.266651232494
    C           -2.456569027116     0.488516092485    -0.029440784459
    C           -1.300041841317    -0.386849146985    -0.488126365305
    H           -3.298861607627     0.368724925995    -0.705707149650
    H           -2.170477691508     1.537558965545    -0.045069941082
    C            0.070579607562     0.104818477973    -0.034701453027
    H           -1.338316145025    -0.493433793523    -1.568388889565
    H           -1.480841102238    -1.381166171712    -0.091758619000
    C            1.200404130228    -0.846991329131    -0.421253728178
    H            0.250450333181     1.087590976953    -0.459797870479
    H            0.058575720052     0.230562571557     1.044236431175
    C            2.587029785465    -0.433584990413     0.075221041901
    H            1.226089124996    -0.955221068227    -1.503644736103
    H            0.972786753794    -1.832274860516    -0.024336367470
    C            3.133724253400     0.847563042735    -0.550146433369
    H            3.280506018827    -1.243183746478    -0.130797733334
    H            2.561962640053    -0.324740629380     1.156221446035
    H            3.162890227782     0.770831386474    -1.632506841213
    H            2.532208294805     1.711957564298    -0.296140512288
    H            4.143404065644     1.042420574399    -0.206862569032

  Mulliken Charges: (a.u.)
   Center  Symbol    Alpha    Beta     Spin     Total
       1     H     0.39527  0.39527  0.00000  0.20946
       2     O     4.20000  4.20000  0.00000 -0.40000
       3     C     2.96950  2.96950  0.00000  0.06101
       4     C     3.09089  3.09089  0.00000 -0.18178
       5     H     0.46717  0.46717  0.00000  0.06565
       6     H     0.47566  0.47566  0.00000  0.04869
       7     C     3.09383  3.09383  0.00000 -0.18765
       8     H     0.45205  0.45205  0.00000  0.09590
       9     H     0.45008  0.45008  0.00000  0.09984
      10     C     3.09562  3.09562  0.00000 -0.19123
      11     H     0.45577  0.45577  0.00000  0.08845
      12     H     0.44844  0.44844  0.00000  0.10312
      13     C     3.08984  3.08984  0.00000 -0.17968
      14     H     0.45551  0.45551  0.00000  0.08897
      15     H     0.44827  0.44827  0.00000  0.10345
      16     C     3.15255  3.15255  0.00000 -0.30511
      17     H     0.44901  0.44901  0.00000  0.10197
      18     H     0.45428  0.45428  0.00000  0.09143
      19     H     0.45544  0.45544  0.00000  0.08912
      20     H     0.45412  0.45412  0.00000  0.09177
      21     H     0.44669  0.44669  0.00000  0.10663

   Total alpha = 29.00000, Total beta = 29.00000, Total charge = -0.00000
