  ==> Input File <==

--------------------------------------------------------------------------
set {
	reference rhf
	basis 6-31G*
}

set_num_threads( 4 )
memory 2 gb

molecule MOL {
0 1

H	 -3.261111	 -0.295142	 1.469456
C	 -3.306842	 -0.277400	 0.373456
C	 -2.660244	 0.921717	 -0.272021
O	 -3.838538	 -1.161155	 -0.216482
C	 -3.660668	 2.052885	 -0.547461
H	 -1.846880	 1.254635	 0.362260
H	 -2.231787	 0.585030	 -1.215272
C	 -4.222477	 2.693898	 0.724062
H	 -3.165355	 2.811964	 -1.145581
H	 -4.477621	 1.671845	 -1.158323
C	 -5.209056	 3.826866	 0.434475
H	 -3.398809	 3.074176	 1.324734
H	 -4.714121	 1.937256	 1.332600
C	 -5.756658	 4.476304	 1.708175
H	 -4.715873	 4.574193	 -0.181969
H	 -6.038285	 3.440517	 -0.156708
C	 -6.811994	 5.562280	 1.469444
H	 -4.931862	 4.897322	 2.281019
H	 -6.194791	 3.701035	 2.333242
C	 -6.288865	 6.811781	 0.759018
H	 -7.225218	 5.856235	 2.431101
H	 -7.638779	 5.142194	 0.900344
H	 -5.449962	 7.244516	 1.297767
H	 -5.957563	 6.596276	 -0.251314
H	 -7.063807	 7.569394	 0.692068

	symmetry c1
}
set optking {
	frozen_dihedral = ("
		6 3 2 4
	")
}

ee = optimize('scf')
oeprop('DIPOLE', 'QUADRUPOLE', 'MULLIKEN_CHARGES')
f=open( 'psi4out.xyz', 'w' )
f.write( "25  " )
f.write( str(ee) + "\n" )
f.write( MOL.save_string_xyz() )
f.close()
--------------------------------------------------------------------------

    Molecular point group: c1
  Charge       = 0
  Multiplicity = 1
  Basis Set: 6-31G*
  Basis Set:
  @DF-RHF Final Energy:  -387.11987392874198
    Total Energy =                       -387.1198739287422086
    Molecular point group: c1
  Basis Set: 6-31G*
  Basis Set:
  Basis Set: 6-31G*
  Basis Set:
  @DF-RHF Final Energy:  -387.12009069149201
    Total Energy =                       -387.1200906914918960
  Basis Set: 6-31G*
  Basis Set:
  Basis Set: 6-31G*
  Basis Set:
  @DF-RHF Final Energy:  -387.11901283856622
    Total Energy =                       -387.1190128385663911
  Basis Set: 6-31G*
  Basis Set:
  Basis Set: 6-31G*
  Basis Set:
  @DF-RHF Final Energy:  -387.12026364467965
    Total Energy =                       -387.1202636446801080
  Basis Set: 6-31G*
  Basis Set:
  @DF-RHF Final Energy:  -387.12023540842915
    Total Energy =                       -387.1202354084289254
  @DF-RHF Final Energy:  -387.12025958135376
    Total Energy =                       -387.1202595813540484
  Basis Set: 6-31G*
  Basis Set:
  @DF-RHF Final Energy:  -387.12028081363206
    Total Energy =                       -387.1202808136320073
  Basis Set: 6-31G*
  Basis Set:
  Basis Set: 6-31G*
  Basis Set:
  @DF-RHF Final Energy:  -387.12027663051839
    Total Energy =                       -387.1202766305177647
  Basis Set: 6-31G*
  Basis Set:
  Basis Set: 6-31G*
  Basis Set:
  @DF-RHF Final Energy:  -387.12028174437205
    Total Energy =                       -387.1202817443718232
  Basis Set: 6-31G*
  Basis Set:
  Charge       = 0
  Multiplicity = 1
  Basis Set: 6-31G*
  Basis Set:

    Orbital Energies (a.u.)
    -----------------------

    Doubly Occupied:

       1A    -20.561584     2A    -11.325462     3A    -11.234083
       4A    -11.233512     5A    -11.226406     6A    -11.220518
       7A    -11.218890     8A    -11.218268     9A    -11.211248
      10A     -1.401391    11A     -1.103416    12A     -1.068674
      13A     -1.012849    14A     -0.942604    15A     -0.876974
      16A     -0.827015    17A     -0.782908    18A     -0.773810
      19A     -0.683422    20A     -0.655671    21A     -0.632085
      22A     -0.621106    23A     -0.597424    24A     -0.591299
      25A     -0.580053    26A     -0.551652    27A     -0.539397
      28A     -0.521107    29A     -0.509512    30A     -0.497421
      31A     -0.488744    32A     -0.479715    33A     -0.465654
      34A     -0.459981    35A     -0.441763    36A     -0.407874

  @DF-RHF Final Energy:  -387.12028137595621

   => Energetics <=

    Nuclear Repulsion Energy =            439.0847437752698852
    One-Electron Energy =               -1394.4830631451388854
    Two-Electron Energy =                 568.2780379939124487
    DFT Exchange-Correlation Energy =       0.0000000000000000
    Empirical Dispersion Energy =           0.0000000000000000
    PCM Polarization Energy =               0.0000000000000000
    EFP Energy =                            0.0000000000000000
    Total Energy =                       -387.1202813759565515
    Molecular point group: c1
  Basis Set: 6-31G*
  Basis Set:

  -Total Gradient:
     Atom            X                  Y                   Z
    ------   -----------------  -----------------  -----------------
       1        0.000007412591    -0.000054890917     0.000008068395
       2        0.000077753076    -0.000038784635    -0.000008153163
       3        0.000096471087    -0.000145653846    -0.000151404855
       4       -0.000108734729     0.000039633927     0.000041157976
       5       -0.000042615625     0.000013833133     0.000023329743
       6       -0.000082231349     0.000124233306     0.000067008803
       7        0.000005222735     0.000030857873     0.000024983635
       8        0.000063015000     0.000067315341    -0.000017710096
       9        0.000001559692     0.000019936241     0.000014929783
      10        0.000005494173    -0.000021077041     0.000015631821
      11       -0.000036427685    -0.000019858415    -0.000013879939
      12        0.000038308413     0.000013457274     0.000023381630
      13       -0.000019345094     0.000008312049    -0.000037570685
      14       -0.000018362331    -0.000019586453     0.000010702026
      15       -0.000009561167     0.000029524902    -0.000007718984
      16        0.000001374820    -0.000010412045    -0.000005492053
      17        0.000015156481     0.000016716170     0.000023541176
      18       -0.000006545226    -0.000018391225     0.000016615887
      19       -0.000016336059    -0.000003594795    -0.000012854182
      20        0.000003275572    -0.000013726482    -0.000006463615
      21        0.000012492274     0.000012288377    -0.000000140669
      22       -0.000003062442    -0.000003883189     0.000015641773
      23       -0.000007624155    -0.000000810010     0.000001228944
      24        0.000023019563    -0.000025262903    -0.000016266970
      25        0.000000290384    -0.000000176636    -0.000008566378

  **** Optimization is complete! (in 10 steps) ****
    Final optimized geometry and variables:
    Molecular point group: c1

    Geometry (in Angstrom), charge = 0, multiplicity = 1:

    H            1.408847640941    -3.029273028704     1.000754467777
    C            1.375186470851    -3.033407599300    -0.093638053853
    C            1.987673917287    -1.842953047557    -0.793307086466
    O            0.856102049184    -3.935855942237    -0.668416563785
    C            0.955937081161    -0.727257397733    -1.042440025331
    H            2.810837101559    -1.457007581805    -0.197581861039
    H            2.382483202800    -2.188431020426    -1.741937860612
    C            0.395507459783    -0.088498871449     0.231469970823
    H            1.431731104499     0.039798857981    -1.647136262802
    H            0.144005376570    -1.134095884642    -1.638591380120
    C           -0.573288475618     1.059546786263    -0.060153845081
    H            1.218214737793     0.280431561638     0.842015576667
    H           -0.117221308312    -0.839490029678     0.829469382111
    C           -1.135842888907     1.700047163168     1.211543139225
    H           -0.061345327560     1.807952807021    -0.659527067864
    H           -1.395685815528     0.688179744263    -0.669283059272
    C           -2.173620683347     2.801584852748     0.967329068320
    H           -0.316557635690     2.105052215016     1.803706845466
    H           -1.594449773475     0.922982185558     1.819583723796
    C           -1.624749368051     4.049465111529     0.273244690921
    H           -2.596548208846     3.093257181879     1.925422100828
    H           -2.997366995417     2.395903119004     0.383649231811
    H           -0.790973190021     4.470309961234     0.828968299543
    H           -1.278408810705     3.836427718521    -0.732633220061
    H           -2.390068195795     4.815662523046     0.197468058868

  Mulliken Charges: (a.u.)
   Center  Symbol    Alpha    Beta     Spin     Total
       1     H     0.42857  0.42857  0.00000  0.14286
       2     C     2.83953  2.83953  0.00000  0.32093
       3     C     3.20262  3.20262  0.00000 -0.40523
       4     O     4.23750  4.23750  0.00000 -0.47501
       5     C     3.16158  3.16158  0.00000 -0.32315
       6     H     0.41583  0.41583  0.00000  0.16834
       7     H     0.39880  0.39880  0.00000  0.20240
       8     C     3.15747  3.15747  0.00000 -0.31494
       9     H     0.41442  0.41442  0.00000  0.17117
      10     H     0.40864  0.40864  0.00000  0.18273
      11     C     3.15423  3.15423  0.00000 -0.30845
      12     H     0.42229  0.42229  0.00000  0.15542
      13     H     0.42082  0.42082  0.00000  0.15837
      14     C     3.15309  3.15309  0.00000 -0.30617
      15     H     0.42042  0.42042  0.00000  0.15917
      16     H     0.42105  0.42105  0.00000  0.15790
      17     C     3.15275  3.15275  0.00000 -0.30551
      18     H     0.42419  0.42419  0.00000  0.15162
      19     H     0.42136  0.42136  0.00000  0.15729
      20     C     3.24150  3.24150  0.00000 -0.48300
      21     H     0.42019  0.42019  0.00000  0.15961
      22     H     0.42233  0.42233  0.00000  0.15534
      23     H     0.42232  0.42232  0.00000  0.15537
      24     H     0.42014  0.42014  0.00000  0.15973
      25     H     0.41837  0.41837  0.00000  0.16325

   Total alpha = 36.00000, Total beta = 36.00000, Total charge = -0.00000
