  ==> Input File <==

--------------------------------------------------------------------------
set {
	reference rhf
	basis 6-31G*
}

set_num_threads( 4 )
memory 2 gb

molecule MOL {
0 1

H	 -2.646374	 -0.642757	 1.268656
C	 -2.083525	 -0.384536	 0.393091
O	 -0.807605	 -0.127164	 0.768327
F	 -2.118945	 -1.383102	 -0.486752
F	 -2.621877	 0.670592	 -0.209486
C	 0.084052	 0.273579	 -0.209957
C	 1.353033	 -0.546803	 -0.018071
Cl	 0.433844	 2.004619	 -0.074457
H	 -0.288836	 0.092657	 -1.202930
F	 1.744518	 -1.062489	 -1.163910
F	 1.095597	 -1.539037	 0.810563
F	 2.332875	 0.166858	 0.480499

	symmetry c1
}
set optking {
	frozen_dihedral = ("
		10 7 6 9
	")
}

ee = optimize('scf')
oeprop('DIPOLE', 'QUADRUPOLE', 'MULLIKEN_CHARGES')
f=open( 'psi4out.xyz', 'w' )
f.write( "12  " )
f.write( str(ee) + "\n" )
f.write( MOL.save_string_xyz() )
f.close()
--------------------------------------------------------------------------

    Molecular point group: c1
  Charge       = 0
  Multiplicity = 1
  Basis Set: 6-31G*
  Basis Set:
  @DF-RHF Final Energy: -1146.30340888108776
    Total Energy =                      -1146.3034088810879894
    Molecular point group: c1
  Basis Set: 6-31G*
  Basis Set:
  Basis Set: 6-31G*
  Basis Set:
  @DF-RHF Final Energy: -1146.30358485671695
    Total Energy =                      -1146.3035848567164976
  Basis Set: 6-31G*
  Basis Set:
  Basis Set: 6-31G*
  Basis Set:
  @DF-RHF Final Energy: -1146.30578536335997
    Total Energy =                      -1146.3057853633606555
  Basis Set: 6-31G*
  Basis Set:
  Basis Set: 6-31G*
  Basis Set:
  @DF-RHF Final Energy: -1146.30588790093088
    Total Energy =                      -1146.3058879009313387
  Basis Set: 6-31G*
  Basis Set:
  @DF-RHF Final Energy: -1146.30590297280742
    Total Energy =                      -1146.3059029728083260
  @DF-RHF Final Energy: -1146.30591277856092
    Total Energy =                      -1146.3059127785606961
  @DF-RHF Final Energy: -1146.30593569903067
    Total Energy =                      -1146.3059356990299875
  @DF-RHF Final Energy: -1146.30594326607479
    Total Energy =                      -1146.3059432660750190
  @DF-RHF Final Energy: -1146.30594875916859
    Total Energy =                      -1146.3059487591683592
  @DF-RHF Final Energy: -1146.30595327709761
    Total Energy =                      -1146.3059532770982969
  @DF-RHF Final Energy: -1146.30593801770988
    Total Energy =                      -1146.3059380177103321
  @DF-RHF Final Energy: -1146.30590812132527
    Total Energy =                      -1146.3059081213255013
  Basis Set: 6-31G*
  Basis Set:
  @DF-RHF Final Energy: -1146.30595894699400
    Total Energy =                      -1146.3059589469935418
  Basis Set: 6-31G*
  Basis Set:
  Basis Set: 6-31G*
  Basis Set:
  @DF-RHF Final Energy: -1146.30596650688540
    Total Energy =                      -1146.3059665068851700
  Basis Set: 6-31G*
  Basis Set:
  Basis Set: 6-31G*
  Basis Set:
  @DF-RHF Final Energy: -1146.30596969653652
    Total Energy =                      -1146.3059696965353851
  Basis Set: 6-31G*
  Basis Set:
  Charge       = 0
  Multiplicity = 1
  Basis Set: 6-31G*
  Basis Set:

    Orbital Energies (a.u.)
    -----------------------

    Doubly Occupied:

       1A   -104.843415     2A    -26.359305     3A    -26.357384
       4A    -26.356251     5A    -26.346722     6A    -26.346527
       7A    -20.648189     8A    -11.529138     9A    -11.489778
      10A    -11.401828    11A    -10.577989    12A     -8.047331
      13A     -8.043816    14A     -8.043698    15A     -1.761185
      16A     -1.718023    17A     -1.657353    18A     -1.654012
      19A     -1.638723    20A     -1.486159    21A     -1.177263
      22A     -1.046309    23A     -0.987685    24A     -0.919442
      25A     -0.857270    26A     -0.852315    27A     -0.844511
      28A     -0.826233    29A     -0.813417    30A     -0.790765
      31A     -0.727245    32A     -0.726238    33A     -0.703480
      34A     -0.701757    35A     -0.677929    36A     -0.673061
      37A     -0.657612    38A     -0.656009    39A     -0.646980
      40A     -0.630145    41A     -0.597285    42A     -0.577410
      43A     -0.522993    44A     -0.476052    45A     -0.467693

  @DF-RHF Final Energy: -1146.30596995979681

   => Energetics <=

    Nuclear Repulsion Energy =            736.4827489384372257
    One-Electron Energy =               -3055.8495885748152432
    Two-Electron Energy =                1173.0608696765812056
    DFT Exchange-Correlation Energy =       0.0000000000000000
    Empirical Dispersion Energy =           0.0000000000000000
    PCM Polarization Energy =               0.0000000000000000
    EFP Energy =                            0.0000000000000000
    Total Energy =                      -1146.3059699597970393
    Molecular point group: c1
  Basis Set: 6-31G*
  Basis Set:

  -Total Gradient:
     Atom            X                  Y                   Z
    ------   -----------------  -----------------  -----------------
       1        0.000002362197     0.000004949346    -0.000003729946
       2       -0.000027970766     0.000065279250     0.000038588800
       3        0.000078121153    -0.000179714079    -0.000192363927
       4        0.000000979356     0.000033541952    -0.000011814264
       5        0.000053056149    -0.000004036263    -0.000005694418
       6       -0.004167332732    -0.005118324619     0.002214227526
       7        0.003459948777     0.005038246541    -0.000837013726
       8        0.000094116681     0.000009486849    -0.000044713055
       9        0.002757974316     0.003451926188    -0.001531883858
      10       -0.002295309535    -0.003200115295     0.000476542371
      11        0.000014177569    -0.000045174151    -0.000072316591
      12        0.000029876833    -0.000056065682    -0.000029828911

  **** Optimization is complete! (in 16 steps) ****
    Final optimized geometry and variables:
    Molecular point group: c1

    Geometry (in Angstrom), charge = 0, multiplicity = 1:

    H           -2.679874870916    -0.585854778537     1.254033806316
    C           -2.079779477833    -0.380739497676     0.389420030276
    O           -0.858587748111     0.028848256637     0.804982522802
    F           -1.973147063851    -1.471428984492    -0.367317904572
    F           -2.658631902647     0.548620132041    -0.365366500207
    C            0.067405483742     0.351266834055    -0.166339608251
    C            1.320244216183    -0.548270863663    -0.018415233637
    CL           0.481590939629     2.072117915080    -0.047266374118
    H           -0.306787494582     0.215499764084    -1.164452448145
    F            1.641255652536    -1.011854145092    -1.214458310574
    F            1.057287289251    -1.584381410447     0.745416267821
    F            2.365269466467     0.065341727894     0.476979199955

  Mulliken Charges: (a.u.)
   Center  Symbol    Alpha    Beta     Spin     Total
       1     H     0.40071  0.40071  0.00000  0.19859
       2     C     2.56638  2.56638  0.00000  0.86725
       3     O     4.29122  4.29122  0.00000 -0.58245
       4     F     4.68720  4.68720  0.00000 -0.37441
       5     F     4.68549  4.68549  0.00000 -0.37098
       6     C     3.07171  3.07171  0.00000 -0.14342
       7     C     2.42485  2.42485  0.00000  1.15029
       8    CL     8.49583  8.49583  0.00000  0.00833
       9     H     0.36117  0.36117  0.00000  0.27765
      10     F     4.67998  4.67998  0.00000 -0.35996
      11     F     4.67058  4.67058  0.00000 -0.34116
      12     F     4.66486  4.66486  0.00000 -0.32973

   Total alpha = 45.00000, Total beta = 45.00000, Total charge = -0.00000
