                              Psi4 1.0.54 Driver

  ==> Input File <==

--------------------------------------------------------------------------
set {
	reference rhf
	basis cc-pvtz
}

set_num_threads( 4 )
memory 2 gb

molecule MOL {
0 1

O	 -0.408517	 0.197928	 0.776127
C	 0.485107	 0.171416	 -0.000134
C	 1.606966	 -0.836201	 0.000174
O	 0.617633	 1.039365	 -0.987902
C	 2.988788	 -0.202529	 -0.000115
H	 1.465110	 -1.474645	 -0.864821
H	 1.465209	 -1.474077	 0.865596
H	 3.131767	 0.419673	 -0.873407
H	 3.750876	 -0.972315	 0.000098
H	 3.131883	 0.420264	 0.872742
C	 -0.369182	 2.053262	 -1.116348
C	 0.001481	 2.910502	 -2.303881
H	 -0.401665	 2.631852	 -0.203920
H	 -1.336688	 1.589671	 -1.248027
H	 0.972169	 3.368504	 -2.161158
H	 -0.733276	 3.696814	 -2.430678
H	 0.031762	 2.320428	 -3.211222

	symmetry c1
}
set optking {
	frozen_dihedral = ("
		4 2 3 6
	")
}

ee,wfn = optimize('scf', return_wfn=True)
oeprop( wfn, 'DIPOLE', 'QUADRUPOLE', 'MULLIKEN_CHARGES')
f=open( 'psi4out.xyz', 'w' )
f.write( "17  " )
f.write( str(ee) + "\n" )
f.write( MOL.save_string_xyz() )
f.close()
--------------------------------------------------------------------------

    Molecular point group: c1
  Charge       = 0
  Multiplicity = 1
  Basis Set: CC-PVTZ
  Basis Set:
  @DF-RHF Final Energy:  -345.03866168388760
    Total Energy =                       -345.0386616838877671
    Molecular point group: c1
  Basis Set: CC-PVTZ
  Basis Set:
  Basis Set: CC-PVTZ
  Basis Set:
  @DF-RHF Final Energy:  -345.03882377285464
    Total Energy =                       -345.0388237728548120
  Basis Set: CC-PVTZ
  Basis Set:
  Basis Set: CC-PVTZ
  Basis Set:
  @DF-RHF Final Energy:  -345.03830715615936
    Total Energy =                       -345.0383071561597035
  Basis Set: CC-PVTZ
  Basis Set:
  Basis Set: CC-PVTZ
  Basis Set:
  @DF-RHF Final Energy:  -345.03893295437393
    Total Energy =                       -345.0389329543742178
  Basis Set: CC-PVTZ
  Basis Set:
  Basis Set: CC-PVTZ
  Basis Set:
  @DF-RHF Final Energy:  -345.03893950834447
    Total Energy =                       -345.0389395083444697
  Basis Set: CC-PVTZ
  Basis Set:
  Charge       = 0
  Multiplicity = 1
  Basis Set: CC-PVTZ
  Basis Set:

    Orbital Energies (a.u.)
    -----------------------

    Doubly Occupied:

       1A    -20.594412     2A    -20.531350     3A    -11.362905
       4A    -11.282961     5A    -11.235320     6A    -11.222254
       7A    -11.220874     8A     -1.470534     9A     -1.363709
      10A     -1.073764    11A     -1.031174    12A     -0.907819
      13A     -0.858793    14A     -0.779755    15A     -0.694684
      16A     -0.681261    17A     -0.674634    18A     -0.624018
      19A     -0.590007    20A     -0.574992    21A     -0.553594
      22A     -0.545850    23A     -0.525667    24A     -0.511263
      25A     -0.505468    26A     -0.495775    27A     -0.455760
      28A     -0.434386

  @DF-RHF Final Energy:  -345.03893971191462

   => Energetics <=

    Nuclear Repulsion Energy =            317.7269112370482844
    One-Electron Energy =               -1099.9257335585966757
    Two-Electron Energy =                 437.1598826096338257
    DFT Exchange-Correlation Energy =       0.0000000000000000
    Empirical Dispersion Energy =           0.0000000000000000
    PCM Polarization Energy =               0.0000000000000000
    EFP Energy =                            0.0000000000000000
    Total Energy =                       -345.0389397119145656
    Molecular point group: c1
  Basis Set: CC-PVTZ
  Basis Set:

  -Total Gradient:
     Atom            X                  Y                   Z
    ------   -----------------  -----------------  -----------------
       1       -0.000009116963    -0.000037282114     0.000040296160
       2       -0.000344992878    -0.000369832503    -0.000335137561
       3        0.000393480808     0.000462362565    -0.000224037322
       4        0.000231071503     0.000227756199     0.000259784308
       5        0.000008133420    -0.000004942477    -0.000014180079
       6       -0.000283389368    -0.000306711832     0.000273722904
       7       -0.000000734760     0.000011321224    -0.000009886425
       8        0.000000412768    -0.000009186043     0.000014046734
       9        0.000000789308     0.000015611700    -0.000001472833
      10       -0.000002874553    -0.000006508699    -0.000002877602
      11        0.000006018026     0.000038678450     0.000020404627
      12       -0.000000069539    -0.000010483588    -0.000008184084
      13       -0.000006080070    -0.000004780502    -0.000008877919
      14        0.000005788550    -0.000005129851    -0.000000614187
      15       -0.000000265955    -0.000000231730     0.000001428009
      16        0.000000272499    -0.000003982694     0.000001611580
      17        0.000001557205     0.000003341896    -0.000006026305

  **** Optimization is complete! (in 6 steps) ****
    Final optimized geometry and variables:
    Molecular point group: c1

    Geometry (in Angstrom), charge = 0, multiplicity = 1:

    O           -1.125859490965    -0.600680176788     1.273570786535
    C           -0.215037753237    -0.605964547272     0.516327692413
    C            0.899981876324    -1.621664033469     0.533986782432
    O           -0.074170623355     0.278469019945    -0.455147486484
    C            2.299764551836    -1.010605619942     0.532900477568
    H            0.771108401202    -2.252231434107    -0.339837162520
    H            0.745120614305    -2.237895880557     1.407127106361
    H            2.474533802874    -0.428507374488    -0.360830227155
    H            3.044422154755    -1.795206963702     0.579726964310
    H            2.443713581457    -0.364910220860     1.391454902909
    C           -1.073115574559     1.279821885020    -0.590032831761
    C           -0.691292341925     2.159527304973    -1.757409716289
    H           -1.132978848417     1.844106633173     0.329771277314
    H           -2.030365275182     0.803531226438    -0.748120306855
    H            0.268356249324     2.631499533926    -1.587770366664
    H           -1.436070585174     2.935554657022    -1.888826049779
    H           -0.632403413800     1.583142981683    -2.672140768280

  Mulliken Charges: (a.u.)
   Center  Symbol    Alpha    Beta     Spin     Total
       1     O     4.19909  4.19909  0.00000 -0.39817
       2     C     2.80904  2.80904  0.00000  0.38193
       3     C     3.08504  3.08504  0.00000 -0.17008
       4     O     4.15331  4.15331  0.00000 -0.30661
       5     C     3.14816  3.14816  0.00000 -0.29632
       6     H     0.44815  0.44815  0.00000  0.10370
       7     H     0.43588  0.43588  0.00000  0.12823
       8     H     0.44588  0.44588  0.00000  0.10825
       9     H     0.44814  0.44814  0.00000  0.10373
      10     H     0.45104  0.45104  0.00000  0.09792
      11     C     2.97810  2.97810  0.00000  0.04380
      12     C     3.13393  3.13393  0.00000 -0.26787
      13     H     0.45427  0.45427  0.00000  0.09146
      14     H     0.45328  0.45328  0.00000  0.09343
      15     H     0.45138  0.45138  0.00000  0.09725
      16     H     0.45381  0.45381  0.00000  0.09238
      17     H     0.45150  0.45150  0.00000  0.09700

   Total alpha = 28.00000, Total beta = 28.00000, Total charge = -0.00000

*** Psi4 exiting successfully. Buy a developer a beer!
