  ==> Input File <==

--------------------------------------------------------------------------
set {
	reference rhf
	basis cc-pvtz
}

set_num_threads( 4 )
memory 2 gb

molecule MOL {
0 1

H	 -2.826407	 -0.114921	 0.760965
C	 -2.602817	 0.656199	 0.027299
O	 -1.239954	 0.738500	 -0.224434
H	 -3.096016	 0.406442	 -0.900745
H	 -3.000345	 1.602133	 0.390707
C	 -0.470272	 1.065462	 0.885667
C	 0.992832	 1.024028	 0.522410
H	 -0.718841	 2.067420	 1.235327
H	 -0.656021	 0.369938	 1.701249
O	 1.401606	 -0.295166	 0.366636
H	 1.149409	 1.586485	 -0.395500
H	 1.566734	 1.505954	 1.313837
C	 2.714315	 -0.441627	 -0.061017
H	 2.765292	 -0.641548	 -1.128869
H	 3.305661	 0.447341	 0.150952
H	 3.143725	 -1.278506	 0.470147

	symmetry c1
}
set optking {
	frozen_dihedral = ("
		7 10 13 14
	")
}

ee = optimize('scf')
oeprop('DIPOLE', 'QUADRUPOLE', 'MULLIKEN_CHARGES')
f=open( 'psi4out.xyz', 'w' )
f.write( "16  " )
f.write( str(ee) + "\n" )
f.write( MOL.save_string_xyz() )
f.close()
--------------------------------------------------------------------------

    Molecular point group: c1
  Charge       = 0
  Multiplicity = 1
  Basis Set: CC-PVTZ
  Basis Set:
  @DF-RHF Final Energy:  -307.09509957787043
    Total Energy =                       -307.0950995778704282
    Molecular point group: c1
  Basis Set: CC-PVTZ
  Basis Set:
  Basis Set: CC-PVTZ
  Basis Set:
  @DF-RHF Final Energy:  -307.09525848674099
    Total Energy =                       -307.0952584867409314
  Basis Set: CC-PVTZ
  Basis Set:
  Charge       = 0
  Multiplicity = 1
  Basis Set: CC-PVTZ
  Basis Set:

    Orbital Energies (a.u.)
    -----------------------

    Doubly Occupied:

       1A    -20.547542     2A    -20.545119     3A    -11.267695
       4A    -11.266643     5A    -11.261396     6A    -11.261151
       7A     -1.389991     8A     -1.372282     9A     -1.031868
      10A     -0.937235    11A     -0.892169    12A     -0.823957
      13A     -0.685351    14A     -0.681503    15A     -0.658904
      16A     -0.636230    17A     -0.630928    18A     -0.597801
      19A     -0.552989    20A     -0.538460    21A     -0.508987
      22A     -0.479355    23A     -0.464259    24A     -0.421133
      25A     -0.411177

  @DF-RHF Final Energy:  -307.09528959217891

   => Energetics <=

    Nuclear Repulsion Energy =            258.6704706267031497
    One-Electron Energy =                -931.8032634893345403
    Two-Electron Energy =                 366.0375032704527030
    DFT Exchange-Correlation Energy =       0.0000000000000000
    Empirical Dispersion Energy =           0.0000000000000000
    PCM Polarization Energy =               0.0000000000000000
    EFP Energy =                            0.0000000000000000
    Total Energy =                       -307.0952895921786876
    Molecular point group: c1
  Basis Set: CC-PVTZ
  Basis Set:

  -Total Gradient:
     Atom            X                  Y                   Z
    ------   -----------------  -----------------  -----------------
       1        0.000002070497    -0.000000285602    -0.000000558030
       2       -0.000016091172    -0.000000941676    -0.000008263219
       3       -0.000038232486     0.000006797863    -0.000011384210
       4        0.000000417381     0.000001129825     0.000001958297
       5       -0.000000424145     0.000001030330    -0.000000215471
       6        0.000105209235    -0.000149951207    -0.000056447015
       7        0.000601526456     0.000222298820     0.002094591194
       8        0.000085066677    -0.000025976065    -0.000029027979
       9       -0.000031163375    -0.000010048606     0.000042857623
      10       -0.000959098319    -0.000663715106    -0.002777919567
      11       -0.000022396807    -0.000022244556    -0.000003483736
      12       -0.000015097773     0.000002594256     0.000007122341
      13        0.000407677679     0.003194409415     0.000347606902
      14       -0.000138629574    -0.002557275492     0.000427751066
      15        0.000023220172    -0.000024572171    -0.000030071548
      16       -0.000004054448     0.000026749970    -0.000004516651

  **** Optimization is complete! (in 3 steps) ****
    Final optimized geometry and variables:
    Molecular point group: c1

    Geometry (in Angstrom), charge = 0, multiplicity = 1:

    H           -2.952459101885    -0.582611349849     0.508717803816
    C           -2.734488830763     0.192840208257    -0.222050322964
    O           -1.372304500565     0.285824487240    -0.473605086538
    H           -3.226047188940    -0.056885203913    -1.150972203679
    H           -3.138709133576     1.134553439064     0.144983015967
    C           -0.604729326849     0.614154526192     0.637582571577
    C            0.858541527057     0.584236693939     0.274944105184
    H           -0.859408455644     1.613614663485     0.990121950402
    H           -0.786077408763    -0.085029845071     1.451045246042
    O            1.272789558619    -0.734191175758     0.117604835179
    H            1.008589987413     1.152327026120    -0.640305564402
    H            1.427808114931     1.066126454202     1.068798906545
    C            2.587412834932    -0.905736143098    -0.309408014818
    H            2.623499639121    -1.111011717031    -1.375063657086
    H            3.203538184584    -0.038148190832    -0.094174994240
    H            3.007750007792    -1.757739746380     0.209516399713

  Mulliken Charges: (a.u.)
   Center  Symbol    Alpha    Beta     Spin     Total
       1     H     0.47016  0.47016  0.00000  0.05969
       2     C     3.03202  3.03202  0.00000 -0.06404
       3     O     4.17046  4.17046  0.00000 -0.34092
       4     H     0.44642  0.44642  0.00000  0.10717
       5     H     0.47371  0.47371  0.00000  0.05257
       6     C     2.96249  2.96249  0.00000  0.07502
       7     C     2.95921  2.95921  0.00000  0.08159
       8     H     0.47616  0.47616  0.00000  0.04768
       9     H     0.47109  0.47109  0.00000  0.05782
      10     O     4.17403  4.17403  0.00000 -0.34805
      11     H     0.47114  0.47114  0.00000  0.05772
      12     H     0.47563  0.47563  0.00000  0.04873
      13     C     3.02888  3.02888  0.00000 -0.05776
      14     H     0.46075  0.46075  0.00000  0.07850
      15     H     0.47412  0.47412  0.00000  0.05176
      16     H     0.45374  0.45374  0.00000  0.09251

   Total alpha = 25.00000, Total beta = 25.00000, Total charge = -0.00000
