  ==> Input File <==

--------------------------------------------------------------------------
set {
	reference rhf
	basis cc-pvtz
}

set_num_threads( 4 )
memory 2 gb

molecule MOL {
0 1

H	 1.651322	 -0.822465	 0.000000
O	 0.729993	 -1.034364	 0.000000
C	 0.037305	 0.100061	 0.000000
C	 0.653142	 1.134724	 -0.893474
O	 -0.945089	 0.241773	 0.641572
H	 1.664340	 1.339094	 -0.566091
H	 0.062235	 2.035106	 -0.864021
H	 0.705389	 0.753552	 -1.905129

	symmetry c1
}
set optking {
	frozen_dihedral = ("
		4 3 2 1
	")
}

ee = optimize('scf')
oeprop('DIPOLE', 'QUADRUPOLE', 'MULLIKEN_CHARGES')
f=open( 'psi4out.xyz', 'w' )
f.write( "8  " )
f.write( str(ee) + "\n" )
f.write( MOL.save_string_xyz() )
f.close()
--------------------------------------------------------------------------

    Molecular point group: c1
  Charge       = 0
  Multiplicity = 1
  Basis Set: CC-PVTZ
  Basis Set:
  @DF-RHF Final Energy:  -227.88886820085020
    Total Energy =                       -227.8888682008501974
    Molecular point group: c1
  Basis Set: CC-PVTZ
  Basis Set:
  Basis Set: CC-PVTZ
  Basis Set:
  @DF-RHF Final Energy:  -227.88835002015512
    Total Energy =                       -227.8883500201550873
  Basis Set: CC-PVTZ
  Basis Set:
  Basis Set: CC-PVTZ
  Basis Set:
  @DF-RHF Final Energy:  -227.88992378533499
    Total Energy =                       -227.8899237853349291
  Basis Set: CC-PVTZ
  Basis Set:
  Basis Set: CC-PVTZ
  Basis Set:
  @DF-RHF Final Energy:  -227.89082558555035
    Total Energy =                       -227.8908255855504876
  Basis Set: CC-PVTZ
  Basis Set:
  @DF-RHF Final Energy:  -227.89084818739823
    Total Energy =                       -227.8908481873982339
  Basis Set: CC-PVTZ
  Basis Set:
  @DF-RHF Final Energy:  -227.89086686080799
    Total Energy =                       -227.8908668608078472
  Basis Set: CC-PVTZ
  Basis Set:
  Basis Set: CC-PVTZ
  Basis Set:
  @DF-RHF Final Energy:  -227.89050636819138
    Total Energy =                       -227.8905063681913816
  Basis Set: CC-PVTZ
  Basis Set:
  Basis Set: CC-PVTZ
  Basis Set:
  @DF-RHF Final Energy:  -227.89087228843522
    Total Energy =                       -227.8908722884353040
  Basis Set: CC-PVTZ
  Basis Set:
  Charge       = 0
  Multiplicity = 1
  Basis Set: CC-PVTZ
  Basis Set:

    Orbital Energies (a.u.)
    -----------------------

    Doubly Occupied:

       1A    -20.601746     2A    -20.542954     3A    -11.378086
       4A    -11.248103     5A     -1.471035     6A     -1.376062
       7A     -1.026178     8A     -0.839478     9A     -0.719919
      10A     -0.671817    11A     -0.661988    12A     -0.602041
      13A     -0.576244    14A     -0.542360    15A     -0.488514
      16A     -0.451101

  @DF-RHF Final Energy:  -227.89087364212887

   => Energetics <=

    Nuclear Repulsion Energy =            122.4176569629988478
    One-Electron Energy =                -554.2218099511609353
    Two-Electron Energy =                 203.9132793460333062
    DFT Exchange-Correlation Energy =       0.0000000000000000
    Empirical Dispersion Energy =           0.0000000000000000
    PCM Polarization Energy =               0.0000000000000000
    EFP Energy =                            0.0000000000000000
    Total Energy =                       -227.8908736421287529
    Molecular point group: c1
  Basis Set: CC-PVTZ
  Basis Set:

  -Total Gradient:
     Atom            X                  Y                   Z
    ------   -----------------  -----------------  -----------------
       1       -0.000147832000     0.000203083245     0.006378258920
       2       -0.000823495117    -0.001034298915    -0.009555165139
       3        0.003070427504     0.002346450866     0.006371301748
       4       -0.002184228267    -0.001435883425    -0.003118613971
       5        0.000080399939    -0.000064542346    -0.000049312513
       6       -0.000004658840    -0.000008062228    -0.000001019543
       7        0.000007814514     0.000003959657    -0.000010372005
       8        0.000001572266    -0.000010706855    -0.000015077498

  **** Optimization is complete! (in 9 steps) ****
    Final optimized geometry and variables:
    Molecular point group: c1

    Geometry (in Angstrom), charge = 0, multiplicity = 1:

    H            1.527331982165    -0.991322805445     0.141242614206
    O            0.596421767389    -1.132505747062     0.125793551945
    C           -0.090039394672     0.020794253664     0.076763306464
    C            0.502912605867     1.075393381093    -0.820912374217
    O           -1.124862459634     0.122445105126     0.622134050993
    H            1.539109992295     1.273106066750    -0.569594306277
    H           -0.069062814932     1.984929725008    -0.740594661706
    H            0.473347512581     0.711564011909    -1.840751997678

  Mulliken Charges: (a.u.)
   Center  Symbol    Alpha    Beta     Spin     Total
       1     H     0.38900  0.38900  0.00000  0.22200
       2     O     4.15190  4.15190  0.00000 -0.30379
       3     C     2.81058  2.81058  0.00000  0.37884
       4     C     3.14439  3.14439  0.00000 -0.28877
       5     O     4.16958  4.16958  0.00000 -0.33916
       6     H     0.45795  0.45795  0.00000  0.08409
       7     H     0.43537  0.43537  0.00000  0.12926
       8     H     0.44123  0.44123  0.00000  0.11753

   Total alpha = 16.00000, Total beta = 16.00000, Total charge =  0.00000
