  ==> Input File <==

--------------------------------------------------------------------------
set {
	reference rhf
	basis cc-pvtz
}

set_num_threads( 4 )
memory 2 gb

molecule MOL {
0 1

H	 2.472312	 -1.816708	 1.542115
C	 1.917146	 -1.448241	 0.686073
C	 0.803423	 -0.515885	 1.143059
H	 1.502283	 -2.295655	 0.154378
H	 2.621321	 -0.954727	 0.027807
N	 0.000297	 0.000045	 0.046090
H	 0.156151	 -1.069312	 1.809297
H	 1.222898	 0.300214	 1.737999
C	 -1.359159	 0.315706	 0.454404
C	 0.644798	 1.108229	 -0.640255
C	 -2.416729	 -0.286720	 -0.460525
H	 -1.478729	 1.390261	 0.442008
H	 -1.539692	 0.003361	 1.486761
C	 0.233389	 1.231293	 -2.101089
H	 1.714688	 0.955945	 -0.605528
H	 0.456802	 2.052040	 -0.120841
H	 -2.285276	 0.073129	 -1.473515
H	 -2.371743	 -1.368476	 -0.483209
H	 -3.408658	 -0.007405	 -0.121593
H	 0.480351	 0.323730	 -2.637976
H	 -0.829227	 1.406480	 -2.214813
H	 0.753678	 2.060585	 -2.568408

	symmetry c1
}
set optking {
	frozen_dihedral = ("
		3 6 9 11
	")
}

ee = optimize('scf')
oeprop('DIPOLE', 'QUADRUPOLE', 'MULLIKEN_CHARGES')
f=open( 'psi4out.xyz', 'w' )
f.write( "22  " )
f.write( str(ee) + "\n" )
f.write( MOL.save_string_xyz() )
f.close()
--------------------------------------------------------------------------

    Molecular point group: c1
  Charge       = 0
  Multiplicity = 1
  Basis Set: CC-PVTZ
  Basis Set:
  @DF-RHF Final Energy:  -290.47108750061597
    Total Energy =                       -290.4710875006160222
    Molecular point group: c1
  Basis Set: CC-PVTZ
  Basis Set:
  Basis Set: CC-PVTZ
  Basis Set:
  @DF-RHF Final Energy:  -290.47247345104125
    Total Energy =                       -290.4724734510409689
  Basis Set: CC-PVTZ
  Basis Set:
  Basis Set: CC-PVTZ
  Basis Set:
  @DF-RHF Final Energy:  -290.47285277998748
    Total Energy =                       -290.4728527799876474
  Basis Set: CC-PVTZ
  Basis Set:
  Basis Set: CC-PVTZ
  Basis Set:
  @DF-RHF Final Energy:  -290.47313340293528
    Total Energy =                       -290.4731334029351046
  Basis Set: CC-PVTZ
  Basis Set:
  Basis Set: CC-PVTZ
  Basis Set:
  @DF-RHF Final Energy:  -290.47317705403293
    Total Energy =                       -290.4731770540328171
  Basis Set: CC-PVTZ
  Basis Set:
  Basis Set: CC-PVTZ
  Basis Set:
  @DF-RHF Final Energy:  -290.47319682243176
    Total Energy =                       -290.4731968224322145
  Basis Set: CC-PVTZ
  Basis Set:
  Basis Set: CC-PVTZ
  Basis Set:
  @DF-RHF Final Energy:  -290.47320460194828
    Total Energy =                       -290.4732046019483391
  Basis Set: CC-PVTZ
  Basis Set:
  Charge       = 0
  Multiplicity = 1
  Basis Set: CC-PVTZ
  Basis Set:

    Orbital Energies (a.u.)
    -----------------------

    Doubly Occupied:

       1A    -15.533701     2A    -11.239698     3A    -11.238213
       4A    -11.238184     5A    -11.205177     6A    -11.204288
       7A    -11.200769     8A     -1.224101     9A     -1.027149
      10A     -1.020629    11A     -0.959218    12A     -0.854234
      13A     -0.836236    14A     -0.774044    15A     -0.659883
      16A     -0.636842    17A     -0.617457    18A     -0.600088
      19A     -0.571487    20A     -0.558051    21A     -0.540763
      22A     -0.524698    23A     -0.518306    24A     -0.498380
      25A     -0.490744    26A     -0.480045    27A     -0.464924
      28A     -0.459463    29A     -0.343572

  @DF-RHF Final Energy:  -290.47320523749806

   => Energetics <=

    Nuclear Repulsion Energy =            338.2572888189146170
    One-Electron Energy =               -1062.4202931020859069
    Two-Electron Energy =                 433.6897990456730554
    DFT Exchange-Correlation Energy =       0.0000000000000000
    Empirical Dispersion Energy =           0.0000000000000000
    PCM Polarization Energy =               0.0000000000000000
    EFP Energy =                            0.0000000000000000
    Total Energy =                       -290.4732052374982345
    Molecular point group: c1
  Basis Set: CC-PVTZ
  Basis Set:

  -Total Gradient:
     Atom            X                  Y                   Z
    ------   -----------------  -----------------  -----------------
       1       -0.000013893412     0.000012876651     0.000002077357
       2       -0.000005030933    -0.000010731560    -0.000040399136
       3        0.000433985673     0.001427740732     0.000239285139
       4        0.000009379901    -0.000008106264    -0.000004117108
       5        0.000004861182    -0.000004214306     0.000001895471
       6       -0.000574417778    -0.001467059522    -0.000702987236
       7       -0.000024662412    -0.000002343315    -0.000002791829
       8       -0.000008790394     0.000023866470     0.000007018239
       9        0.000024781844    -0.001098258526     0.001383864664
      10        0.000012615703     0.000012222479     0.000008940913
      11        0.000106896550     0.001141139545    -0.000871892372
      12        0.000016592948     0.000011020556     0.000008460555
      13       -0.000002798873    -0.000002479158    -0.000015068801
      14       -0.000008651858    -0.000028197224     0.000000036955
      15        0.000000783300     0.000013905422    -0.000016231625
      16        0.000013858815    -0.000002067471     0.000006717393
      17        0.000009563582     0.000005342388     0.000002114703
      18       -0.000008969714    -0.000023456896     0.000000659319
      19       -0.000000559841    -0.000001498524     0.000004735201
      20        0.000001547069    -0.000007308346    -0.000018696599
      21        0.000002121151     0.000006285046     0.000000629757
      22        0.000010787500     0.000001321826     0.000005749040

  **** Optimization is complete! (in 8 steps) ****
    Final optimized geometry and variables:
    Molecular point group: c1

    Geometry (in Angstrom), charge = 0, multiplicity = 1:

    H            2.458539979891    -1.852909546336     1.812782479049
    C            2.013475458579    -1.430155523939     0.918613457780
    C            0.807166910713    -0.581469570150     1.301499912477
    H            1.709700166912    -2.242790772824     0.269968058116
    H            2.785119207075    -0.864358959100     0.413422496629
    N            0.031757396813    -0.107282040929     0.164945374190
    H            0.156156707644    -1.199208375565     1.905768935967
    H            1.130644778496     0.246654699601     1.940332272367
    C           -1.330008957046     0.274680853118     0.532642427954
    C            0.736465384720     0.928700024550    -0.572218275218
    C           -2.396878329406    -0.348045450158    -0.360850439535
    H           -1.437911931432     1.358677075170     0.528127621809
    H           -1.522083792623    -0.033961982359     1.552292722903
    C            0.145872069784     1.252166082234    -1.937438600943
    H            1.753236993729     0.598892348894    -0.726118417958
    H            0.795711646108     1.849382296745     0.017823361686
    H           -2.279351559091    -0.058200579290    -1.395378579144
    H           -2.342172876839    -1.429220947331    -0.312823942573
    H           -3.386369119885    -0.042550307722    -0.034868365877
    H            0.068137545868     0.358128146539    -2.544019924515
    H           -0.835651910059     1.702576021777    -1.866538611456
    H            0.789707831381     1.957921079953    -2.450531765209

  Mulliken Charges: (a.u.)
   Center  Symbol    Alpha    Beta     Spin     Total
       1     H     0.45115  0.45115  0.00000  0.09769
       2     C     3.14640  3.14640  0.00000 -0.29280
       3     C     3.03664  3.03664  0.00000 -0.07328
       4     H     0.45055  0.45055  0.00000  0.09889
       5     H     0.45534  0.45534  0.00000  0.08932
       6     N     3.61847  3.61847  0.00000 -0.23694
       7     H     0.45371  0.45371  0.00000  0.09259
       8     H     0.46847  0.46847  0.00000  0.06307
       9     C     3.05196  3.05196  0.00000 -0.10391
      10     C     3.03780  3.03780  0.00000 -0.07560
      11     C     3.13216  3.13216  0.00000 -0.26433
      12     H     0.45869  0.45869  0.00000  0.08262
      13     H     0.45079  0.45079  0.00000  0.09841
      14     C     3.15627  3.15627  0.00000 -0.31255
      15     H     0.45237  0.45237  0.00000  0.09526
      16     H     0.46787  0.46787  0.00000  0.06426
      17     H     0.45291  0.45291  0.00000  0.09419
      18     H     0.45400  0.45400  0.00000  0.09200
      19     H     0.45660  0.45660  0.00000  0.08680
      20     H     0.44902  0.44902  0.00000  0.10196
      21     H     0.45233  0.45233  0.00000  0.09535
      22     H     0.44649  0.44649  0.00000  0.10701

   Total alpha = 29.00000, Total beta = 29.00000, Total charge = -0.00000
