                              Psi4 1.0.54 Driver

  ==> Input File <==

--------------------------------------------------------------------------
set {
	reference rhf
	basis cc-pvtz
}

set_num_threads( 4 )
memory 2 gb

molecule MOL {
0 1

O	 -3.688628	 -0.465058	 0.004810
C	 -2.664672	 0.129869	 0.003507
C	 -2.571254	 1.631674	 0.015294
O	 -1.481217	 -0.452708	 0.001092
H	 -3.085342	 2.001549	 0.892213
H	 -1.548067	 1.971858	 0.016840
H	 -3.087131	 2.015076	 -0.854734
C	 -0.332055	 0.384012	 -0.000250
C	 0.892252	 -0.506059	 -0.000295
H	 -0.360822	 1.020205	 -0.874146
H	 -0.359817	 1.021310	 0.872861
C	 2.188199	 0.299473	 -0.001416
H	 0.857046	 -1.152781	 -0.871031
H	 0.857910	 -1.151798	 0.871202
C	 3.437151	 -0.577593	 -0.000991
H	 2.209565	 0.950707	 -0.871712
H	 2.210062	 0.952234	 0.867721
C	 4.732399	 0.226982	 -0.000914
H	 3.417321	 -1.229122	 -0.869998
H	 3.416993	 -1.228707	 0.868337
H	 4.797903	 0.863451	 -0.876963
H	 5.598517	 -0.424436	 -0.000420
H	 4.797415	 0.864118	 0.874691

	symmetry c1
}
set optking {
	frozen_dihedral = ("
		1 2 4 8
	")
}

ee,wfn = optimize('scf', return_wfn=True)
oeprop( wfn, 'DIPOLE', 'QUADRUPOLE', 'MULLIKEN_CHARGES')
f=open( 'psi4out.xyz', 'w' )
f.write( "23  " )
f.write( str(ee) + "\n" )
f.write( MOL.save_string_xyz() )
f.close()
--------------------------------------------------------------------------

    Molecular point group: c1
  Charge       = 0
  Multiplicity = 1
  Basis Set: CC-PVTZ
  Basis Set:
  @DF-RHF Final Energy:  -423.10370534687729
    Total Energy =                       -423.1037053468770637
    Molecular point group: c1
  Basis Set: CC-PVTZ
  Basis Set:
  Basis Set: CC-PVTZ
  Basis Set:
  @DF-RHF Final Energy:  -423.04544229821812
    Total Energy =                       -423.0454422982180631
  Basis Set: CC-PVTZ
  Basis Set:
  Basis Set: CC-PVTZ
  Basis Set:
  @DF-RHF Final Energy:  -423.11006172456780
    Total Energy =                       -423.1100617245682542
  Basis Set: CC-PVTZ
  Basis Set:
  Basis Set: CC-PVTZ
  Basis Set:
  @DF-RHF Final Energy:  -423.11761592889400
    Total Energy =                       -423.1176159288938834
  Basis Set: CC-PVTZ
  Basis Set:
  @DF-RHF Final Energy:  -423.11970721550978
    Total Energy =                       -423.1197072155102887
  @DF-RHF Final Energy:  -423.11980636551152
    Total Energy =                       -423.1198063655114083
  @DF-RHF Final Energy:  -423.11954816104839
    Total Energy =                       -423.1195481610484421
  Basis Set: CC-PVTZ
  Basis Set:
  @DF-RHF Final Energy:  -423.11990445952375
    Total Energy =                       -423.1199044595239229
  Basis Set: CC-PVTZ
  Basis Set:
  Basis Set: CC-PVTZ
  Basis Set:
  @DF-RHF Final Energy:  -423.11989956659795
    Total Energy =                       -423.1198995665984057
  Basis Set: CC-PVTZ
  Basis Set:
  Basis Set: CC-PVTZ
  Basis Set:
  @DF-RHF Final Energy:  -423.11991257434789
    Total Energy =                       -423.1199125743477225
  Basis Set: CC-PVTZ
  Basis Set:
  Charge       = 0
  Multiplicity = 1
  Basis Set: CC-PVTZ
  Basis Set:

    Orbital Energies (a.u.)
    -----------------------

    Doubly Occupied:

       1A    -20.593476     2A    -20.522761     3A    -11.368226
       4A    -11.294770     5A    -11.238532     6A    -11.227626
       7A    -11.227006     8A    -11.223231     9A    -11.214420
      10A     -1.464851    11A     -1.365031    12A     -1.099374
      13A     -1.037687    14A     -1.014208    15A     -0.945453
      16A     -0.849845    17A     -0.808483    18A     -0.780829
      19A     -0.700244    20A     -0.698526    21A     -0.662436
      22A     -0.651264    23A     -0.612796    24A     -0.598020
      25A     -0.584170    26A     -0.571505    27A     -0.570170
      28A     -0.535251    29A     -0.534216    30A     -0.507336
      31A     -0.499804    32A     -0.482942    33A     -0.476200
      34A     -0.474705    35A     -0.445363    36A     -0.431582

  @DF-RHF Final Energy:  -423.11991307906209

   => Energetics <=

    Nuclear Repulsion Energy =            449.7518074500506486
    One-Electron Energy =               -1467.1187645299298765
    Two-Electron Energy =                 594.2470440008165724
    DFT Exchange-Correlation Energy =       0.0000000000000000
    Empirical Dispersion Energy =           0.0000000000000000
    PCM Polarization Energy =               0.0000000000000000
    EFP Energy =                            0.0000000000000000
    Total Energy =                       -423.1199130790627123
    Molecular point group: c1
  Basis Set: CC-PVTZ
  Basis Set:

  -Total Gradient:
     Atom            X                  Y                   Z
    ------   -----------------  -----------------  -----------------
       1        0.000055893359     0.000025826556     0.000018051945
       2       -0.000120385982     0.000024582811    -0.000068106222
       3        0.000008746168    -0.000001601711    -0.000002935920
       4        0.000041328688    -0.000029944381     0.000011945220
       5        0.000011678676     0.000000453215    -0.000002068876
       6       -0.000014953801    -0.000002294874    -0.000003269224
       7        0.000004925145    -0.000019560781     0.000029769749
       8       -0.000016958313    -0.000011001791     0.000020657229
       9        0.000008055540     0.000012295369    -0.000002823391
      10        0.000012908375    -0.000006452565     0.000005862578
      11        0.000019275597     0.000000327194    -0.000008199774
      12       -0.000003499219    -0.000001516889     0.000000692215
      13       -0.000003600369     0.000003412378     0.000004933456
      14       -0.000004944052     0.000006523939    -0.000004646090
      15        0.000005285292     0.000000034987    -0.000001245646
      16        0.000001684165    -0.000003135116     0.000005520659
      17        0.000002031728    -0.000003759641    -0.000004313489
      18       -0.000000851109     0.000000550156     0.000000270833
      19       -0.000002564778     0.000002336624     0.000004901491
      20       -0.000001342063     0.000004439077    -0.000004524846
      21        0.000000498233    -0.000003395116     0.000005166215
      22       -0.000004105896     0.000004887664    -0.000000508058
      23        0.000000894607    -0.000003007107    -0.000005130055

  **** Optimization is complete! (in 11 steps) ****
    Final optimized geometry and variables:
    Molecular point group: c1

    Geometry (in Angstrom), charge = 0, multiplicity = 1:

    O           -3.631268458385    -0.650712121660    -0.025405156545
    C           -2.716199088936     0.093706899393    -0.010383375609
    C           -2.936024918586     1.591097538614     0.009870103467
    O           -1.483869154300    -0.396952141483    -0.011433598959
    H           -3.536861160119     1.819496114808     0.879346211175
    H           -2.041887353723     2.190028964667     0.027629610796
    H           -3.519506041596     1.845666262430    -0.864199544959
    C           -0.311825077034     0.391238401606     0.005458971866
    C            0.874143517698    -0.551114349191    -0.004097382762
    H           -0.285396975558     1.037732013970    -0.863906005566
    H           -0.292626293956     1.010826510484     0.894388297779
    C            2.205593147190     0.193596351380     0.012778517926
    H            0.808132192191    -1.180922373081    -0.884501067583
    H            0.800967397275    -1.207562916639     0.856044468041
    C            3.411469898922    -0.741834995742     0.003177064012
    H            2.262898560188     0.857059392411    -0.847090765310
    H            2.255890821700     0.830175394107     0.893164149241
    C            4.743259479591     0.000312338690     0.019779444130
    H            3.363418322618    -1.377916196930    -0.875908841755
    H            3.356599701279    -1.404543856429     0.861957827786
    H            4.842631549146     0.646470029301    -0.846050104965
    H            5.576950450043    -0.691901645984     0.012413374929
    H            4.835782887118     0.619586796781     0.905778575336

  Mulliken Charges: (a.u.)
   Center  Symbol    Alpha    Beta     Spin     Total
       1     O     4.18934  4.18934  0.00000 -0.37867
       2     C     2.82556  2.82556  0.00000  0.34887
       3     C     3.16107  3.16107  0.00000 -0.32215
       4     O     4.12133  4.12133  0.00000 -0.24266
       5     H     0.43486  0.43486  0.00000  0.13028
       6     H     0.44886  0.44886  0.00000  0.10229
       7     H     0.43500  0.43500  0.00000  0.13000
       8     C     2.98771  2.98771  0.00000  0.02458
       9     C     3.08363  3.08363  0.00000 -0.16726
      10     H     0.45832  0.45832  0.00000  0.08337
      11     H     0.45833  0.45833  0.00000  0.08333
      12     C     3.09943  3.09943  0.00000 -0.19886
      13     H     0.44602  0.44602  0.00000  0.10795
      14     H     0.44601  0.44601  0.00000  0.10797
      15     C     3.08583  3.08583  0.00000 -0.17166
      16     H     0.45443  0.45443  0.00000  0.09115
      17     H     0.45442  0.45442  0.00000  0.09116
      18     C     3.14941  3.14941  0.00000 -0.29882
      19     H     0.45197  0.45197  0.00000  0.09605
      20     H     0.45197  0.45197  0.00000  0.09606
      21     H     0.45491  0.45491  0.00000  0.09018
      22     H     0.44667  0.44667  0.00000  0.10666
      23     H     0.45491  0.45491  0.00000  0.09019

   Total alpha = 36.00000, Total beta = 36.00000, Total charge = -0.00000

*** Psi4 exiting successfully. Buy a developer a beer!
