  ==> Input File <==

--------------------------------------------------------------------------
set {
	reference rhf
	basis 6-31G*
}

set_num_threads( 4 )
memory 2 gb

molecule MOL {
0 1

H	 -0.821032	 -1.655889	 0.000000
O	 -1.037828	 -0.728600	 0.000000
C	 0.100509	 -0.036935	 0.000000
C	 1.205178	 -0.778397	 0.697025
O	 0.192772	 1.035160	 -0.501321
H	 0.917166	 -0.982468	 1.721778
H	 2.107688	 -0.186646	 0.675622
H	 1.371548	 -1.730286	 0.206165

	symmetry c1
}
set optking {
	frozen_dihedral = ("
		4 3 2 1
	")
}

ee = optimize('scf')
oeprop('DIPOLE', 'QUADRUPOLE', 'MULLIKEN_CHARGES')
f=open( 'psi4out.xyz', 'w' )
f.write( "8  " )
f.write( str(ee) + "\n" )
f.write( MOL.save_string_xyz() )
f.close()
--------------------------------------------------------------------------

    Molecular point group: c1
  Charge       = 0
  Multiplicity = 1
  Basis Set: 6-31G*
  Basis Set:
  @DF-RHF Final Energy:  -227.79428962018818
    Total Energy =                       -227.7942896201881808
    Molecular point group: c1
  Basis Set: 6-31G*
  Basis Set:
  Basis Set: 6-31G*
  Basis Set:
  @DF-RHF Final Energy:  -227.79402826244643
    Total Energy =                       -227.7940282624465169
  Basis Set: 6-31G*
  Basis Set:
  Basis Set: 6-31G*
  Basis Set:
  @DF-RHF Final Energy:  -227.79500614819148
    Total Energy =                       -227.7950061481914759
  Basis Set: 6-31G*
  Basis Set:
  Basis Set: 6-31G*
  Basis Set:
  @DF-RHF Final Energy:  -227.79629982610948
    Total Energy =                       -227.7962998261095322
  Basis Set: 6-31G*
  Basis Set:
  @DF-RHF Final Energy:  -227.79631989788317
    Total Energy =                       -227.7963198978831940
  @DF-RHF Final Energy:  -227.79632601822527
    Total Energy =                       -227.7963260182253009
  @DF-RHF Final Energy:  -227.79630186416171
    Total Energy =                       -227.7963018641615918
  @DF-RHF Final Energy:  -227.79632927961046
    Total Energy =                       -227.7963292796105463
  @DF-RHF Final Energy:  -227.79633207621174
    Total Energy =                       -227.7963320762119110
  Basis Set: 6-31G*
  Basis Set:
  @DF-RHF Final Energy:  -227.79633409463972
    Total Energy =                       -227.7963340946395761
  Basis Set: 6-31G*
  Basis Set:
  Basis Set: 6-31G*
  Basis Set:
  @DF-RHF Final Energy:  -227.79633587180152
    Total Energy =                       -227.7963358718013751
  Basis Set: 6-31G*
  Basis Set:
  Basis Set: 6-31G*
  Basis Set:
  @DF-RHF Final Energy:  -227.79633727232522
    Total Energy =                       -227.7963372723252746
  Basis Set: 6-31G*
  Basis Set:
  Charge       = 0
  Multiplicity = 1
  Basis Set: 6-31G*
  Basis Set:

    Orbital Energies (a.u.)
    -----------------------

    Doubly Occupied:

       1A    -20.612437     2A    -20.551979     3A    -11.385619
       4A    -11.251219     5A     -1.469188     6A     -1.372721
       7A     -1.026588     8A     -0.838493     9A     -0.719508
      10A     -0.667727    11A     -0.657166    12A     -0.601365
      13A     -0.574886    14A     -0.545236    15A     -0.479918
      16A     -0.446696

  @DF-RHF Final Energy:  -227.79633764377652

   => Energetics <=

    Nuclear Repulsion Energy =            122.1295071402484211
    One-Electron Energy =                -553.4501952434043233
    Two-Electron Energy =                 203.5243504593794057
    DFT Exchange-Correlation Energy =       0.0000000000000000
    Empirical Dispersion Energy =           0.0000000000000000
    PCM Polarization Energy =               0.0000000000000000
    EFP Energy =                            0.0000000000000000
    Total Energy =                       -227.7963376437765248
    Molecular point group: c1
  Basis Set: 6-31G*
  Basis Set:

  -Total Gradient:
     Atom            X                  Y                   Z
    ------   -----------------  -----------------  -----------------
       1        0.000170357235     0.000077359157    -0.005377944493
       2       -0.000532168364     0.000558296529     0.008191363409
       3        0.001249025398    -0.001999745746    -0.005686335589
       4       -0.000997608018     0.001445818680     0.002982372499
       5        0.000096810676    -0.000072778061    -0.000048168878
       6       -0.000000424977    -0.000011346729     0.000002441322
       7        0.000000624107    -0.000011653451    -0.000051902844
       8        0.000013383943     0.000014049621    -0.000011825426

  **** Optimization is complete! (in 13 steps) ****
    Final optimized geometry and variables:
    Molecular point group: c1

    Geometry (in Angstrom), charge = 0, multiplicity = 1:

    H           -1.020083793776    -1.509176861892    -0.114912601983
    O           -1.149990813084    -0.570214493455    -0.104032462107
    C            0.012054471767     0.099979946655    -0.063644459310
    C            1.140360889630    -0.617315717930     0.639240924058
    O            0.082829721066     1.203477822077    -0.475581403400
    H            0.874047985100    -0.756755980256     1.681771410329
    H            2.041072047998    -0.026826002403     0.570829815097
    H            1.319972430125    -1.597761328039     0.207675540867

  Mulliken Charges: (a.u.)
   Center  Symbol    Alpha    Beta     Spin     Total
       1     H     0.26966  0.26966  0.00000  0.46068
       2     O     4.34728  4.34728  0.00000 -0.69455
       3     C     2.62874  2.62874  0.00000  0.74252
       4     C     3.30401  3.30401  0.00000 -0.60802
       5     O     4.25524  4.25524  0.00000 -0.51048
       6     H     0.39583  0.39583  0.00000  0.20835
       7     H     0.38841  0.38841  0.00000  0.22318
       8     H     0.41084  0.41084  0.00000  0.17832

   Total alpha = 16.00000, Total beta = 16.00000, Total charge =  0.00000
