  ==> Input File <==

--------------------------------------------------------------------------
set {
	reference rhf
	basis cc-pvtz
}

set_num_threads( 4 )
memory 2 gb

molecule MOL {
0 1

H	 2.342730	 0.877684	 -1.045694
C	 2.360424	 0.000000	 -0.411793
C	 1.173749	 0.000000	 0.526870
H	 3.286567	 0.000000	 0.151574
H	 2.342730	 -0.877684	 -1.045694
O	 -0.000000	 0.000000	 -0.223739
H	 1.203779	 0.876757	 1.172538
H	 1.203779	 -0.876757	 1.172538
C	 -1.173749	 0.000000	 0.526870
C	 -1.470031	 1.412687	 0.980540
H	 -1.065772	 -0.657797	 1.388342
H	 -1.998972	 -0.384886	 -0.070928
H	 -0.658685	 1.794202	 1.587695
H	 -2.381016	 1.436737	 1.567610
H	 -1.592871	 2.067402	 0.126882

	symmetry c1
}
set optking {
	frozen_dihedral = ("
		11 9 6 3
	")
}

ee = optimize('scf')
oeprop('DIPOLE', 'QUADRUPOLE', 'MULLIKEN_CHARGES')
f=open( 'psi4out.xyz', 'w' )
f.write( "15  " )
f.write( str(ee) + "\n" )
f.write( MOL.save_string_xyz() )
f.close()
--------------------------------------------------------------------------

    Molecular point group: c1
  Charge       = 0
  Multiplicity = 1
  Basis Set: CC-PVTZ
  Basis Set:
  @DF-RHF Final Energy:  -232.22875982117321
    Total Energy =                       -232.2287598211732984
    Molecular point group: c1
  Basis Set: CC-PVTZ
  Basis Set:
  Basis Set: CC-PVTZ
  Basis Set:
  @DF-RHF Final Energy:  -232.22998364028916
    Total Energy =                       -232.2299836402892197
  Basis Set: CC-PVTZ
  Basis Set:
  Basis Set: CC-PVTZ
  Basis Set:
  @DF-RHF Final Energy:  -232.23071533871820
    Total Energy =                       -232.2307153387180279
  Basis Set: CC-PVTZ
  Basis Set:
  Basis Set: CC-PVTZ
  Basis Set:
  @DF-RHF Final Energy:  -232.23073569207327
    Total Energy =                       -232.2307356920734946
  Basis Set: CC-PVTZ
  Basis Set:
  Charge       = 0
  Multiplicity = 1
  Basis Set: CC-PVTZ
  Basis Set:

    Orbital Energies (a.u.)
    -----------------------

    Doubly Occupied:

       1A    -20.543705     2A    -11.266173     3A    -11.265891
       4A    -11.208891     5A    -11.206750     6A     -1.378034
       7A     -1.041746     8A     -0.986699     9A     -0.861967
      10A     -0.814078    11A     -0.674128    12A     -0.648090
      13A     -0.646330    14A     -0.574781    15A     -0.551545
      16A     -0.544418    17A     -0.523919    18A     -0.502158
      19A     -0.487898    20A     -0.458888    21A     -0.410198

  @DF-RHF Final Energy:  -232.23073653275321

   => Energetics <=

    Nuclear Repulsion Energy =            192.6820858198432234
    One-Electron Energy =                -696.6330720841389166
    Two-Electron Energy =                 271.7202497315423670
    DFT Exchange-Correlation Energy =       0.0000000000000000
    Empirical Dispersion Energy =           0.0000000000000000
    PCM Polarization Energy =               0.0000000000000000
    EFP Energy =                            0.0000000000000000
    Total Energy =                       -232.2307365327533262
    Molecular point group: c1
  Basis Set: CC-PVTZ
  Basis Set:

  -Total Gradient:
     Atom            X                  Y                   Z
    ------   -----------------  -----------------  -----------------
       1        0.000001070861     0.000000186875    -0.000000370336
       2        0.000005505557     0.000000270946    -0.000004026518
       3       -0.000008050101    -0.000199090156    -0.000011027386
       4       -0.000005478796    -0.000001714787    -0.000002028282
       5        0.000001705973    -0.000001945083    -0.000002291414
       6        0.000068850786     0.000387117544     0.000012135563
       7       -0.000006986356     0.000004243682     0.000013038735
       8       -0.000016107889    -0.000002491360    -0.000006303437
       9       -0.000079609642    -0.000376005968    -0.000157114556
      10        0.000002911980    -0.000044133791    -0.000016237381
      11        0.000059050785     0.000206119060     0.000179694480
      12       -0.000019811841     0.000024160555     0.000007620623
      13       -0.000000826546    -0.000012056640    -0.000011855500
      14       -0.000005047770     0.000006347250     0.000002147478
      15        0.000002823001     0.000008991872    -0.000003382070

  **** Optimization is complete! (in 5 steps) ****
    Final optimized geometry and variables:
    Molecular point group: c1

    Geometry (in Angstrom), charge = 0, multiplicity = 1:

    H            2.194474350591     0.536593661431    -1.366193922966
    C            2.195644988182    -0.338459847350    -0.728291019334
    C            1.032302736055    -0.291710703128     0.238443093840
    H            3.134512838957    -0.369165283775    -0.186907174544
    H            2.130665166408    -1.217506389129    -1.357241512235
    O           -0.156264833450    -0.264308406897    -0.491144082316
    H            1.115895879460     0.585326856346     0.876032289824
    H            1.047214733954    -1.166219284948     0.887273484894
    C           -1.337922453814    -0.255899044935     0.253314743689
    C           -1.741848281169     1.134512872126     0.717539107357
    H           -1.248183148520    -0.925062356948     1.106953809590
    H           -2.106721724615    -0.658749787171    -0.393343331031
    H           -1.015449200804     1.559929233863     1.399282068746
    H           -2.695271355432     1.091558904332     1.233114628102
    H           -1.841419260473     1.799889133897    -0.131412490942

  Mulliken Charges: (a.u.)
   Center  Symbol    Alpha    Beta     Spin     Total
       1     H     0.45145  0.45145  0.00000  0.09711
       2     C     3.13547  3.13547  0.00000 -0.27094
       3     C     2.96682  2.96682  0.00000  0.06635
       4     H     0.45938  0.45938  0.00000  0.08125
       5     H     0.45125  0.45125  0.00000  0.09750
       6     O     4.18338  4.18338  0.00000 -0.36675
       7     H     0.47328  0.47328  0.00000  0.05344
       8     H     0.47191  0.47191  0.00000  0.05618
       9     C     2.98148  2.98148  0.00000  0.03704
      10     C     3.14329  3.14329  0.00000 -0.28658
      11     H     0.47192  0.47192  0.00000  0.05616
      12     H     0.44981  0.44981  0.00000  0.10038
      13     H     0.45655  0.45655  0.00000  0.08689
      14     H     0.45348  0.45348  0.00000  0.09303
      15     H     0.45053  0.45053  0.00000  0.09894

   Total alpha = 21.00000, Total beta = 21.00000, Total charge = -0.00000
