  ==> Input File <==

--------------------------------------------------------------------------
set {
	reference rhf
	basis 6-31G*
}

set_num_threads( 4 )
memory 2 gb

molecule MOL {
0 1

H	 -3.161837	 0.500524	 -0.000234
C	 -2.367097	 -0.232926	 -0.000000
O	 -1.158440	 0.455814	 -0.000122
H	 -2.468853	 -0.861886	 -0.882833
H	 -2.468942	 -0.861421	 0.883154
C	 -0.029776	 -0.365156	 0.000148
C	 1.212217	 0.508981	 0.000007
H	 -0.036772	 -1.013236	 -0.877259
H	 -0.036869	 -1.012778	 0.877897
C	 2.437561	 -0.216542	 0.554108
H	 1.400300	 0.839650	 -1.016824
H	 1.006575	 1.399463	 0.586056
H	 2.675415	 -1.098736	 -0.033756
H	 3.308470	 0.430167	 0.542729
H	 2.278647	 -0.535632	 1.580427

	symmetry c1
}
set optking {
	frozen_dihedral = ("
		11 7 6 8
	")
}

ee = optimize('scf')
oeprop('DIPOLE', 'QUADRUPOLE', 'MULLIKEN_CHARGES')
f=open( 'psi4out.xyz', 'w' )
f.write( "15  " )
f.write( str(ee) + "\n" )
f.write( MOL.save_string_xyz() )
f.close()
--------------------------------------------------------------------------

    Molecular point group: c1
  Charge       = 0
  Multiplicity = 1
  Basis Set: 6-31G*
  Basis Set:
  @DF-RHF Final Energy:  -232.13741636746499
    Total Energy =                       -232.1374163674649367
    Molecular point group: c1
  Basis Set: 6-31G*
  Basis Set:
  Basis Set: 6-31G*
  Basis Set:
  @DF-RHF Final Energy:  -232.13763931413231
    Total Energy =                       -232.1376393141322296
  Basis Set: 6-31G*
  Basis Set:
  Basis Set: 6-31G*
  Basis Set:
  @DF-RHF Final Energy:  -232.13770101617376
    Total Energy =                       -232.1377010161738212
  Basis Set: 6-31G*
  Basis Set:
  Charge       = 0
  Multiplicity = 1
  Basis Set: 6-31G*
  Basis Set:

    Orbital Energies (a.u.)
    -----------------------

    Doubly Occupied:

       1A    -20.552655     2A    -11.266447     3A    -11.263568
       4A    -11.214379     5A    -11.212470     6A     -1.377184
       7A     -1.056299     8A     -0.954649     9A     -0.876811
      10A     -0.808900    11A     -0.674666    12A     -0.653064
      13A     -0.630579    14A     -0.605655    15A     -0.566078
      16A     -0.543161    17A     -0.499334    18A     -0.488242
      19A     -0.479327    20A     -0.461174    21A     -0.413292

  @DF-RHF Final Energy:  -232.13770189511717

   => Energetics <=

    Nuclear Repulsion Energy =            189.6868227021634539
    One-Electron Energy =                -690.4531786568320513
    Two-Electron Energy =                 268.6286540595515362
    DFT Exchange-Correlation Energy =       0.0000000000000000
    Empirical Dispersion Energy =           0.0000000000000000
    PCM Polarization Energy =               0.0000000000000000
    EFP Energy =                            0.0000000000000000
    Total Energy =                       -232.1377018951170612
    Molecular point group: c1
  Basis Set: 6-31G*
  Basis Set:

  -Total Gradient:
     Atom            X                  Y                   Z
    ------   -----------------  -----------------  -----------------
       1       -0.000004682564    -0.000010535822     0.000005511449
       2       -0.000078052149     0.000003436067    -0.000024981219
       3        0.000096214244    -0.000095163849    -0.000017949402
       4       -0.000009023455    -0.000001765271     0.000007573548
       5        0.000005614386     0.000006785495    -0.000002940731
       6        0.002998000703    -0.004187813048     0.002500592927
       7       -0.003308702064     0.004768272282     0.000257989924
       8       -0.002068071759     0.002854964896    -0.002098984506
       9        0.000024869471    -0.000019450262    -0.000004455556
      10       -0.000004039240     0.000042257767     0.000026347670
      11        0.002311507607    -0.003293277153    -0.000659813973
      12       -0.000002030150    -0.000038344459     0.000000264935
      13       -0.000001401462    -0.000001905105    -0.000002102601
      14        0.000016100183    -0.000008282210     0.000001138690
      15        0.000023696250    -0.000019179330     0.000011808846

  **** Optimization is complete! (in 4 steps) ****
    Final optimized geometry and variables:
    Molecular point group: c1

    Geometry (in Angstrom), charge = 0, multiplicity = 1:

    H           -3.154214400265     0.473895349879    -0.157571283637
    C           -2.356715920599    -0.256537343494    -0.144022074353
    O           -1.151096387011     0.435755687699    -0.103875708527
    H           -2.432756263262    -0.876476553894    -1.035904662706
    H           -2.480189254866    -0.895239476551     0.729179163989
    C           -0.018575486576    -0.384467455241    -0.074865331180
    C            1.222436925028     0.498561727890    -0.094232017804
    H           -0.032223854531    -1.037214121469    -0.947565229814
    H           -0.035856399295    -1.011040349560     0.816884929207
    C            2.464287971672    -0.235840089909     0.414710103434
    H            1.406515344123     0.830034757470    -1.111567524447
    H            1.028684702109     1.375838340096     0.512410002981
    H            2.660340180126    -1.132783700576    -0.167140234831
    H            3.344053198508     0.395608995151     0.347489958879
    H            2.349367849439    -0.534229435411     1.452744931664

  Mulliken Charges: (a.u.)
   Center  Symbol    Alpha    Beta     Spin     Total
       1     H     0.41229  0.41229  0.00000  0.17542
       2     C     3.07936  3.07936  0.00000 -0.15871
       3     O     4.30640  4.30640  0.00000 -0.61280
       4     H     0.43073  0.43073  0.00000  0.13854
       5     H     0.43077  0.43077  0.00000  0.13846
       6     C     2.98284  2.98284  0.00000  0.03432
       7     C     3.16099  3.16099  0.00000 -0.32198
       8     H     0.43209  0.43209  0.00000  0.13581
       9     H     0.43206  0.43206  0.00000  0.13589
      10     C     3.24782  3.24782  0.00000 -0.49564
      11     H     0.41697  0.41697  0.00000  0.16605
      12     H     0.40936  0.40936  0.00000  0.18128
      13     H     0.42205  0.42205  0.00000  0.15589
      14     H     0.41630  0.41630  0.00000  0.16741
      15     H     0.41996  0.41996  0.00000  0.16008

   Total alpha = 21.00000, Total beta = 21.00000, Total charge = -0.00000
