  ==> Input File <==

--------------------------------------------------------------------------
set {
	reference rhf
	basis 6-31G*
}

set_num_threads( 4 )
memory 2 gb

molecule MOL {
0 1

H	 -4.031818	 -0.453427	 -0.000094
C	 -2.967712	 -0.297022	 -0.000064
C	 -2.458620	 0.992929	 0.000032
C	 -2.109895	 -1.385637	 -0.000122
H	 -3.124998	 1.836319	 0.000077
C	 -1.090278	 1.193236	 0.000070
H	 -2.506361	 -2.384847	 -0.000198
C	 -0.739812	 -1.187531	 -0.000085
H	 -0.678594	 2.184290	 0.000146
C	 -0.226438	 0.104061	 0.000012
H	 -0.072310	 -2.027032	 -0.000131
C	 1.239129	 0.373821	 0.000060
O	 1.532419	 1.648091	 0.211771
O	 2.069802	 -0.462480	 -0.171528
C	 2.905921	 1.994349	 0.228153
H	 3.420989	 1.461720	 1.014158
H	 2.938769	 3.057034	 0.411115
H	 3.366015	 1.762103	 -0.721212

	symmetry c1
}
set optking {
	frozen_dihedral = ("
		13 12 10 6
	")
}

ee = optimize('scf')
oeprop('DIPOLE', 'QUADRUPOLE', 'MULLIKEN_CHARGES')
f=open( 'psi4out.xyz', 'w' )
f.write( "18  " )
f.write( str(ee) + "\n" )
f.write( MOL.save_string_xyz() )
f.close()
--------------------------------------------------------------------------

    Molecular point group: c1
  Charge       = 0
  Multiplicity = 1
  Basis Set: 6-31G*
  Basis Set:
  @DF-RHF Final Energy:  -457.34895381390942
    Total Energy =                       -457.3489538139094748
    Molecular point group: c1
  Basis Set: 6-31G*
  Basis Set:
  Basis Set: 6-31G*
  Basis Set:
  @DF-RHF Final Energy:  -457.35021288935775
    Total Energy =                       -457.3502128893583176
  Basis Set: 6-31G*
  Basis Set:
  Basis Set: 6-31G*
  Basis Set:
  @DF-RHF Final Energy:  -457.35028412402744
    Total Energy =                       -457.3502841240273256
  Basis Set: 6-31G*
  Basis Set:
  Basis Set: 6-31G*
  Basis Set:
  @DF-RHF Final Energy:  -457.35039612074405
    Total Energy =                       -457.3503961207445627
  Basis Set: 6-31G*
  Basis Set:
  Basis Set: 6-31G*
  Basis Set:
  @DF-RHF Final Energy:  -457.35042877054940
    Total Energy =                       -457.3504287705491151
  Basis Set: 6-31G*
  Basis Set:
  Basis Set: 6-31G*
  Basis Set:
  @DF-RHF Final Energy:  -457.35042954496691
    Total Energy =                       -457.3504295449666870
  Basis Set: 6-31G*
  Basis Set:
  Charge       = 0
  Multiplicity = 1
  Basis Set: 6-31G*
  Basis Set:

    Orbital Energies (a.u.)
    -----------------------

    Doubly Occupied:

       1A    -20.607743     2A    -20.544581     3A    -11.377912
       4A    -11.282969     5A    -11.245692     6A    -11.245175
       7A    -11.244210     8A    -11.241798     9A    -11.237553
      10A    -11.236800    11A     -1.472856    12A     -1.363995
      13A     -1.165352    14A     -1.048151    15A     -1.024864
      16A     -0.978197    17A     -0.860190    18A     -0.834469
      19A     -0.777835    20A     -0.739815    21A     -0.683377
      22A     -0.677461    23A     -0.672089    24A     -0.631027
      25A     -0.624149    26A     -0.597760    27A     -0.584943
      28A     -0.561024    29A     -0.529565    30A     -0.516605
      31A     -0.503551    32A     -0.499143    33A     -0.459125
      34A     -0.444477    35A     -0.344800    36A     -0.341039

  @DF-RHF Final Energy:  -457.35043267666111

   => Energetics <=

    Nuclear Repulsion Energy =            492.9876213098886524
    One-Electron Energy =               -1600.2755212926690547
    Two-Electron Energy =                 649.9374673061192880
    DFT Exchange-Correlation Energy =       0.0000000000000000
    Empirical Dispersion Energy =           0.0000000000000000
    PCM Polarization Energy =               0.0000000000000000
    EFP Energy =                            0.0000000000000000
    Total Energy =                       -457.3504326766610575
    Molecular point group: c1
  Basis Set: 6-31G*
  Basis Set:

  -Total Gradient:
     Atom            X                  Y                   Z
    ------   -----------------  -----------------  -----------------
       1       -0.000000734982     0.000007124855    -0.000002418931
       2        0.000014008205    -0.000080681701     0.000010159574
       3        0.000061613780     0.000049402524    -0.000009240128
       4       -0.000079008494     0.000027853611     0.000001342244
       5       -0.000003924847    -0.000002470305     0.000000737162
       6       -0.000070928611     0.000010184316    -0.001214192383
       7        0.000007297496    -0.000002181187     0.000000537977
       8        0.000055378418     0.000050187294    -0.000013505476
       9        0.000004322266    -0.000000670237    -0.000003506093
      10        0.000028348312    -0.000130965999     0.002240742121
      11       -0.000005088641    -0.000004377563    -0.000000980593
      12       -0.000041965211     0.000286562066    -0.002177747208
      13        0.000025425412    -0.000206496086     0.001164902639
      14       -0.000000210281    -0.000004519457     0.000007249758
      15        0.000011411208     0.000004029580    -0.000011562018
      16       -0.000001096143    -0.000002102578     0.000002788417
      17       -0.000003302134    -0.000001948057     0.000001607347
      18       -0.000001545758     0.000001068918     0.000003085591

  **** Optimization is complete! (in 7 steps) ****
    Final optimized geometry and variables:
    Molecular point group: c1

    Geometry (in Angstrom), charge = 0, multiplicity = 1:

    H           -3.964411353054    -0.859969575133    -0.056924311611
    C           -2.906338486641    -0.667496990408    -0.045979936212
    C           -2.442365491410     0.638551702092    -0.038156646192
    C           -2.011006477157    -1.726439714105    -0.042110255820
    H           -3.137953662784     1.458111904094    -0.045272249007
    C           -1.081132291045     0.889436062808    -0.021061287660
    H           -2.372053398729    -2.738874304664    -0.050062229503
    C           -0.650535330017    -1.478090782387    -0.031942854675
    H           -0.717636920666     1.898543164695    -0.012167055305
    C           -0.181311901433    -0.169823366891    -0.014068136813
    H            0.056593479172    -2.285351663221    -0.037594068915
    C            1.293347318181     0.045340453287    -0.020831066013
    O            1.633471887277     1.309900439361     0.177933696428
    O            2.092280854343    -0.824637449265    -0.174755145515
    C            3.018452632565     1.607084106337     0.180569164303
    H            3.519372578394     1.066404918093     0.970186804599
    H            3.090231320659     2.670097780058     0.349699198641
    H            3.463925904994     1.346562966087    -0.768468557271

  Mulliken Charges: (a.u.)
   Center  Symbol    Alpha    Beta     Spin     Total
       1     H     0.39541  0.39541  0.00000  0.20917
       2     C     3.09014  3.09014  0.00000 -0.18027
       3     C     3.10706  3.10706  0.00000 -0.21412
       4     C     3.10701  3.10701  0.00000 -0.21402
       5     H     0.39625  0.39625  0.00000  0.20751
       6     C     3.08761  3.08761  0.00000 -0.17522
       7     H     0.39536  0.39536  0.00000  0.20927
       8     C     3.08668  3.08668  0.00000 -0.17336
       9     H     0.38081  0.38081  0.00000  0.23838
      10     C     3.07410  3.07410  0.00000 -0.14820
      11     H     0.37635  0.37635  0.00000  0.24730
      12     C     2.58258  2.58258  0.00000  0.83483
      13     O     4.31375  4.31375  0.00000 -0.62749
      14     O     4.29145  4.29145  0.00000 -0.58290
      15     C     3.09267  3.09267  0.00000 -0.18533
      16     H     0.40725  0.40725  0.00000  0.18550
      17     H     0.40792  0.40792  0.00000  0.18417
      18     H     0.40761  0.40761  0.00000  0.18478

   Total alpha = 36.00000, Total beta = 36.00000, Total charge =  0.00000
