  ==> Input File <==

--------------------------------------------------------------------------
set {
	reference rhf
	basis 6-31G*
}

set_num_threads( 1 )
memory 2 gb

molecule MOL {
0 1

H	 -3.107251	 -0.784396	 -0.812581
O	 -2.310168	 -0.871793	 -0.309793
C	 -2.026376	 0.340750	 0.341611
C	 -0.673256	 0.843270	 -0.132153
H	 -2.792215	 1.080697	 0.115987
H	 -2.013526	 0.200402	 1.421792
C	 0.486613	 -0.083066	 0.235839
H	 -0.715586	 0.970948	 -1.210718
H	 -0.508072	 1.829858	 0.297090
C	 1.840406	 0.433480	 -0.254303
H	 0.300215	 -1.068318	 -0.178947
H	 0.519509	 -0.203625	 1.318070
C	 3.000220	 -0.489290	 0.118523
H	 1.809207	 0.553576	 -1.335192
H	 2.021860	 1.424500	 0.157276
H	 2.864959	 -1.479103	 -0.307933
H	 3.946603	 -0.099227	 -0.243630
H	 3.080049	 -0.602997	 1.196117

	symmetry c1
}
set optking {
	frozen_dihedral = ("
		14 10 7 11,
		10 7 4 8,
		2 3 4 8
	")
}

ee = energy('scf')
oeprop('DIPOLE', 'QUADRUPOLE', 'MULLIKEN_CHARGES')
f=open( 'psi4out.xyz', 'w' )
f.write( "18  " )
f.write( str(ee) + "\n" )
f.write( MOL.save_string_xyz() )
f.close()
--------------------------------------------------------------------------

    Molecular point group: c1

    Geometry (in Angstrom), charge = 0, multiplicity = 1:

       Center              X                  Y                   Z               Mass
    ------------   -----------------  -----------------  -----------------  -----------------
           H         -3.107573359495    -0.789323391433    -0.803268671798     1.007825032070
           O         -2.310490359495    -0.876720391433    -0.300480671798    15.994914619560
           C         -2.026698359495     0.335822608567     0.350923328202    12.000000000000
           C         -0.673578359495     0.838342608567    -0.122840671798    12.000000000000
           H         -2.792537359495     1.075769608567     0.125299328202     1.007825032070
           H         -2.013848359495     0.195474608567     1.431104328202     1.007825032070
           C          0.486290640505    -0.087993391433     0.245151328202    12.000000000000
           H         -0.715908359495     0.966020608567    -1.201405671798     1.007825032070
           H         -0.508394359495     1.824930608567     0.306402328202     1.007825032070
           C          1.840083640505     0.428552608567    -0.244990671798    12.000000000000
           H          0.299892640505    -1.073245391433    -0.169634671798     1.007825032070
           H          0.519186640505    -0.208552391433     1.327382328202     1.007825032070
           C          2.999897640505    -0.494217391433     0.127835328202    12.000000000000
           H          1.808884640505     0.548648608567    -1.325879671798     1.007825032070
           H          2.021537640505     1.419572608567     0.166588328202     1.007825032070
           H          2.864636640505    -1.484030391433    -0.298620671798     1.007825032070
           H          3.946280640505    -0.104154391433    -0.234317671798     1.007825032070
           H          3.079726640505    -0.607924391433     1.205429328202     1.007825032070

  Charge       = 0
  Multiplicity = 1
  Basis Set: 6-31G*
  Basis Set:

    Orbital Energies (a.u.)
    -----------------------

    Doubly Occupied:

       1A    -20.552099     2A    -11.268500     3A    -11.210638
       4A    -11.209946     5A    -11.206007     6A    -11.204258
       7A     -1.360003     8A     -1.074192     9A     -1.008054
      10A     -0.912995    11A     -0.819410    12A     -0.785825
      13A     -0.699688    14A     -0.649071    15A     -0.614874
      16A     -0.585481    17A     -0.574234    18A     -0.550552
      19A     -0.522934    20A     -0.507485    21A     -0.488539
      22A     -0.467136    23A     -0.458139    24A     -0.446270
      25A     -0.424861

  @DF-RHF Final Energy:  -271.17734721184337

   => Energetics <=

    Nuclear Repulsion Energy =            249.1486817074408577
    One-Electron Energy =                -861.4495077318349558
    Two-Electron Energy =                 341.1234788125507293
    DFT Exchange-Correlation Energy =       0.0000000000000000
    Empirical Dispersion Energy =           0.0000000000000000
    PCM Polarization Energy =               0.0000000000000000
    EFP Energy =                            0.0000000000000000
    Total Energy =                       -271.1773472118434256

  Mulliken Charges: (a.u.)
   Center  Symbol    Alpha    Beta     Spin     Total
       1     H     0.27919  0.27919  0.00000  0.44161
       2     O     4.37030  4.37030  0.00000 -0.74059
       3     C     3.00230  3.00230  0.00000 -0.00459
       4     C     3.15445  3.15445  0.00000 -0.30890
       5     H     0.42949  0.42949  0.00000  0.14103
       6     H     0.42378  0.42378  0.00000  0.15244
       7     C     3.15367  3.15367  0.00000 -0.30734
       8     H     0.42218  0.42218  0.00000  0.15563
       9     H     0.42751  0.42751  0.00000  0.14498
      10     C     3.15135  3.15135  0.00000 -0.30270
      11     H     0.40816  0.40816  0.00000  0.18368
      12     H     0.42638  0.42638  0.00000  0.14725
      13     C     3.23894  3.23894  0.00000 -0.47789
      14     H     0.42338  0.42338  0.00000  0.15325
      15     H     0.42518  0.42518  0.00000  0.14964
      16     H     0.42086  0.42086  0.00000  0.15827
      17     H     0.42059  0.42059  0.00000  0.15883
      18     H     0.42229  0.42229  0.00000  0.15542

   Total alpha = 25.00000, Total beta = 25.00000, Total charge = -0.00000
