  ==> Input File <==

--------------------------------------------------------------------------
set {
	reference rhf
	basis cc-pvtz
}

set_num_threads( 4 )
memory 2 gb

molecule MOL {
0 1

H	 -1.835082	 1.385983	 0.000069
C	 -1.300516	 0.441153	 -0.000028
O	 -0.006604	 0.654344	 -0.000106
O	 -1.828920	 -0.612308	 0.000113
C	 0.848969	 -0.463638	 -0.219045
C	 2.275065	 0.031214	 -0.173530
H	 0.609760	 -0.904268	 -1.176428
H	 0.658788	 -1.203901	 0.545026
H	 2.449961	 0.774284	 -0.941142
H	 2.953563	 -0.797486	 -0.337085
H	 2.499231	 0.473173	 0.788962

	symmetry c1
}
set optking {
	frozen_dihedral = ("
		5 3 2 4
	")
}

ee = optimize('scf')
oeprop('DIPOLE', 'QUADRUPOLE', 'MULLIKEN_CHARGES')
f=open( 'psi4out.xyz', 'w' )
f.write( "11  " )
f.write( str(ee) + "\n" )
f.write( MOL.save_string_xyz() )
f.close()
--------------------------------------------------------------------------

    Molecular point group: c1
  Charge       = 0
  Multiplicity = 1
  Basis Set: CC-PVTZ
  Basis Set:
  @DF-RHF Final Energy:  -266.93124249119796
    Total Energy =                       -266.9312424911979633
    Molecular point group: c1
  Basis Set: CC-PVTZ
  Basis Set:
  Basis Set: CC-PVTZ
  Basis Set:
  @DF-RHF Final Energy:  -266.92938577246241
    Total Energy =                       -266.9293857724624104
  Basis Set: CC-PVTZ
  Basis Set:
  Basis Set: CC-PVTZ
  Basis Set:
  @DF-RHF Final Energy:  -266.93130905222182
    Total Energy =                       -266.9313090522221046
  Basis Set: CC-PVTZ
  Basis Set:
  Basis Set: CC-PVTZ
  Basis Set:
  @DF-RHF Final Energy:  -266.93132321485382
    Total Energy =                       -266.9313232148538191
  Basis Set: CC-PVTZ
  Basis Set:
  Charge       = 0
  Multiplicity = 1
  Basis Set: CC-PVTZ
  Basis Set:

    Orbital Energies (a.u.)
    -----------------------

    Doubly Occupied:

       1A    -20.605141     2A    -20.546065     3A    -11.370193
       4A    -11.290254     5A    -11.225208     6A     -1.479262
       7A     -1.377505     8A     -1.053817     9A     -0.903599
      10A     -0.806392    11A     -0.740671    12A     -0.693237
      13A     -0.682358    14A     -0.594853    15A     -0.577227
      16A     -0.558324    17A     -0.519435    18A     -0.516211
      19A     -0.463960    20A     -0.457873

  @DF-RHF Final Energy:  -266.93132456051097

   => Energetics <=

    Nuclear Repulsion Energy =            179.5929340860230354
    One-Electron Energy =                -720.1253481188082333
    Two-Electron Energy =                 273.6010894722741114
    DFT Exchange-Correlation Energy =       0.0000000000000000
    Empirical Dispersion Energy =           0.0000000000000000
    PCM Polarization Energy =               0.0000000000000000
    EFP Energy =                            0.0000000000000000
    Total Energy =                       -266.9313245605111433
    Molecular point group: c1
  Basis Set: CC-PVTZ
  Basis Set:

  -Total Gradient:
     Atom            X                  Y                   Z
    ------   -----------------  -----------------  -----------------
       1        0.000046395919     0.000007947166    -0.000004080042
       2        0.000212474471     0.000485855184    -0.006816334361
       3       -0.000156906847    -0.000897653011     0.005883543392
       4       -0.000076989792    -0.000149613316     0.003584337404
       5       -0.000000762883     0.000521456098    -0.002632997405
       6       -0.000008538517     0.000022378151    -0.000016329059
       7        0.000001538602     0.000018838595     0.000004275071
       8       -0.000013993236    -0.000010175038     0.000005863565
       9        0.000013011224     0.000008425956    -0.000002820489
      10       -0.000008752703    -0.000002032188    -0.000001300673
      11       -0.000007476240    -0.000005427598    -0.000004157403

  **** Optimization is complete! (in 5 steps) ****
    Final optimized geometry and variables:
    Molecular point group: c1

    Geometry (in Angstrom), charge = 0, multiplicity = 1:

    H           -1.829444663088     1.382951491043     0.111557635889
    C           -1.298992202120     0.436784281820     0.068358068586
    O           -0.004057080888     0.641349283918     0.116808441128
    O           -1.832336157078    -0.612840342603     0.017944617488
    C            0.852201920060    -0.474616578430    -0.109860752716
    C            2.276851869120     0.025977968044    -0.091670388597
    H            0.597411549099    -0.919538517080    -1.061480243314
    H            0.679794023664    -1.213107372428     0.659926630146
    H            2.435932302434     0.766152742042    -0.865506676905
    H            2.955696156407    -0.801017241119    -0.262365240678
    H            2.515274157994     0.473248769835     0.864908028988

  Mulliken Charges: (a.u.)
   Center  Symbol    Alpha    Beta     Spin     Total
       1     H     0.44823  0.44823  0.00000  0.10354
       2     C     2.84613  2.84613  0.00000  0.30774
       3     O     4.14464  4.14464  0.00000 -0.28929
       4     O     4.19424  4.19424  0.00000 -0.38848
       5     C     2.97233  2.97233  0.00000  0.05533
       6     C     3.13320  3.13320  0.00000 -0.26639
       7     H     0.45467  0.45467  0.00000  0.09066
       8     H     0.45167  0.45167  0.00000  0.09666
       9     H     0.45067  0.45067  0.00000  0.09865
      10     H     0.45426  0.45426  0.00000  0.09149
      11     H     0.44995  0.44995  0.00000  0.10009

   Total alpha = 20.00000, Total beta = 20.00000, Total charge = -0.00000
