  ==> Input File <==

--------------------------------------------------------------------------
set {
	reference rhf
	basis 6-31G*
}

set_num_threads( 1 )
memory 2 gb

molecule MOL {
0 1

H	 -2.798360	 -0.862255	 -0.071053
N	 -1.863561	 -0.715187	 0.256814
C	 -1.344686	 0.554728	 -0.219830
H	 -1.300452	 -1.461917	 -0.101532
C	 0.081427	 0.741154	 0.254071
H	 -1.362155	 0.656231	 -1.305829
H	 -1.952773	 1.354456	 0.191809
O	 0.874168	 -0.245412	 -0.342030
H	 0.444037	 1.730782	 -0.023037
H	 0.121165	 0.653424	 1.337565
C	 2.243408	 -0.063603	 -0.169701
H	 2.748126	 -0.878870	 -0.669997
H	 2.577944	 0.876489	 -0.604781
H	 2.516243	 -0.072832	 0.883525

	symmetry c1
}
set optking {
	frozen_dihedral = ("
		8 5 3 6,
		6 3 2 4,
		5 8 11 13
	")
}

ee = energy('scf')
oeprop('DIPOLE', 'QUADRUPOLE', 'MULLIKEN_CHARGES')
f=open( 'psi4out.xyz', 'w' )
f.write( "14  " )
f.write( str(ee) + "\n" )
f.write( MOL.save_string_xyz() )
f.close()
--------------------------------------------------------------------------

    Molecular point group: c1

    Geometry (in Angstrom), charge = 0, multiplicity = 1:

       Center              X                  Y                   Z               Mass
    ------------   -----------------  -----------------  -----------------  -----------------
           H         -2.807018758259    -0.900331073414    -0.019550003370     1.007825032070
           N         -1.872219758259    -0.753263073414     0.308316996630    14.003074004780
           C         -1.353344758259     0.516651926586    -0.168327003370    12.000000000000
           H         -1.309110758259    -1.499993073414    -0.050029003370     1.007825032070
           C          0.072768241741     0.703077926586     0.305573996630    12.000000000000
           H         -1.370813758259     0.618154926586    -1.254326003370     1.007825032070
           H         -1.961431758259     1.316379926586     0.243311996630     1.007825032070
           O          0.865509241741    -0.283488073414    -0.290527003370    15.994914619560
           H          0.435378241741     1.692705926586     0.028465996630     1.007825032070
           H          0.112506241741     0.615347926586     1.389067996630     1.007825032070
           C          2.234749241741    -0.101679073414    -0.118198003370    12.000000000000
           H          2.739467241741    -0.916946073414    -0.618494003370     1.007825032070
           H          2.569285241741     0.838412926586    -0.553278003370     1.007825032070
           H          2.507584241741    -0.110908073414     0.935027996630     1.007825032070

  Charge       = 0
  Multiplicity = 1
  Basis Set: 6-31G*
  Basis Set:

    Orbital Energies (a.u.)
    -----------------------

    Doubly Occupied:

       1A    -20.557251     2A    -15.528312     3A    -11.266653
       4A    -11.265551     5A    -11.240698     6A     -1.381434
       7A     -1.173575     8A     -0.998806     9A     -0.907783
      10A     -0.815011    11A     -0.683001    12A     -0.675235
      13A     -0.644854    14A     -0.608029    15A     -0.607484
      16A     -0.540714    17A     -0.530517    18A     -0.496844
      19A     -0.473096    20A     -0.416938    21A     -0.379982

  @DF-RHF Final Energy:  -248.12476954207776

   => Energetics <=

    Nuclear Repulsion Energy =            194.5078334091921590
    One-Electron Energy =                -722.8816283740462723
    Two-Electron Energy =                 280.2490254227764126
    DFT Exchange-Correlation Energy =       0.0000000000000000
    Empirical Dispersion Energy =           0.0000000000000000
    PCM Polarization Energy =               0.0000000000000000
    EFP Energy =                            0.0000000000000000
    Total Energy =                       -248.1247695420777291

  Mulliken Charges: (a.u.)
   Center  Symbol    Alpha    Beta     Spin     Total
       1     H     0.33286  0.33286  0.00000  0.33428
       2     N     3.92510  3.92510  0.00000 -0.85019
       3     C     3.06843  3.06843  0.00000 -0.13686
       4     H     0.32333  0.32333  0.00000  0.35334
       5     C     2.99004  2.99004  0.00000  0.01993
       6     H     0.42738  0.42738  0.00000  0.14524
       7     H     0.42075  0.42075  0.00000  0.15850
       8     O     4.30981  4.30981  0.00000 -0.61961
       9     H     0.43188  0.43188  0.00000  0.13625
      10     H     0.42133  0.42133  0.00000  0.15735
      11     C     3.07887  3.07887  0.00000 -0.15775
      12     H     0.41243  0.41243  0.00000  0.17514
      13     H     0.42967  0.42967  0.00000  0.14067
      14     H     0.42814  0.42814  0.00000  0.14372

   Total alpha = 21.00000, Total beta = 21.00000, Total charge =  0.00000
