  ==> Input File <==

--------------------------------------------------------------------------
set {
	reference rhf
	basis 6-31G*
}

set_num_threads( 4 )
memory 2 gb

molecule MOL {
0 1

O	 1.267857	 1.218599	 0.434354
C	 1.122059	 0.121804	 -0.000188
C	 -0.170150	 -0.657997	 -0.000612
O	 2.104684	 -0.576042	 -0.555557
C	 -1.412532	 0.227344	 -0.000452
H	 -0.153702	 -1.313099	 -0.867402
H	 -0.153924	 -1.313811	 0.865644
C	 -2.706999	 -0.587347	 -0.000541
H	 -1.388000	 0.879466	 -0.868000
H	 -1.387972	 0.879138	 0.867341
C	 -3.956778	 0.291888	 0.000910
H	 -2.726114	 -1.239230	 -0.871609
H	 -2.725217	 -1.240844	 0.869333
H	 -3.985213	 0.933254	 -0.875158
H	 -4.860123	 -0.309979	 0.000519
H	 -3.984618	 0.931166	 0.878514
C	 3.376511	 0.043283	 -0.619051
H	 3.327858	 0.952407	 -1.200957
H	 4.029264	 -0.671321	 -1.095710
H	 3.736108	 0.275414	 0.373074

	symmetry c1
}
set optking {
	frozen_dihedral = ("
		1 2 3 6
	")
}

ee = optimize('scf')
oeprop('DIPOLE', 'QUADRUPOLE', 'MULLIKEN_CHARGES')
f=open( 'psi4out.xyz', 'w' )
f.write( "20  " )
f.write( str(ee) + "\n" )
f.write( MOL.save_string_xyz() )
f.close()
--------------------------------------------------------------------------

    Molecular point group: c1
  Charge       = 0
  Multiplicity = 1
  Basis Set: 6-31G*
  Basis Set:
  @DF-RHF Final Energy:  -383.94091169798332
    Total Energy =                       -383.9409116979834380
    Molecular point group: c1
  Basis Set: 6-31G*
  Basis Set:
  Basis Set: 6-31G*
  Basis Set:
  @DF-RHF Final Energy:  -383.93998835738654
    Total Energy =                       -383.9399883573869374
  Basis Set: 6-31G*
  Basis Set:
  Basis Set: 6-31G*
  Basis Set:
  @DF-RHF Final Energy:  -383.94107790265110
    Total Energy =                       -383.9410779026507043
  Basis Set: 6-31G*
  Basis Set:
  Basis Set: 6-31G*
  Basis Set:
  @DF-RHF Final Energy:  -383.94114747997503
    Total Energy =                       -383.9411474799752568
  Basis Set: 6-31G*
  Basis Set:
  Charge       = 0
  Multiplicity = 1
  Basis Set: 6-31G*
  Basis Set:

    Orbital Energies (a.u.)
    -----------------------

    Doubly Occupied:

       1A    -20.604731     2A    -20.544484     3A    -11.372378
       4A    -11.280954     5A    -11.235364     6A    -11.221034
       7A    -11.220432     8A    -11.211067     9A     -1.469725
      10A     -1.362504    11A     -1.089022    12A     -1.024340
      13A     -0.969400    14A     -0.886369    15A     -0.804383
      16A     -0.768720    17A     -0.696469    18A     -0.683029
      19A     -0.672112    20A     -0.646353    21A     -0.597622
      22A     -0.592314    23A     -0.577692    24A     -0.543981
      25A     -0.535009    26A     -0.523161    27A     -0.500825
      28A     -0.478264    29A     -0.474716    30A     -0.470332
      31A     -0.456107    32A     -0.435736

  @DF-RHF Final Energy:  -383.94114796073228

   => Energetics <=

    Nuclear Repulsion Energy =            381.0775231047137481
    One-Electron Energy =               -1278.1400858598581181
    Two-Electron Energy =                 513.1214147944124306
    DFT Exchange-Correlation Energy =       0.0000000000000000
    Empirical Dispersion Energy =           0.0000000000000000
    PCM Polarization Energy =               0.0000000000000000
    EFP Energy =                            0.0000000000000000
    Total Energy =                       -383.9411479607319961
    Molecular point group: c1
  Basis Set: 6-31G*
  Basis Set:

  -Total Gradient:
     Atom            X                  Y                   Z
    ------   -----------------  -----------------  -----------------
       1        0.000249537298    -0.000432187442     0.000792440278
       2       -0.000287033071     0.000484029272    -0.001108426907
       3       -0.000386230075     0.000667108627    -0.000133167372
       4       -0.000004605508     0.000030153684    -0.000120178366
       5        0.000006037742    -0.000002656525    -0.000011712629
       6        0.000420877460    -0.000643751078     0.000477094512
       7       -0.000018878155    -0.000034834419    -0.000001461695
       8        0.000006477924    -0.000009331286    -0.000007518486
       9        0.000012974399    -0.000018243686     0.000012855760
      10       -0.000006627691     0.000005700162     0.000002159542
      11        0.000004907574     0.000005250738    -0.000003679287
      12       -0.000004813970    -0.000005680010    -0.000002991053
      13        0.000005179270     0.000001534064    -0.000002183076
      14       -0.000000859373     0.000001274501     0.000001939200
      15        0.000001338214    -0.000001243730    -0.000001024171
      16       -0.000001898657     0.000001086614     0.000000835817
      17        0.000003044850    -0.000107856904     0.000210645542
      18       -0.000052231343     0.000018071047    -0.000029972370
      19        0.000005846968     0.000019461113    -0.000032037412
      20        0.000046956139     0.000022115257    -0.000043617827

  **** Optimization is complete! (in 5 steps) ****
    Final optimized geometry and variables:
    Molecular point group: c1

    Geometry (in Angstrom), charge = 0, multiplicity = 1:

    O            1.258735453695     1.204312237678     0.490298277447
    C            1.128525107993     0.107131298727     0.050660613230
    C           -0.160610856978    -0.678460317773     0.040820984706
    O            2.131916440581    -0.592517937077    -0.461819980024
    C           -1.404821683633     0.205910814923     0.076676001232
    H           -0.157638020725    -1.338804217471    -0.818846099476
    H           -0.130855767174    -1.325010861217     0.916064493805
    C           -2.697762052677    -0.609480208100     0.124536342898
    H           -1.412734968244     0.849873462710    -0.799044479004
    H           -1.348527729594     0.863405885900     0.937177771405
    C           -3.947616910958     0.269084277087     0.155840095841
    H           -2.743542110158    -1.271258974140    -0.737894995643
    H           -2.687240755913    -1.252560372598     1.002241327460
    H           -4.005406571855     0.899614421050    -0.726701046400
    H           -4.849843757529    -0.333348561995     0.191981089713
    H           -3.947420508890     0.918926470845     1.026041916400
    C            3.409888875285     0.017663723604    -0.454149371773
    H            3.396139628943     0.933327468847    -1.027495704474
    H            4.080546350622    -0.696573356102    -0.905833699409
    H            3.721026253511     0.236478174186     0.557198997660

  Mulliken Charges: (a.u.)
   Center  Symbol    Alpha    Beta     Spin     Total
       1     O     4.28647  4.28647  0.00000 -0.57295
       2     C     2.60410  2.60410  0.00000  0.79181
       3     C     3.20912  3.20912  0.00000 -0.41823
       4     O     4.30669  4.30669  0.00000 -0.61337
       5     C     3.15383  3.15383  0.00000 -0.30766
       6     H     0.40073  0.40073  0.00000  0.19854
       7     H     0.40035  0.40035  0.00000  0.19929
       8     C     3.15399  3.15399  0.00000 -0.30797
       9     H     0.41664  0.41664  0.00000  0.16671
      10     H     0.40598  0.40598  0.00000  0.18804
      11     C     3.23948  3.23948  0.00000 -0.47896
      12     H     0.42271  0.42271  0.00000  0.15458
      13     H     0.42246  0.42246  0.00000  0.15508
      14     H     0.42039  0.42039  0.00000  0.15922
      15     H     0.41858  0.41858  0.00000  0.16284
      16     H     0.41947  0.41947  0.00000  0.16106
      17     C     3.09297  3.09297  0.00000 -0.18594
      18     H     0.40848  0.40848  0.00000  0.18305
      19     H     0.40837  0.40837  0.00000  0.18326
      20     H     0.40920  0.40920  0.00000  0.18161

   Total alpha = 32.00000, Total beta = 32.00000, Total charge =  0.00000
