  ==> Input File <==

--------------------------------------------------------------------------
set {
	reference rhf
	basis 6-31G*
}

set_num_threads( 4 )
memory 2 gb

molecule MOL {
0 1

H	 -0.275837	 -1.184254	 -2.363640
C	 -0.691247	 -0.211439	 -2.118229
O	 -0.774054	 0.001095	 -0.743181
H	 -1.703514	 -0.169680	 -2.497572
H	 -0.107332	 0.553124	 -2.621896
C	 0.406953	 0.000033	 0.038965
C	 1.527284	 -0.003667	 -0.998752
C	 0.498933	 1.262172	 0.902524
C	 0.494271	 -1.259566	 0.906664
H	 1.452513	 0.873252	 -1.631882
H	 1.448863	 -0.881882	 -1.629595
H	 2.502020	 -0.005104	 -0.521731
H	 0.364280	 2.147110	 0.289513
H	 1.472180	 1.321775	 1.378800
H	 -0.247853	 1.275162	 1.689097
H	 0.356778	 -2.146106	 0.296587
H	 1.467182	 -1.320941	 1.383330
H	 -0.252763	 -1.267328	 1.693119

	symmetry c1
}
set optking {
	frozen_dihedral = ("
		2 3 6 7
	")
}

ee = optimize('scf')
oeprop('DIPOLE', 'QUADRUPOLE', 'MULLIKEN_CHARGES')
f=open( 'psi4out.xyz', 'w' )
f.write( "18  " )
f.write( str(ee) + "\n" )
f.write( MOL.save_string_xyz() )
f.close()
--------------------------------------------------------------------------

    Molecular point group: c1
  Charge       = 0
  Multiplicity = 1
  Basis Set: 6-31G*
  Basis Set:
  @DF-RHF Final Energy:  -271.15498411056677
    Total Energy =                       -271.1549841105668293
    Molecular point group: c1
  Basis Set: 6-31G*
  Basis Set:
  Basis Set: 6-31G*
  Basis Set:
  @DF-RHF Final Energy:  -271.16160222255627
    Total Energy =                       -271.1616022225562119
  Basis Set: 6-31G*
  Basis Set:
  Basis Set: 6-31G*
  Basis Set:
  @DF-RHF Final Energy:  -271.16789656841945
    Total Energy =                       -271.1678965684191667
  Basis Set: 6-31G*
  Basis Set:
  Basis Set: 6-31G*
  Basis Set:
  @DF-RHF Final Energy:  -271.17081032838956
    Total Energy =                       -271.1708103283895070
  Basis Set: 6-31G*
  Basis Set:
  @DF-RHF Final Energy:  -271.17129492430195
    Total Energy =                       -271.1712949243019466
  @DF-RHF Final Energy:  -271.17142964706670
    Total Energy =                       -271.1714296470666454
  Basis Set: 6-31G*
  Basis Set:
  @DF-RHF Final Energy:  -271.17145302599914
    Total Energy =                       -271.1714530259987441
  Basis Set: 6-31G*
  Basis Set:
  Basis Set: 6-31G*
  Basis Set:
  @DF-RHF Final Energy:  -271.17146124381861
    Total Energy =                       -271.1714612438189533
  Basis Set: 6-31G*
  Basis Set:
  Basis Set: 6-31G*
  Basis Set:
  @DF-RHF Final Energy:  -271.17146304582974
    Total Energy =                       -271.1714630458295687
  Basis Set: 6-31G*
  Basis Set:
  Charge       = 0
  Multiplicity = 1
  Basis Set: 6-31G*
  Basis Set:

    Orbital Energies (a.u.)
    -----------------------

    Doubly Occupied:

       1A    -20.543593     2A    -11.281806     3A    -11.262177
       4A    -11.213770     5A    -11.203509     6A    -11.203385
       7A     -1.366152     8A     -1.073952     9A     -0.950792
      10A     -0.934368    11A     -0.911650    12A     -0.751215
      13A     -0.656359    14A     -0.645898    15A     -0.636583
      16A     -0.582175    17A     -0.576918    18A     -0.548218
      19A     -0.542119    20A     -0.525932    21A     -0.514866
      22A     -0.490437    23A     -0.482683    24A     -0.441604
      25A     -0.395926

  @DF-RHF Final Energy:  -271.17146317128697

   => Energetics <=

    Nuclear Repulsion Energy =            271.7120157551850070
    One-Electron Energy =                -906.2947838492788151
    Two-Electron Energy =                 363.4113049228070054
    DFT Exchange-Correlation Energy =       0.0000000000000000
    Empirical Dispersion Energy =           0.0000000000000000
    PCM Polarization Energy =               0.0000000000000000
    EFP Energy =                            0.0000000000000000
    Total Energy =                       -271.1714631712868027
    Molecular point group: c1
  Basis Set: 6-31G*
  Basis Set:

  -Total Gradient:
     Atom            X                  Y                   Z
    ------   -----------------  -----------------  -----------------
       1        0.000004125247     0.000001309834     0.000004622243
       2        0.000128868914     0.001855858978    -0.000287061212
       3       -0.000213918936    -0.003520385187     0.000421066836
       4       -0.000003589334    -0.000001686428    -0.000013902340
       5        0.000005068876    -0.000000141220     0.000006133544
       6        0.000076069410     0.003257281758    -0.000136720515
       7        0.000001937429    -0.001593763529    -0.000013777188
       8        0.000005687905    -0.000003170259     0.000010771163
       9        0.000001114952     0.000002597930     0.000003935545
      10        0.000002447801     0.000002558523    -0.000004603739
      11        0.000003519772    -0.000001189698    -0.000001967691
      12       -0.000010779108    -0.000000215976     0.000002556759
      13       -0.000000029400    -0.000006455491    -0.000001274746
      14        0.000000755096     0.000004947563     0.000006621413
      15       -0.000001413375     0.000005806987     0.000001364245
      16       -0.000002211219     0.000000445982     0.000000586525
      17        0.000001842118    -0.000003574271    -0.000000145169
      18        0.000000503855    -0.000000225496     0.000001794325

  **** Optimization is complete! (in 10 steps) ****
    Final optimized geometry and variables:
    Molecular point group: c1

    Geometry (in Angstrom), charge = 0, multiplicity = 1:

    H           -0.726928832212    -1.138711204963    -2.015123946026
    C           -1.106980105353    -0.166966239446    -1.710203159113
    O           -1.015619953074     0.037222551624    -0.335999581711
    H           -2.160429385992    -0.125846296106    -1.953749846409
    H           -0.595274895914     0.600654205745    -2.282516917139
    C            0.236134726770     0.035427678173     0.340708789958
    C            1.451437981720     0.035081045357    -0.591763749683
    C            0.238766224488     1.294648689413     1.205410322192
    C            0.257341637593    -1.219914247805     1.215554241828
    H            1.471167471467     0.911232409202    -1.230696163747
    H            1.485739501104    -0.848893040569    -1.218230052703
    H            2.355970669472     0.046430560195     0.006578792713
    H            0.208404185705     2.181496183328     0.581016519202
    H            1.125851991642     1.342814059122     1.829689203783
    H           -0.635218352102     1.305930230073     1.846605453155
    H            0.217967976403    -2.112691877966     0.599104162466
    H            1.156018351317    -1.265661695479     1.823438215129
    H           -0.604730991360    -1.228849514319     1.872795882654

  Mulliken Charges: (a.u.)
   Center  Symbol    Alpha    Beta     Spin     Total
       1     H     0.43154  0.43154  0.00000  0.13692
       2     C     3.07493  3.07493  0.00000 -0.14986
       3     O     4.32562  4.32562  0.00000 -0.65125
       4     H     0.41245  0.41245  0.00000  0.17509
       5     H     0.42978  0.42978  0.00000  0.14044
       6     C     2.83925  2.83925  0.00000  0.32150
       7     C     3.25828  3.25828  0.00000 -0.51657
       8     C     3.23139  3.23139  0.00000 -0.46278
       9     C     3.23214  3.23214  0.00000 -0.46427
      10     H     0.41527  0.41527  0.00000  0.16945
      11     H     0.41612  0.41612  0.00000  0.16776
      12     H     0.41423  0.41423  0.00000  0.17154
      13     H     0.41924  0.41924  0.00000  0.16153
      14     H     0.42601  0.42601  0.00000  0.14798
      15     H     0.41305  0.41305  0.00000  0.17390
      16     H     0.42107  0.42107  0.00000  0.15787
      17     H     0.42608  0.42608  0.00000  0.14785
      18     H     0.41355  0.41355  0.00000  0.17290

   Total alpha = 25.00000, Total beta = 25.00000, Total charge = -0.00000
