  ==> Input File <==

--------------------------------------------------------------------------
set {
	reference rhf
	basis cc-pvtz
}

set_num_threads( 4 )
memory 2 gb

molecule MOL {
0 1

H	 -3.642953	 0.223825	 0.000000
C	 -2.571844	 0.155001	 0.000000
C	 -1.957580	 -1.086132	 0.000000
C	 -1.807160	 1.303787	 0.000000
H	 -2.551493	 -1.979629	 0.000000
C	 -0.582719	 -1.174294	 0.000000
H	 -2.279934	 2.266806	 0.000000
C	 -0.427220	 1.213406	 0.000000
H	 -0.094904	 -2.127556	 0.000000
C	 0.196908	 -0.024061	 0.000000
H	 0.151409	 2.115254	 0.000000
C	 1.690041	 -0.173233	 0.000000
C	 2.291486	 -1.540821	 -0.229406
O	 2.391445	 0.771075	 0.177977
H	 1.961210	 -2.237800	 0.531593
H	 3.365670	 -1.453147	 -0.195194
H	 1.991439	 -1.935225	 -1.192940

	symmetry c1
}
set optking {
	frozen_dihedral = ("
		13 12 10 8
	")
}

ee = optimize('scf')
oeprop('DIPOLE', 'QUADRUPOLE', 'MULLIKEN_CHARGES')
f=open( 'psi4out.xyz', 'w' )
f.write( "17  " )
f.write( str(ee) + "\n" )
f.write( MOL.save_string_xyz() )
f.close()
--------------------------------------------------------------------------

    Molecular point group: c1
  Charge       = 0
  Multiplicity = 1
  Basis Set: CC-PVTZ
  Basis Set:
  @DF-RHF Final Energy:  -382.60379109675108
    Total Energy =                       -382.6037910967504558
    Molecular point group: c1
  Basis Set: CC-PVTZ
  Basis Set:
  Basis Set: CC-PVTZ
  Basis Set:
  @DF-RHF Final Energy:  -382.60490868940298
    Total Energy =                       -382.6049086894031461
  Basis Set: CC-PVTZ
  Basis Set:
  Basis Set: CC-PVTZ
  Basis Set:
  @DF-RHF Final Energy:  -382.60554557654950
    Total Energy =                       -382.6055455765493889
  Basis Set: CC-PVTZ
  Basis Set:
  Basis Set: CC-PVTZ
  Basis Set:
  @DF-RHF Final Energy:  -382.60562942129445
    Total Energy =                       -382.6056294212944522
  Basis Set: CC-PVTZ
  Basis Set:
  Basis Set: CC-PVTZ
  Basis Set:
  @DF-RHF Final Energy:  -382.60563188232504
    Total Energy =                       -382.6056318823248148
  Basis Set: CC-PVTZ
  Basis Set:
  Basis Set: CC-PVTZ
  Basis Set:
  @DF-RHF Final Energy:  -382.60563403243253
    Total Energy =                       -382.6056340324328175
  Basis Set: CC-PVTZ
  Basis Set:
  Charge       = 0
  Multiplicity = 1
  Basis Set: CC-PVTZ
  Basis Set:

    Orbital Energies (a.u.)
    -----------------------

    Doubly Occupied:

       1A    -20.540501     2A    -11.327808     3A    -11.246867
       4A    -11.244392     5A    -11.242644     6A    -11.239009
       7A    -11.238910     8A    -11.236641     9A    -11.228912
      10A     -1.401959    11A     -1.171193    12A     -1.053439
      13A     -1.030726    14A     -0.998831    15A     -0.864578
      16A     -0.838911    17A     -0.763570    18A     -0.713358
      19A     -0.658686    20A     -0.651979    21A     -0.628680
      22A     -0.610640    23A     -0.602529    24A     -0.600713
      25A     -0.555367    26A     -0.529396    27A     -0.521939
      28A     -0.503658    29A     -0.497752    30A     -0.414421
      31A     -0.350952    32A     -0.346821

  @DF-RHF Final Energy:  -382.60563513868692

   => Energetics <=

    Nuclear Repulsion Energy =            404.4942967897693507
    One-Electron Energy =               -1320.4883023577231143
    Two-Electron Energy =                 533.3883704292665016
    DFT Exchange-Correlation Energy =       0.0000000000000000
    Empirical Dispersion Energy =           0.0000000000000000
    PCM Polarization Energy =               0.0000000000000000
    EFP Energy =                            0.0000000000000000
    Total Energy =                       -382.6056351386872620
    Molecular point group: c1
  Basis Set: CC-PVTZ
  Basis Set:

  -Total Gradient:
     Atom            X                  Y                   Z
    ------   -----------------  -----------------  -----------------
       1       -0.000003228100    -0.000007552582     0.000009055301
       2        0.000008225901    -0.000022523685    -0.000032139629
       3       -0.000018360861     0.000013683344     0.000002856736
       4        0.000029877959     0.000016384248     0.000009827866
       5       -0.000009206452     0.000002314451     0.000001142478
       6       -0.000001379297    -0.000050700132     0.000021691727
       7        0.000003430330    -0.000004132327    -0.000000667755
       8       -0.000027297050    -0.000035895707    -0.000917583955
       9       -0.000001339971     0.000023936032     0.000001066057
      10       -0.000024283637     0.000142319051     0.000919943233
      11        0.000007480593     0.000015548439    -0.000007075723
      12        0.000089415691    -0.000218552864     0.000838605105
      13        0.000010543670     0.000171006491    -0.000846981342
      14       -0.000052041764    -0.000040570199     0.000003944953
      15       -0.000010604460    -0.000004280991     0.000009072395
      16       -0.000014052943    -0.000007481999    -0.000008711416
      17        0.000012820399     0.000006498431    -0.000004046030

  **** Optimization is complete! (in 7 steps) ****
    Final optimized geometry and variables:
    Molecular point group: c1

    Geometry (in Angstrom), charge = 0, multiplicity = 1:

    H           -3.633308808338     0.343501575906    -0.003192315470
    C           -2.564478923961     0.245170787880     0.001206574525
    C           -1.987285029248    -1.008330929161    -0.000737608802
    C           -1.765017894196     1.375994198886     0.007509008809
    H           -2.603704926353    -1.886428401163    -0.005172103535
    C           -0.609934791367    -1.133274055797     0.000089419184
    H           -2.213117490149     2.350851169730     0.006061371422
    C           -0.393107612793     1.249703794769     0.016135567605
    H           -0.177793318749    -2.113907693034    -0.005797158547
    C            0.198203099258    -0.007610230861     0.013997336585
    H            0.236552662970     2.115971755598     0.025428367431
    C            1.696724075485    -0.091843815141     0.013371443906
    C            2.354608742272    -1.432828142493    -0.218549432187
    O            2.356540113999     0.884344275727     0.175766043988
    H            2.111934742391    -2.121449792993     0.582423325163
    H            3.422971245836    -1.290061546534    -0.252955675132
    H            2.013861393228    -1.872260053710    -1.148155726396

  Mulliken Charges: (a.u.)
   Center  Symbol    Alpha    Beta     Spin     Total
       1     H     0.42023  0.42023  0.00000  0.15955
       2     C     3.07257  3.07257  0.00000 -0.14513
       3     C     3.07722  3.07722  0.00000 -0.15443
       4     C     3.07446  3.07446  0.00000 -0.14893
       5     H     0.42235  0.42235  0.00000  0.15530
       6     C     3.08649  3.08649  0.00000 -0.17298
       7     H     0.42027  0.42027  0.00000  0.15945
       8     C     3.07473  3.07473  0.00000 -0.14946
       9     H     0.42148  0.42148  0.00000  0.15704
      10     C     3.01120  3.01120  0.00000 -0.02240
      11     H     0.40716  0.40716  0.00000  0.18568
      12     C     2.83457  2.83457  0.00000  0.33085
      13     C     3.16733  3.16733  0.00000 -0.33467
      14     O     4.18368  4.18368  0.00000 -0.36737
      15     H     0.44816  0.44816  0.00000  0.10369
      16     H     0.43190  0.43190  0.00000  0.13620
      17     H     0.44620  0.44620  0.00000  0.10760

   Total alpha = 32.00000, Total beta = 32.00000, Total charge = -0.00000
