  ==> Input File <==

--------------------------------------------------------------------------
set {
	reference rhf
	basis 6-31G*
}

set_num_threads( 4 )
memory 2 gb

molecule MOL {
0 1

O	 2.862325	 1.357334	 0.000267
C	 2.843464	 0.164689	 -0.000222
C	 1.546494	 -0.624492	 -0.000609
C	 4.124123	 -0.644674	 -0.000428
C	 0.291004	 0.242674	 0.000989
H	 1.557904	 -1.283758	 -0.867573
H	 1.558622	 -1.285963	 0.864672
C	 -0.750021	 -0.231030	 -1.014705
H	 0.568732	 1.271090	 -0.207234
H	 -0.139259	 0.243891	 0.997493
C	 -2.012886	 0.632009	 -1.022916
H	 -0.310858	 -0.233126	 -2.011289
H	 -1.022840	 -1.263501	 -0.801071
C	 -3.058979	 0.164600	 -2.036440
H	 -1.741436	 1.664224	 -1.237077
H	 -2.453235	 0.634137	 -0.027384
C	 -4.317430	 1.031768	 -2.038871
H	 -2.620321	 0.163194	 -3.032131
H	 -3.332239	 -0.866614	 -1.822467
H	 -4.081854	 2.063725	 -2.283249
H	 -5.039415	 0.676022	 -2.767488
H	 -4.799476	 1.025707	 -1.065352
H	 4.165367	 -1.288615	 -0.874074
H	 4.976217	 0.020734	 -0.001915
H	 4.166763	 -1.286207	 0.874930

	symmetry c1
}
set optking {
	frozen_dihedral = ("
		9 5 3 6
	")
}

ee = optimize('scf')
oeprop('DIPOLE', 'QUADRUPOLE', 'MULLIKEN_CHARGES')
f=open( 'psi4out.xyz', 'w' )
f.write( "25  " )
f.write( str(ee) + "\n" )
f.write( MOL.save_string_xyz() )
f.close()
--------------------------------------------------------------------------

    Molecular point group: c1
  Charge       = 0
  Multiplicity = 1
  Basis Set: 6-31G*
  Basis Set:
  @DF-RHF Final Energy:  -387.13217606746218
    Total Energy =                       -387.1321760674619554
    Molecular point group: c1
  Basis Set: 6-31G*
  Basis Set:
  Basis Set: 6-31G*
  Basis Set:
  @DF-RHF Final Energy:  -387.13244711819613
    Total Energy =                       -387.1324471181961826
  Basis Set: 6-31G*
  Basis Set:
  Basis Set: 6-31G*
  Basis Set:
  @DF-RHF Final Energy:  -387.13241811281733
    Total Energy =                       -387.1324181128165947
  Basis Set: 6-31G*
  Basis Set:
  Basis Set: 6-31G*
  Basis Set:
  @DF-RHF Final Energy:  -387.13254834918530
    Total Energy =                       -387.1325483491859814
  Basis Set: 6-31G*
  Basis Set:
  Basis Set: 6-31G*
  Basis Set:
  @DF-RHF Final Energy:  -387.13255423421890
    Total Energy =                       -387.1325542342191284
  Basis Set: 6-31G*
  Basis Set:
  Basis Set: 6-31G*
  Basis Set:
  @DF-RHF Final Energy:  -387.13255655745166
    Total Energy =                       -387.1325565574518350
  Basis Set: 6-31G*
  Basis Set:
  Charge       = 0
  Multiplicity = 1
  Basis Set: 6-31G*
  Basis Set:

    Orbital Energies (a.u.)
    -----------------------

    Doubly Occupied:

       1A    -20.551259     2A    -11.327457     3A    -11.231899
       4A    -11.228642     5A    -11.216469     6A    -11.214931
       7A    -11.214848     8A    -11.212818     9A    -11.207895
      10A     -1.396693    11A     -1.091939    12A     -1.055347
      13A     -1.014577    14A     -0.968343    15A     -0.890879
      16A     -0.814768    17A     -0.790514    18A     -0.730029
      19A     -0.664981    20A     -0.645517    21A     -0.631699
      22A     -0.623107    23A     -0.594931    24A     -0.583546
      25A     -0.571497    26A     -0.558893    27A     -0.536689
      28A     -0.525716    29A     -0.514178    30A     -0.494222
      31A     -0.483834    32A     -0.470994    33A     -0.463666
      34A     -0.460402    35A     -0.447145    36A     -0.401207

  @DF-RHF Final Energy:  -387.13255744705890

   => Energetics <=

    Nuclear Repulsion Energy =            439.0752371397039155
    One-Electron Energy =               -1394.7525292351795088
    Two-Electron Energy =                 568.5447346484166928
    DFT Exchange-Correlation Energy =       0.0000000000000000
    Empirical Dispersion Energy =           0.0000000000000000
    PCM Polarization Energy =               0.0000000000000000
    EFP Energy =                            0.0000000000000000
    Total Energy =                       -387.1325574470589572
    Molecular point group: c1
  Basis Set: 6-31G*
  Basis Set:

  -Total Gradient:
     Atom            X                  Y                   Z
    ------   -----------------  -----------------  -----------------
       1        0.000003868483     0.000007606508     0.000032924964
       2        0.000039513145    -0.000026005047    -0.000116614519
       3        0.001567636230     0.002216638131    -0.001035087180
       4        0.000004063501     0.000012772858     0.000075779736
       5       -0.000623242550    -0.000928295503    -0.002637622701
       6       -0.001184691650    -0.001726155196     0.001309895348
       7        0.000018743142     0.000003172205    -0.000007934469
       8       -0.000022988952     0.000014755925     0.000027348280
       9        0.000241234310     0.000415969024     0.002407047977
      10       -0.000028895727     0.000019785872    -0.000024794802
      11       -0.000020458247    -0.000009077788    -0.000001522098
      12       -0.000001200955     0.000018200036     0.000007128105
      13       -0.000000400600    -0.000011706891    -0.000012756260
      14       -0.000002725444    -0.000000473993    -0.000002281759
      15        0.000010927814    -0.000007184472    -0.000003646553
      16       -0.000004684588     0.000005808067     0.000000637773
      17        0.000003104566    -0.000002969147     0.000011161378
      18        0.000002581807     0.000004366642    -0.000003819170
      19        0.000002802850    -0.000001568998    -0.000002919534
      20        0.000000668221    -0.000000456718    -0.000001842374
      21        0.000003886384    -0.000004224189     0.000002033486
      22       -0.000002205052     0.000002792922     0.000002357065
      23       -0.000008472891     0.000010523247    -0.000016336208
      24       -0.000004535252    -0.000001114732    -0.000002266199
      25        0.000005471447    -0.000013158764    -0.000006870287

  **** Optimization is complete! (in 7 steps) ****
    Final optimized geometry and variables:
    Molecular point group: c1

    Geometry (in Angstrom), charge = 0, multiplicity = 1:

    O            2.761733501418     1.115558120600     0.698779548631
    C            2.704959982140    -0.075553816525     0.695565342597
    C            1.391048570270    -0.839116466649     0.657813498220
    C            3.961432918187    -0.921654777545     0.732203017429
    C            0.124908465393     0.030471324828     0.639529982834
    H            1.420032605461    -1.505611755675    -0.202711410437
    H            1.387714198376    -1.509879793203     1.515027406677
    C           -0.926801851171    -0.454037341146    -0.360061642826
    H            0.402674038706     1.055736411556     0.428965351846
    H           -0.310828356984     0.044254652334     1.635073251216
    C           -2.200715867661     0.391446596834    -0.344424602509
    H           -0.499692768354    -0.442680596405    -1.361627050522
    H           -1.181259578869    -1.491834101598    -0.148769827522
    C           -3.252110802604    -0.079022198085    -1.351082353710
    H           -1.944796175156     1.429238056309    -0.550139773681
    H           -2.630255378415     0.376730808221     0.655967691393
    C           -4.523406895917     0.768836921334    -1.326974469868
    H           -2.825738783894    -0.060761099279    -2.351853277256
    H           -3.507121854836    -1.116981639180    -1.147254411804
    H           -4.306386099485     1.807135696012    -1.561295136607
    H           -5.249040430932     0.411188799827    -2.051011779382
    H           -4.993133951222     0.743380856802    -0.347704680579
    H            4.005545726899    -1.573753710710    -0.135133525552
    H            4.831811388804    -0.280652729772     0.746838314794
    H            3.964496540589    -1.556484172203     1.613411329920

  Mulliken Charges: (a.u.)
   Center  Symbol    Alpha    Beta     Spin     Total
       1     O     4.26003  4.26003  0.00000 -0.52005
       2     C     2.73832  2.73832  0.00000  0.52337
       3     C     3.21426  3.21426  0.00000 -0.42852
       4     C     3.28730  3.28730  0.00000 -0.57461
       5     C     3.15588  3.15588  0.00000 -0.31175
       6     H     0.40761  0.40761  0.00000  0.18478
       7     H     0.40758  0.40758  0.00000  0.18484
       8     C     3.15550  3.15550  0.00000 -0.31100
       9     H     0.39538  0.39538  0.00000  0.20925
      10     H     0.41984  0.41984  0.00000  0.16033
      11     C     3.15164  3.15164  0.00000 -0.30328
      12     H     0.42301  0.42301  0.00000  0.15398
      13     H     0.42521  0.42521  0.00000  0.14957
      14     C     3.15148  3.15148  0.00000 -0.30295
      15     H     0.42105  0.42105  0.00000  0.15790
      16     H     0.42377  0.42377  0.00000  0.15246
      17     C     3.23932  3.23932  0.00000 -0.47864
      18     H     0.42301  0.42301  0.00000  0.15398
      19     H     0.42386  0.42386  0.00000  0.15228
      20     H     0.42104  0.42104  0.00000  0.15792
      21     H     0.41957  0.41957  0.00000  0.16085
      22     H     0.42185  0.42185  0.00000  0.15631
      23     H     0.40875  0.40875  0.00000  0.18251
      24     H     0.39630  0.39630  0.00000  0.20740
      25     H     0.40846  0.40846  0.00000  0.18308

   Total alpha = 36.00000, Total beta = 36.00000, Total charge =  0.00000
