                              Psi4 1.0.54 Driver

  ==> Input File <==

--------------------------------------------------------------------------
set {
	reference rhf
	basis cc-pvtz
}

set_num_threads( 4 )
memory 2 gb

molecule MOL {
0 1

H	 -0.530899	 1.557475	 2.882185
C	 -1.171757	 0.684967	 2.695326
C	 -2.024300	 0.778134	 1.459048
O	 -1.161989	 -0.227737	 3.446448
C	 -1.216901	 1.136108	 0.207794
H	 -2.556773	 -0.156117	 1.336643
H	 -2.758046	 1.559060	 1.646333
C	 -0.247837	 0.040196	 -0.230469
H	 -1.910409	 1.347648	 -0.598826
H	 -0.669373	 2.058686	 0.384587
C	 1.181757	 0.280428	 0.247371
H	 -0.259600	 -0.030819	 -1.314870
H	 -0.591284	 -0.923375	 0.136958
C	 2.151032	 -0.811012	 -0.202643
H	 1.515939	 1.247397	 -0.115449
H	 1.191514	 0.341223	 1.333422
C	 3.580021	 -0.656538	 0.320835
H	 2.170545	 -0.847575	 -1.289412
H	 1.766632	 -1.772905	 0.124928
C	 4.327657	 0.562694	 -0.213579
H	 4.138806	 -1.549270	 0.057813
H	 3.561991	 -0.620783	 1.406976
H	 4.355973	 0.557257	 -1.298551
H	 3.867136	 1.491650	 0.100501
H	 5.351524	 0.571613	 0.142204

	symmetry c1
}
set optking {
	frozen_dihedral = ("
		3 5 8 12
	")
}

ee,wfn = optimize('scf', return_wfn=True)
oeprop( wfn, 'DIPOLE', 'QUADRUPOLE', 'MULLIKEN_CHARGES')
f=open( 'psi4out.xyz', 'w' )
f.write( "25  " )
f.write( str(ee) + "\n" )
f.write( MOL.save_string_xyz() )
f.close()
--------------------------------------------------------------------------

    Molecular point group: c1
  Charge       = 0
  Multiplicity = 1
  Basis Set: CC-PVTZ
  Basis Set:
  @DF-RHF Final Energy:  -387.25550149073661
    Total Energy =                       -387.2555014907368331
    Molecular point group: c1
  Basis Set: CC-PVTZ
  Basis Set:
  Basis Set: CC-PVTZ
  Basis Set:
  @DF-RHF Final Energy:  -387.25587937269370
    Total Energy =                       -387.2558793726938120
  Basis Set: CC-PVTZ
  Basis Set:
  Basis Set: CC-PVTZ
  Basis Set:
  @DF-RHF Final Energy:  -387.25583558305419
    Total Energy =                       -387.2558355830545906
  Basis Set: CC-PVTZ
  Basis Set:
  Basis Set: CC-PVTZ
  Basis Set:
  @DF-RHF Final Energy:  -387.25601916130012
    Total Energy =                       -387.2560191612996050
  Basis Set: CC-PVTZ
  Basis Set:
  Basis Set: CC-PVTZ
  Basis Set:
  @DF-RHF Final Energy:  -387.25602380674525
    Total Energy =                       -387.2560238067452474
  Basis Set: CC-PVTZ
  Basis Set:
  Charge       = 0
  Multiplicity = 1
  Basis Set: CC-PVTZ
  Basis Set:

    Orbital Energies (a.u.)
    -----------------------

    Doubly Occupied:

       1A    -20.551516     2A    -11.320959     3A    -11.233991
       4A    -11.233030     5A    -11.220528     6A    -11.216500
       7A    -11.213993     8A    -11.213057     9A    -11.207241
      10A     -1.406400    11A     -1.102865    12A     -1.068649
      13A     -1.012065    14A     -0.943492    15A     -0.879113
      16A     -0.816556    17A     -0.789089    18A     -0.779638
      19A     -0.668790    20A     -0.653854    21A     -0.646440
      22A     -0.617739    23A     -0.615230    24A     -0.576642
      25A     -0.573317    26A     -0.562710    27A     -0.535410
      28A     -0.521116    29A     -0.511186    30A     -0.506706
      31A     -0.485359    32A     -0.473537    33A     -0.460034
      34A     -0.457647    35A     -0.443997    36A     -0.410820

  @DF-RHF Final Energy:  -387.25602453201913

   => Energetics <=

    Nuclear Repulsion Energy =            451.0339473327348401
    One-Electron Energy =               -1418.7215100071966845
    Two-Electron Energy =                 580.4315381424431735
    DFT Exchange-Correlation Energy =       0.0000000000000000
    Empirical Dispersion Energy =           0.0000000000000000
    PCM Polarization Energy =               0.0000000000000000
    EFP Energy =                            0.0000000000000000
    Total Energy =                       -387.2560245320186141
    Molecular point group: c1
  Basis Set: CC-PVTZ
  Basis Set:

  -Total Gradient:
     Atom            X                  Y                   Z
    ------   -----------------  -----------------  -----------------
       1        0.000027650306    -0.000001232998    -0.000030856595
       2       -0.000023128470    -0.000020203347     0.000048222682
       3       -0.001022380142    -0.000655768868    -0.000950431829
       4       -0.000031891003     0.000023955174    -0.000004639812
       5        0.001173733615     0.000588254361     0.001339186360
       6        0.000010592789    -0.000009388720    -0.000005913576
       7       -0.000031864809    -0.000002936110     0.000017196022
       8        0.001457644025     0.001570886492    -0.000493081682
       9       -0.000002527153    -0.000001839217    -0.000012563529
      10        0.000015000317    -0.000001176950     0.000004087371
      11       -0.000042373422    -0.000000519575    -0.000020197144
      12       -0.001551335131    -0.001477604048     0.000096117628
      13        0.000005732978    -0.000006638459     0.000002877452
      14        0.000013712405    -0.000007012162    -0.000014319226
      15       -0.000002791531    -0.000010575795    -0.000001169382
      16       -0.000001812324     0.000008142361     0.000018378891
      17        0.000004517509    -0.000003591232     0.000003816203
      18        0.000000996591    -0.000000453980     0.000003664226
      19       -0.000005119814     0.000010294929     0.000000951209
      20       -0.000000838153    -0.000000058867    -0.000002342808
      21        0.000002930137     0.000002660686    -0.000002393922
      22        0.000001621045    -0.000004176527     0.000004998209
      23        0.000002314757     0.000001159465    -0.000001532060
      24        0.000000410123    -0.000002535051    -0.000001142725
      25       -0.000000794646     0.000000358434     0.000001088040

  **** Optimization is complete! (in 6 steps) ****
    Final optimized geometry and variables:
    Molecular point group: c1

    Geometry (in Angstrom), charge = 0, multiplicity = 1:

    H           -1.275715530459     1.420722560427     2.094180413200
    C           -1.834070649966     0.505726206458     1.855854419366
    C           -2.665538201848     0.576849260262     0.605055502496
    O           -1.759186406377    -0.435800887170     2.567506944569
    C           -1.856215828071     0.934071879189    -0.649023242556
    H           -3.180900310263    -0.366244409762     0.480204595473
    H           -3.412630284232     1.349651291109     0.772749568476
    C           -0.851116653495    -0.144504585354    -1.090592055387
    H           -2.569457849041     1.107350267204    -1.445798572774
    H           -1.344682128767     1.880470266826    -0.497597058259
    C            0.583414688889     0.092057695169    -0.620783057033
    H           -0.863000078407    -0.216419548879    -2.173251350902
    H           -1.187821866826    -1.113324593443    -0.732835879434
    C            1.539783031944    -1.011098591228    -1.069546654534
    H            0.919506894888     1.052822687335    -0.997843648476
    H            0.611449020290     0.160345423696     0.463622554668
    C            2.976524111715    -0.859026214071    -0.567056439107
    H            1.544203325062    -1.061577856340    -2.156177507435
    H            1.153521602618    -1.965248742543    -0.722933545778
    C            3.724756821842     0.348352037274    -1.127002129272
    H            3.526011406401    -1.758636095322    -0.826241062594
    H            2.972694936046    -0.809961080357     0.518442414704
    H            3.738192797151     0.329497792231    -2.212195130777
    H            3.275016832115     1.284390646146    -0.818213820766
    H            4.753436342003     0.354727041622    -0.785310442592

  Mulliken Charges: (a.u.)
   Center  Symbol    Alpha    Beta     Spin     Total
       1     H     0.46173  0.46173  0.00000  0.07654
       2     C     2.90631  2.90631  0.00000  0.18738
       3     C     3.08538  3.08538  0.00000 -0.17075
       4     O     4.16743  4.16743  0.00000 -0.33485
       5     C     3.12158  3.12158  0.00000 -0.24316
       6     H     0.44310  0.44310  0.00000  0.11381
       7     H     0.44172  0.44172  0.00000  0.11655
       8     C     3.10045  3.10045  0.00000 -0.20090
       9     H     0.43784  0.43784  0.00000  0.12432
      10     H     0.44938  0.44938  0.00000  0.10123
      11     C     3.09415  3.09415  0.00000 -0.18829
      12     H     0.44477  0.44477  0.00000  0.11045
      13     H     0.44694  0.44694  0.00000  0.10613
      14     C     3.09704  3.09704  0.00000 -0.19408
      15     H     0.45157  0.45157  0.00000  0.09686
      16     H     0.45129  0.45129  0.00000  0.09742
      17     C     3.09068  3.09068  0.00000 -0.18135
      18     H     0.45338  0.45338  0.00000  0.09323
      19     H     0.44649  0.44649  0.00000  0.10701
      20     C     3.15271  3.15271  0.00000 -0.30542
      21     H     0.44793  0.44793  0.00000  0.10414
      22     H     0.45242  0.45242  0.00000  0.09517
      23     H     0.45514  0.45514  0.00000  0.08972
      24     H     0.45479  0.45479  0.00000  0.09043
      25     H     0.44579  0.44579  0.00000  0.10842

   Total alpha = 36.00000, Total beta = 36.00000, Total charge = -0.00000

*** Psi4 exiting successfully. Buy a developer a beer!
