  ==> Input File <==

--------------------------------------------------------------------------
set {
	reference rhf
	basis cc-pvtz
}

set_num_threads( 4 )
memory 2 gb

molecule MOL {
0 1

H	 -0.423425	 3.352789	 2.053646
O	 -0.361665	 3.492450	 1.126510
C	 -0.248200	 2.267074	 0.458889
C	 1.128903	 1.660322	 0.641190
H	 -1.003401	 1.561060	 0.789563
H	 -0.419289	 2.462312	 -0.590059
O	 1.172093	 0.457955	 -0.054438
H	 1.325689	 1.495878	 1.701911
H	 1.882866	 2.352837	 0.273034
C	 2.395478	 -0.199028	 -0.000366
H	 2.505946	 -0.901710	 -0.823354
H	 3.174616	 0.545641	 -0.071768
H	 2.513730	 -0.742241	 0.934223

	symmetry c1
}
set optking {
	frozen_dihedral = ("
		4 7 10 13
	")
}

ee = optimize('scf')
oeprop('DIPOLE', 'QUADRUPOLE', 'MULLIKEN_CHARGES')
f=open( 'psi4out.xyz', 'w' )
f.write( "13  " )
f.write( str(ee) + "\n" )
f.write( MOL.save_string_xyz() )
f.close()
--------------------------------------------------------------------------

    Molecular point group: c1
  Charge       = 0
  Multiplicity = 1
  Basis Set: CC-PVTZ
  Basis Set:
  @DF-RHF Final Energy:  -268.06037277044527
    Total Energy =                       -268.0603727704451558
    Molecular point group: c1
  Basis Set: CC-PVTZ
  Basis Set:
  Basis Set: CC-PVTZ
  Basis Set:
  @DF-RHF Final Energy:  -268.06127393341791
    Total Energy =                       -268.0612739334179082
  Basis Set: CC-PVTZ
  Basis Set:
  Basis Set: CC-PVTZ
  Basis Set:
  @DF-RHF Final Energy:  -268.06148896172414
    Total Energy =                       -268.0614889617242511
  Basis Set: CC-PVTZ
  Basis Set:
  Charge       = 0
  Multiplicity = 1
  Basis Set: CC-PVTZ
  Basis Set:

    Orbital Energies (a.u.)
    -----------------------

    Doubly Occupied:

       1A    -20.555322     2A    -20.552803     3A    -11.269393
       4A    -11.267601     5A    -11.267355     6A     -1.391100
       7A     -1.369104     8A     -1.019761     9A     -0.914053
      10A     -0.842661    11A     -0.712096    12A     -0.675692
      13A     -0.661918    14A     -0.640168    15A     -0.597140
      16A     -0.571505    17A     -0.547485    18A     -0.491571
      19A     -0.483094    20A     -0.441579    21A     -0.423583

  @DF-RHF Final Energy:  -268.06148998542432

   => Energetics <=

    Nuclear Repulsion Energy =            190.4236078699667019
    One-Electron Energy =                -743.5802270977578701
    Two-Electron Energy =                 285.0951292423666246
    DFT Exchange-Correlation Energy =       0.0000000000000000
    Empirical Dispersion Energy =           0.0000000000000000
    PCM Polarization Energy =               0.0000000000000000
    EFP Energy =                            0.0000000000000000
    Total Energy =                       -268.0614899854246005
    Molecular point group: c1
  Basis Set: CC-PVTZ
  Basis Set:

  -Total Gradient:
     Atom            X                  Y                   Z
    ------   -----------------  -----------------  -----------------
       1        0.000002696832    -0.000010909871    -0.000002985658
       2        0.000060122592    -0.000046905050    -0.000030916540
       3       -0.000046420843    -0.000046873740    -0.000044783642
       4        0.000652714389     0.000918932026    -0.001414607644
       5        0.000003740599    -0.000002629871     0.000002373348
       6       -0.000021786394     0.000016896561    -0.000008001126
       7       -0.001088284703    -0.001902984251     0.001913349182
       8        0.000002517804     0.000013047948     0.000004014723
       9        0.000013294207    -0.000025072537    -0.000026390641
      10        0.001511986200     0.002920478196     0.000620753524
      11       -0.000040193752    -0.000002659891    -0.000007398453
      12        0.000010972429     0.000021079951     0.000002832023
      13       -0.001061359361    -0.001852399477    -0.001008239092

  **** Optimization is complete! (in 4 steps) ****
    Final optimized geometry and variables:
    Molecular point group: c1

    Geometry (in Angstrom), charge = 0, multiplicity = 1:

    H           -1.255930202973     1.791664438124     1.596096403653
    O           -1.192320649329     1.931634003410     0.669117715433
    C           -1.066886114759     0.706937273130     0.002421058159
    C            0.313975283514     0.110999500696     0.191305659166
    H           -1.818577678206    -0.004387296909     0.329631706504
    H           -1.234093796937     0.900531868077    -1.047499878697
    O            0.371319046714    -1.085944449994    -0.512929930696
    H            0.503762361153    -0.055601506562     1.253225736290
    H            1.064582588810     0.810638310803    -0.168857948580
    C            1.594013563494    -1.746317912917    -0.453504558187
    H            1.627383103767    -2.454343982525    -1.269624278172
    H            2.428216951114    -1.058143213695    -0.556175792314
    H            1.699681754680    -2.297990355476     0.477520811815

  Mulliken Charges: (a.u.)
   Center  Symbol    Alpha    Beta     Spin     Total
       1     H     0.39416  0.39416  0.00000  0.21168
       2     O     4.20208  4.20208  0.00000 -0.40417
       3     C     2.97378  2.97378  0.00000  0.05244
       4     C     2.96537  2.96537  0.00000  0.06925
       5     H     0.46661  0.46661  0.00000  0.06679
       6     H     0.45284  0.45284  0.00000  0.09433
       7     O     4.17655  4.17655  0.00000 -0.35311
       8     H     0.48306  0.48306  0.00000  0.03387
       9     H     0.46819  0.46819  0.00000  0.06361
      10     C     3.03118  3.03118  0.00000 -0.06236
      11     H     0.44751  0.44751  0.00000  0.10497
      12     H     0.47174  0.47174  0.00000  0.05652
      13     H     0.46691  0.46691  0.00000  0.06617

   Total alpha = 21.00000, Total beta = 21.00000, Total charge = -0.00000
