  ==> Input File <==

--------------------------------------------------------------------------
set {
	reference rhf
	basis 6-31G*
}

set_num_threads( 4 )
memory 2 gb

molecule MOL {
0 1

H	 -3.621319	 1.856435	 -1.241613
O	 -2.909927	 1.277372	 -1.475092
C	 -1.992113	 1.205279	 -0.414427
C	 -0.867754	 0.269961	 -0.822768
H	 -1.591903	 2.192259	 -0.186372
H	 -2.477089	 0.833795	 0.487315
C	 0.198102	 0.111031	 0.262842
H	 -0.418748	 0.653025	 -1.735120
H	 -1.299269	 -0.696264	 -1.069102
C	 1.331804	 -0.827780	 -0.158768
H	 0.601355	 1.089119	 0.513651
H	 -0.263176	 -0.273082	 1.171797
C	 2.723619	 -0.410569	 0.329459
H	 1.342964	 -0.912588	 -1.244120
H	 1.116806	 -1.824343	 0.220779
C	 3.243875	 0.895854	 -0.272975
H	 3.424222	 -1.207124	 0.091250
H	 2.714788	 -0.329854	 1.414619
H	 3.251977	 0.848779	 -1.358681
H	 2.637085	 1.747371	 0.016682
H	 4.259473	 1.094070	 0.055697

	symmetry c1
}
set optking {
	frozen_dihedral = ("
		4 7 10 14
	")
}

ee = optimize('scf')
oeprop('DIPOLE', 'QUADRUPOLE', 'MULLIKEN_CHARGES')
f=open( 'psi4out.xyz', 'w' )
f.write( "21  " )
f.write( str(ee) + "\n" )
f.write( MOL.save_string_xyz() )
f.close()
--------------------------------------------------------------------------

    Molecular point group: c1
  Charge       = 0
  Multiplicity = 1
  Basis Set: 6-31G*
  Basis Set:
  @DF-RHF Final Energy:  -310.20867689703442
    Total Energy =                       -310.2086768970347634
    Molecular point group: c1
  Basis Set: 6-31G*
  Basis Set:
  Basis Set: 6-31G*
  Basis Set:
  @DF-RHF Final Energy:  -310.20891100708764
    Total Energy =                       -310.2089110070878064
  Basis Set: 6-31G*
  Basis Set:
  Basis Set: 6-31G*
  Basis Set:
  @DF-RHF Final Energy:  -310.20914597458756
    Total Energy =                       -310.2091459745877842
  Basis Set: 6-31G*
  Basis Set:
  Basis Set: 6-31G*
  Basis Set:
  @DF-RHF Final Energy:  -310.20915787041258
    Total Energy =                       -310.2091578704124117
  Basis Set: 6-31G*
  Basis Set:
  Basis Set: 6-31G*
  Basis Set:
  @DF-RHF Final Energy:  -310.20918565957601
    Total Energy =                       -310.2091856595759509
  Basis Set: 6-31G*
  Basis Set:
  Basis Set: 6-31G*
  Basis Set:
  @DF-RHF Final Energy:  -310.20918786622195
    Total Energy =                       -310.2091878662216118
  Basis Set: 6-31G*
  Basis Set:
  Charge       = 0
  Multiplicity = 1
  Basis Set: 6-31G*
  Basis Set:

    Orbital Energies (a.u.)
    -----------------------

    Doubly Occupied:

       1A    -20.551778     2A    -11.266857     3A    -11.215586
       4A    -11.215439     5A    -11.213259     6A    -11.210814
       7A    -11.207973     8A     -1.358577     9A     -1.084769
      10A     -1.033026    11A     -0.953828    12A     -0.875248
      13A     -0.806483    14A     -0.781254    15A     -0.692412
      16A     -0.660193    17A     -0.618331    18A     -0.611560
      19A     -0.585957    20A     -0.560810    21A     -0.546638
      22A     -0.520192    23A     -0.502698    24A     -0.489859
      25A     -0.480929    26A     -0.460924    27A     -0.451994
      28A     -0.442604    29A     -0.434053

  @DF-RHF Final Energy:  -310.20918812531664

   => Energetics <=

    Nuclear Repulsion Energy =            313.5895853467677057
    One-Electron Energy =               -1041.9294604983706449
    Two-Electron Energy =                 418.1306870262860684
    DFT Exchange-Correlation Energy =       0.0000000000000000
    Empirical Dispersion Energy =           0.0000000000000000
    PCM Polarization Energy =               0.0000000000000000
    EFP Energy =                            0.0000000000000000
    Total Energy =                       -310.2091881253168140
    Molecular point group: c1
  Basis Set: 6-31G*
  Basis Set:

  -Total Gradient:
     Atom            X                  Y                   Z
    ------   -----------------  -----------------  -----------------
       1        0.000001133608    -0.000000480348     0.000001209774
       2        0.000001900033     0.000001302486    -0.000002163512
       3       -0.000004895956    -0.000002607940     0.000000727648
       4        0.001283762992     0.002051237563    -0.000923804538
       5       -0.000000988248     0.000001180340    -0.000003299781
       6        0.000002433811     0.000000134599     0.000002372446
       7       -0.002344888593    -0.003488134887     0.001334922439
       8       -0.000002621841     0.000002702947    -0.000003970333
       9        0.000004121915    -0.000001741709     0.000001477739
      10        0.003237399946     0.004243966232    -0.000519693554
      11       -0.000019435501    -0.000012769553    -0.000003186373
      12       -0.000009823764     0.000012965680     0.000005157586
      13        0.000025880011    -0.000026366726    -0.000030567442
      14       -0.002176532048    -0.002796443840     0.000125866210
      15        0.000016484104     0.000009561847    -0.000000745869
      16       -0.000023675964     0.000013464786     0.000012946452
      17        0.000007789232    -0.000011594458     0.000005160469
      18       -0.000004833520     0.000009337733    -0.000006222305
      19       -0.000002449529    -0.000007820347     0.000001800026
      20        0.000012499147     0.000011397844     0.000000348002
      21       -0.000003259828    -0.000009292248     0.000001664914

  **** Optimization is complete! (in 7 steps) ****
    Final optimized geometry and variables:
    Molecular point group: c1

    Geometry (in Angstrom), charge = 0, multiplicity = 1:

    H           -3.858155340918     1.423759038583    -0.813599218814
    O           -3.122081325157     0.887695079508    -1.071926526763
    C           -2.220857488585     0.775022131431    -0.000587295298
    C           -1.056439199522    -0.089828839354    -0.448901034631
    H           -1.860668616793     1.757536618770     0.302021546234
    H           -2.707565433910     0.325871985673     0.864087505967
    C            0.006207421346    -0.269608770881     0.636669479660
    H           -0.609857562767     0.363609867850    -1.329236392373
    H           -1.447166072261    -1.055408262156    -0.759732148854
    C            1.160374173774    -1.196737661699     0.207630599460
    H            0.397311674667     0.710638205416     0.898952269021
    H           -0.450247083283    -0.658696834776     1.543911352926
    C            2.538636136451    -0.797233525361     0.745260781388
    H            1.193551571569    -1.267669940879    -0.877562881748
    H            0.935289626869    -2.205413820358     0.546027041949
    C            3.132337073092     0.444498192522     0.077772581798
    H            3.224603673251    -1.628598073437     0.603588483978
    H            2.472959854694    -0.638335790251     1.819885247732
    H            3.256040498639     0.287458749696    -0.990088274416
    H            2.504078429538     1.319475279397     0.210896374482
    H            4.108137585988     0.678423678728     0.492427835209

  Mulliken Charges: (a.u.)
   Center  Symbol    Alpha    Beta     Spin     Total
       1     H     0.28119  0.28119  0.00000  0.43762
       2     O     4.37171  4.37171  0.00000 -0.74343
       3     C     2.99018  2.99018  0.00000  0.01965
       4     C     3.16074  3.16074  0.00000 -0.32147
       5     H     0.43305  0.43305  0.00000  0.13390
       6     H     0.43281  0.43281  0.00000  0.13437
       7     C     3.16267  3.16267  0.00000 -0.32534
       8     H     0.41420  0.41420  0.00000  0.17161
       9     H     0.41486  0.41486  0.00000  0.17028
      10     C     3.15477  3.15477  0.00000 -0.30954
      11     H     0.42197  0.42197  0.00000  0.15606
      12     H     0.42147  0.42147  0.00000  0.15705
      13     C     3.15392  3.15392  0.00000 -0.30784
      14     H     0.42024  0.42024  0.00000  0.15953
      15     H     0.42004  0.42004  0.00000  0.15993
      16     C     3.24019  3.24019  0.00000 -0.48038
      17     H     0.42095  0.42095  0.00000  0.15810
      18     H     0.42327  0.42327  0.00000  0.15346
      19     H     0.42124  0.42124  0.00000  0.15751
      20     H     0.42116  0.42116  0.00000  0.15768
      21     H     0.41938  0.41938  0.00000  0.16124

   Total alpha = 29.00000, Total beta = 29.00000, Total charge = -0.00000
