  ==> Input File <==

--------------------------------------------------------------------------
set {
	reference rhf
	basis 6-31G*
}

set_num_threads( 4 )
memory 2 gb

molecule MOL {
0 1

H	 0.335692	 -3.221443	 1.633079
O	 0.505445	 -2.549460	 0.980079
C	 -0.504698	 -1.680862	 1.007985
C	 -0.318135	 -0.576402	 0.000164
O	 -1.421603	 -1.801070	 1.753526
C	 -1.454360	 0.441875	 -0.000474
H	 0.636373	 -0.102035	 0.212044
H	 -0.206278	 -1.042927	 -0.974950
C	 -2.826123	 -0.230780	 0.000056
H	 -1.357605	 1.085198	 -0.868380
H	 -1.357504	 1.086451	 0.866496
H	 -2.959731	 -0.858053	 -0.876869
H	 -3.619374	 0.509403	 -0.000080
H	 -2.959371	 -0.857318	 0.877556

	symmetry c1
}
set optking {
	frozen_dihedral = ("
		7 4 6 10
	")
}

ee = optimize('scf')
oeprop('DIPOLE', 'QUADRUPOLE', 'MULLIKEN_CHARGES')
f=open( 'psi4out.xyz', 'w' )
f.write( "14  " )
f.write( str(ee) + "\n" )
f.write( MOL.save_string_xyz() )
f.close()
--------------------------------------------------------------------------

    Molecular point group: c1
  Charge       = 0
  Multiplicity = 1
  Basis Set: 6-31G*
  Basis Set:
  @DF-RHF Final Energy:  -305.87119345767405
    Total Energy =                       -305.8711934576741100
    Molecular point group: c1
  Basis Set: 6-31G*
  Basis Set:
  Basis Set: 6-31G*
  Basis Set:
  @DF-RHF Final Energy:  -305.87678168797686
    Total Energy =                       -305.8767816879768588
  Basis Set: 6-31G*
  Basis Set:
  Basis Set: 6-31G*
  Basis Set:
  @DF-RHF Final Energy:  -305.87767484897819
    Total Energy =                       -305.8776748489781880
  Basis Set: 6-31G*
  Basis Set:
  Basis Set: 6-31G*
  Basis Set:
  @DF-RHF Final Energy:  -305.87749475499288
    Total Energy =                       -305.8774947549926537
  Basis Set: 6-31G*
  Basis Set:
  @DF-RHF Final Energy:  -305.87825084971428
    Total Energy =                       -305.8782508497144477
  @DF-RHF Final Energy:  -305.87845984227556
    Total Energy =                       -305.8784598422757881
  Basis Set: 6-31G*
  Basis Set:
  @DF-RHF Final Energy:  -305.87856513580869
    Total Energy =                       -305.8785651358087989
  Basis Set: 6-31G*
  Basis Set:
  Basis Set: 6-31G*
  Basis Set:
  @DF-RHF Final Energy:  -305.87857645936504
    Total Energy =                       -305.8785764593649219
  Basis Set: 6-31G*
  Basis Set:
  Basis Set: 6-31G*
  Basis Set:
  @DF-RHF Final Energy:  -305.87857797405559
    Total Energy =                       -305.8785779740557018
  Basis Set: 6-31G*
  Basis Set:
  Charge       = 0
  Multiplicity = 1
  Basis Set: 6-31G*
  Basis Set:

    Orbital Energies (a.u.)
    -----------------------

    Doubly Occupied:

       1A    -20.614492     2A    -20.550880     3A    -11.382087
       4A    -11.241786     5A    -11.228503     6A    -11.210046
       7A     -1.475876     8A     -1.366028     9A     -1.081241
      10A     -0.975771    11A     -0.862024    12A     -0.787271
      13A     -0.702480    14A     -0.688305    15A     -0.659790
      16A     -0.616774    17A     -0.591843    18A     -0.566617
      19A     -0.557213    20A     -0.498579    21A     -0.489627
      22A     -0.486250    23A     -0.475725    24A     -0.440419

  @DF-RHF Final Energy:  -305.87857817566294

   => Energetics <=

    Nuclear Repulsion Energy =            245.3513767762416649
    One-Electron Energy =                -903.3606567745803204
    Two-Electron Energy =                 352.1307018226760874
    DFT Exchange-Correlation Energy =       0.0000000000000000
    Empirical Dispersion Energy =           0.0000000000000000
    PCM Polarization Energy =               0.0000000000000000
    EFP Energy =                            0.0000000000000000
    Total Energy =                       -305.8785781756625965
    Molecular point group: c1
  Basis Set: 6-31G*
  Basis Set:

  -Total Gradient:
     Atom            X                  Y                   Z
    ------   -----------------  -----------------  -----------------
       1        0.000007075708    -0.000012519629     0.000003506008
       2       -0.000027287884     0.000021872609     0.000025176314
       3        0.000014965598     0.000003618673    -0.000041280634
       4        0.000373497035     0.000448508502    -0.006573347115
       5       -0.000009822634    -0.000007027119     0.000012213129
       6        0.002979771349     0.003565376585     0.004452514326
       7       -0.000744464748    -0.000896007639     0.004839663597
       8       -0.000002402499     0.000013649047    -0.000004038638
       9        0.000019354116     0.000018234540     0.000007207953
      10       -0.002627480057    -0.003140545210    -0.002722228222
      11       -0.000000751775    -0.000008396463    -0.000002101358
      12       -0.000000259613     0.000000110198    -0.000002319452
      13        0.000005345186     0.000001977538    -0.000000968886
      14        0.000012460216    -0.000008851626     0.000006002974

  **** Optimization is complete! (in 10 steps) ****
    Final optimized geometry and variables:
    Molecular point group: c1

    Geometry (in Angstrom), charge = 0, multiplicity = 1:

    H            1.178133328239    -2.248824627032     0.806664508844
    O            1.228981870243    -1.636099714264     0.079188169123
    C            0.548319385591    -0.541764552338     0.413104167057
    C            0.633611200074     0.527023842965    -0.649609977910
    O           -0.007326413838    -0.439211560412     1.459075353715
    C           -0.541956652098     1.508720750196    -0.645312869889
    H            1.554969749494     1.055117035969    -0.411011366968
    H            0.764873440542     0.056199244402    -1.615724247690
    C           -1.913718913670     0.838211730674    -0.759654259159
    H           -0.422547734091     2.155936046547    -1.509640178449
    H           -0.503613620014     2.125006072645     0.244811309681
    H           -1.966176085071     0.207208838606    -1.643580295574
    H           -2.693304680474     1.588143751919    -0.847312684002
    H           -2.134629760501     0.228901701594     0.107171640701

  Mulliken Charges: (a.u.)
   Center  Symbol    Alpha    Beta     Spin     Total
       1     H     0.26804  0.26804  0.00000  0.46391
       2     O     4.34955  4.34955  0.00000 -0.69910
       3     C     2.62413  2.62413  0.00000  0.75174
       4     C     3.21048  3.21048  0.00000 -0.42096
       5     O     4.28148  4.28148  0.00000 -0.56296
       6     C     3.15121  3.15121  0.00000 -0.30241
       7     H     0.39624  0.39624  0.00000  0.20751
       8     H     0.39870  0.39870  0.00000  0.20260
       9     C     3.25085  3.25085  0.00000 -0.50170
      10     H     0.41707  0.41707  0.00000  0.16586
      11     H     0.40826  0.40826  0.00000  0.18347
      12     H     0.42376  0.42376  0.00000  0.15248
      13     H     0.41727  0.41727  0.00000  0.16547
      14     H     0.40296  0.40296  0.00000  0.19408

   Total alpha = 24.00000, Total beta = 24.00000, Total charge =  0.00000
