  ==> Input File <==

--------------------------------------------------------------------------
set {
	reference rhf
	basis 6-31G*
}

set_num_threads( 4 )
memory 2 gb

molecule MOL {
0 1

O	 0.625848	 1.349995	 -0.000749
C	 0.486307	 0.169203	 0.000779
C	 1.608116	 -0.841643	 0.000302
O	 -0.698257	 -0.426125	 0.001050
C	 2.990107	 -0.200498	 -0.000684
H	 1.468623	 -1.481519	 -0.865924
H	 1.469683	 -1.481289	 0.866878
H	 3.129736	 0.423364	 -0.875135
H	 3.757882	 -0.966877	 -0.001197
H	 3.130964	 0.423383	 0.873533
C	 -1.818777	 0.338674	 0.433392
C	 -3.039273	 -0.552510	 0.341241
H	 -1.913409	 1.212512	 -0.196716
H	 -1.645701	 0.676217	 1.446161
H	 -3.195718	 -0.886485	 -0.678143
H	 -3.920350	 -0.006731	 0.662918
H	 -2.926673	 -1.425731	 0.973746

	symmetry c1
}
set optking {
	frozen_dihedral = ("
		11 4 2 3
	")
}

ee = optimize('scf')
oeprop('DIPOLE', 'QUADRUPOLE', 'MULLIKEN_CHARGES')
f=open( 'psi4out.xyz', 'w' )
f.write( "17  " )
f.write( str(ee) + "\n" )
f.write( MOL.save_string_xyz() )
f.close()
--------------------------------------------------------------------------

    Molecular point group: c1
  Charge       = 0
  Multiplicity = 1
  Basis Set: 6-31G*
  Basis Set:
  @DF-RHF Final Energy:  -344.90955550978043
    Total Energy =                       -344.9095555097803185
    Molecular point group: c1
  Basis Set: 6-31G*
  Basis Set:
  Basis Set: 6-31G*
  Basis Set:
  @DF-RHF Final Energy:  -344.90716486287545
    Total Energy =                       -344.9071648628752200
  Basis Set: 6-31G*
  Basis Set:
  Basis Set: 6-31G*
  Basis Set:
  @DF-RHF Final Energy:  -344.90985672227197
    Total Energy =                       -344.9098567222719112
  Basis Set: 6-31G*
  Basis Set:
  Basis Set: 6-31G*
  Basis Set:
  @DF-RHF Final Energy:  -344.90993262269097
    Total Energy =                       -344.9099326226906896
  Basis Set: 6-31G*
  Basis Set:
  Basis Set: 6-31G*
  Basis Set:
  @DF-RHF Final Energy:  -344.90996806161513
    Total Energy =                       -344.9099680616153591
  Basis Set: 6-31G*
  Basis Set:
  Charge       = 0
  Multiplicity = 1
  Basis Set: 6-31G*
  Basis Set:

    Orbital Energies (a.u.)
    -----------------------

    Doubly Occupied:

       1A    -20.599188     2A    -20.545039     3A    -11.371596
       4A    -11.285640     5A    -11.237954     6A    -11.222580
       7A    -11.216076     8A     -1.466424     9A     -1.362073
      10A     -1.069666    11A     -1.032183    12A     -0.910404
      13A     -0.848688    14A     -0.772468    15A     -0.696031
      16A     -0.687888    17A     -0.664617    18A     -0.629531
      19A     -0.583381    20A     -0.573099    21A     -0.557827
      22A     -0.524374    23A     -0.520797    24A     -0.513786
      25A     -0.504097    26A     -0.492742    27A     -0.452299
      28A     -0.435564

  @DF-RHF Final Energy:  -344.90997065291765

   => Energetics <=

    Nuclear Repulsion Energy =            314.6187246429923334
    One-Electron Energy =               -1093.5053667373053941
    Two-Electron Energy =                 433.9766714413952968
    DFT Exchange-Correlation Energy =       0.0000000000000000
    Empirical Dispersion Energy =           0.0000000000000000
    PCM Polarization Energy =               0.0000000000000000
    EFP Energy =                            0.0000000000000000
    Total Energy =                       -344.9099706529177638
    Molecular point group: c1
  Basis Set: 6-31G*
  Basis Set:

  -Total Gradient:
     Atom            X                  Y                   Z
    ------   -----------------  -----------------  -----------------
       1       -0.000048984043    -0.000106902045    -0.000037555650
       2        0.000743039455    -0.000229627483    -0.003805464871
       3       -0.000202985874    -0.000312235851     0.004262212137
       4       -0.000926178491     0.002561380925    -0.004807693709
       5       -0.000013594622    -0.000048835354    -0.000009803608
       6       -0.000007597156    -0.000005640457     0.000001153156
       7       -0.000008506022    -0.000026512269    -0.000005367106
       8       -0.000006091255     0.000008604226    -0.000002940952
       9        0.000008234978     0.000009584818     0.000007405617
      10        0.000005696444     0.000001219637    -0.000001414746
      11        0.000499613559    -0.001906965345     0.004452716522
      12       -0.000013456268     0.000025390208    -0.000019431375
      13       -0.000012348813    -0.000004404127    -0.000010614283
      14       -0.000016874724     0.000032132579    -0.000006711003
      15       -0.000007732601    -0.000010562487    -0.000010332346
      16       -0.000003559314    -0.000002344992    -0.000004633902
      17        0.000011324750     0.000015718013    -0.000001523883

  **** Optimization is complete! (in 6 steps) ****
    Final optimized geometry and variables:
    Molecular point group: c1

    Geometry (in Angstrom), charge = 0, multiplicity = 1:

    O            0.630302950094     1.363045634412     0.099340647903
    C            0.482539422131     0.196018036728    -0.069939868189
    C            1.594275063894    -0.824785456938    -0.102827976122
    O           -0.708667922218    -0.380378757191    -0.180687368512
    C            2.980974499000    -0.200502125171    -0.195185306996
    H            1.407477393898    -1.507391124080    -0.925341984909
    H            1.490819752382    -1.415653527515     0.803589391309
    H            3.089746582514     0.374452915820    -1.107539743700
    H            3.741439952011    -0.974062761915    -0.188712900133
    H            3.162976600265     0.466838356116     0.637693899502
    C           -1.841502075295     0.361081839961     0.260973346731
    C           -3.045987843283    -0.551322187737     0.167394309251
    H           -1.957956976972     1.239038856285    -0.358937447411
    H           -1.667999696684     0.691354137033     1.276827314415
    H           -3.200507202071    -0.878707461523    -0.854405977754
    H           -3.935453155836    -0.024310437533     0.497248719191
    H           -2.914556083015    -1.428065758823     0.791265060253

  Mulliken Charges: (a.u.)
   Center  Symbol    Alpha    Beta     Spin     Total
       1     O     4.28405  4.28405  0.00000 -0.56809
       2     C     2.60536  2.60536  0.00000  0.78928
       3     C     3.20515  3.20515  0.00000 -0.41029
       4     O     4.31430  4.31430  0.00000 -0.62859
       5     C     3.23981  3.23981  0.00000 -0.47962
       6     H     0.40086  0.40086  0.00000  0.19828
       7     H     0.40115  0.40115  0.00000  0.19769
       8     H     0.41213  0.41213  0.00000  0.17574
       9     H     0.41796  0.41796  0.00000  0.16407
      10     H     0.40741  0.40741  0.00000  0.18518
      11     C     3.00221  3.00221  0.00000 -0.00442
      12     C     3.24832  3.24832  0.00000 -0.49664
      13     H     0.40817  0.40817  0.00000  0.18366
      14     H     0.41330  0.41330  0.00000  0.17340
      15     H     0.41089  0.41089  0.00000  0.17822
      16     H     0.41635  0.41635  0.00000  0.16729
      17     H     0.41258  0.41258  0.00000  0.17485

   Total alpha = 28.00000, Total beta = 28.00000, Total charge =  0.00000
