  ==> Input File <==

--------------------------------------------------------------------------
set {
	reference rhf
	basis cc-pvtz
}

set_num_threads( 4 )
memory 2 gb

molecule MOL {
0 1

H	 -1.778339	 1.131654	 0.149444
N	 -1.851927	 0.161443	 -0.071573
C	 -0.561396	 -0.500007	 0.035200
H	 -2.209435	 0.097405	 -1.001854
C	 0.575129	 0.507849	 -0.048832
H	 -0.478089	 -1.200753	 -0.788956
H	 -0.456191	 -1.081816	 0.952176
C	 1.951750	 -0.141983	 0.035101
H	 0.478254	 1.061643	 -0.975981
H	 0.467676	 1.231891	 0.755499
H	 2.101550	 -0.848142	 -0.774949
H	 2.738260	 0.600794	 -0.026526
H	 2.078939	 -0.679792	 0.968824

	symmetry c1
}
set optking {
	frozen_dihedral = ("
		1 2 3 6
	")
}

ee = optimize('scf')
oeprop('DIPOLE', 'QUADRUPOLE', 'MULLIKEN_CHARGES')
f=open( 'psi4out.xyz', 'w' )
f.write( "13  " )
f.write( str(ee) + "\n" )
f.write( MOL.save_string_xyz() )
f.close()
--------------------------------------------------------------------------

    Molecular point group: c1
  Charge       = 0
  Multiplicity = 1
  Basis Set: CC-PVTZ
  Basis Set:
  @DF-RHF Final Energy:  -173.34855954152900
    Total Energy =                       -173.3485595415289993
    Molecular point group: c1
  Basis Set: CC-PVTZ
  Basis Set:
  Basis Set: CC-PVTZ
  Basis Set:
  @DF-RHF Final Energy:  -173.34952657132283
    Total Energy =                       -173.3495265713229116
  Basis Set: CC-PVTZ
  Basis Set:
  Basis Set: CC-PVTZ
  Basis Set:
  @DF-RHF Final Energy:  -173.34967176986558
    Total Energy =                       -173.3496717698655516
  Basis Set: CC-PVTZ
  Basis Set:
  Basis Set: CC-PVTZ
  Basis Set:
  @DF-RHF Final Energy:  -173.34967387432843
    Total Energy =                       -173.3496738743284595
  Basis Set: CC-PVTZ
  Basis Set:
  Charge       = 0
  Multiplicity = 1
  Basis Set: CC-PVTZ
  Basis Set:

    Orbital Energies (a.u.)
    -----------------------

    Doubly Occupied:

       1A    -15.525298     2A    -11.238599     3A    -11.215742
       4A    -11.210239     5A     -1.177106     6A     -1.038796
       7A     -0.900572     8A     -0.807716     9A     -0.670603
      10A     -0.616761    11A     -0.606755    12A     -0.558119
      13A     -0.538901    14A     -0.504281    15A     -0.485286
      16A     -0.471229    17A     -0.380232

  @DF-RHF Final Energy:  -173.34967405876435

   => Energetics <=

    Nuclear Repulsion Energy =            131.8587391244262506
    One-Electron Energy =                -494.5243578831668856
    Two-Electron Energy =                 189.3159446999764555
    DFT Exchange-Correlation Energy =       0.0000000000000000
    Empirical Dispersion Energy =           0.0000000000000000
    PCM Polarization Energy =               0.0000000000000000
    EFP Energy =                            0.0000000000000000
    Total Energy =                       -173.3496740587641511
    Molecular point group: c1
  Basis Set: CC-PVTZ
  Basis Set:

  -Total Gradient:
     Atom            X                  Y                   Z
    ------   -----------------  -----------------  -----------------
       1        0.000384090856     0.000579036143    -0.002648669481
       2       -0.000214962475    -0.000282671494     0.002976745796
       3       -0.001075466860    -0.002089391218     0.001103503150
       4        0.000012241817    -0.000009530861     0.000007618261
       5       -0.000057284244    -0.000017470068    -0.000006858024
       6        0.000914304112     0.001808788442    -0.001451558271
       7        0.000006391746     0.000002078951     0.000007060827
       8        0.000011044223     0.000005860656     0.000017532285
       9       -0.000004310364    -0.000001983701     0.000002353966
      10        0.000007291129     0.000008021866    -0.000009576928
      11       -0.000007016072     0.000007075633     0.000002552928
      12        0.000018881989    -0.000006196235     0.000004114896
      13        0.000004794145    -0.000003618114    -0.000004819403

  **** Optimization is complete! (in 5 steps) ****
    Final optimized geometry and variables:
    Molecular point group: c1

    Geometry (in Angstrom), charge = 0, multiplicity = 1:

    H           -1.850177356157     1.094371084580     0.193983783290
    N           -1.891807052604     0.121297532751    -0.023308861059
    C           -0.568845977815    -0.491780381418     0.038293024256
    H           -2.274401511249     0.053966478399    -0.941275097663
    C            0.586133793829     0.502136753668    -0.036923014907
    H           -0.472529243816    -1.194215742980    -0.782858599711
    H           -0.482957723904    -1.065518962493     0.955864531197
    C            1.952906773343    -0.165450916661     0.067498810328
    H            0.517490657647     1.056635918638    -0.969039107113
    H            0.477860356571     1.229437991252     0.764328497337
    H            2.105414688289    -0.874267895153    -0.739666614234
    H            2.751231309612     0.565656190795     0.019373674887
    H            2.054729202986    -0.704731299696     1.003141174377

  Mulliken Charges: (a.u.)
   Center  Symbol    Alpha    Beta     Spin     Total
       1     H     0.42966  0.42966  0.00000  0.14068
       2     N     3.69290  3.69290  0.00000 -0.38579
       3     C     3.01746  3.01746  0.00000 -0.03493
       4     H     0.42935  0.42935  0.00000  0.14130
       5     C     3.08485  3.08485  0.00000 -0.16970
       6     H     0.46089  0.46089  0.00000  0.07822
       7     H     0.45981  0.45981  0.00000  0.08039
       8     C     3.15286  3.15286  0.00000 -0.30572
       9     H     0.45760  0.45760  0.00000  0.08481
      10     H     0.45728  0.45728  0.00000  0.08544
      11     H     0.45531  0.45531  0.00000  0.08938
      12     H     0.44793  0.44793  0.00000  0.10414
      13     H     0.45411  0.45411  0.00000  0.09178

   Total alpha = 17.00000, Total beta = 17.00000, Total charge =  0.00000
