  ==> Input File <==

--------------------------------------------------------------------------
set {
	reference rhf
	basis 6-31G*
}

set_num_threads( 1 )
memory 2 gb

molecule MOL {
0 1

H	 -3.299638	 1.685597	 0.620708
C	 -2.849277	 0.722531	 0.763323
C	 -1.767049	 0.400619	 0.093132
H	 -3.302666	 0.041697	 1.458890
O	 -1.180634	 -0.819263	 0.215062
H	 -1.293524	 1.070634	 -0.602604
C	 0.051604	 -1.018856	 -0.387932
C	 1.043764	 0.054862	 -0.001873
H	 -0.017620	 -1.041351	 -1.469781
H	 0.437898	 -1.966374	 -0.042284
F	 2.212596	 -0.199467	 -0.571921
F	 0.652529	 1.252447	 -0.405055
F	 1.230877	 0.110694	 1.300533

	symmetry c1
}
set optking {
	frozen_dihedral = ("
		11 8 7 9,
		6 3 2 1,
		6 3 5 7
	")
}

ee = energy('scf')
oeprop('DIPOLE', 'QUADRUPOLE', 'MULLIKEN_CHARGES')
f=open( 'psi4out.xyz', 'w' )
f.write( "13  " )
f.write( str(ee) + "\n" )
f.write( MOL.save_string_xyz() )
f.close()
--------------------------------------------------------------------------

    Molecular point group: c1

    Geometry (in Angstrom), charge = 0, multiplicity = 1:

       Center              X                  Y                   Z               Mass
    ------------   -----------------  -----------------  -----------------  -----------------
           H         -3.372222857854     1.600677510948     0.500486548916     1.007825032070
           C         -2.921861857854     0.637611510948     0.643101548916    12.000000000000
           C         -1.839633857854     0.315699510948    -0.027089451084    12.000000000000
           H         -3.375250857854    -0.043222489052     1.338668548916     1.007825032070
           O         -1.253218857854    -0.904182489052     0.094840548916    15.994914619560
           H         -1.366108857854     0.985714510948    -0.722825451084     1.007825032070
           C         -0.020980857854    -1.103775489052    -0.508153451084    12.000000000000
           C          0.971179142146    -0.030057489052    -0.122094451084    12.000000000000
           H         -0.090204857854    -1.126270489052    -1.590002451084     1.007825032070
           H          0.365313142146    -2.051293489052    -0.162505451084     1.007825032070
           F          2.140011142146    -0.284386489052    -0.692142451084    18.998403224000
           F          0.579944142146     1.167527510948    -0.525276451084    18.998403224000
           F          1.158292142146     0.025774510948     1.180311548916    18.998403224000

  Charge       = 0
  Multiplicity = 1
  Basis Set: 6-31G*
  Basis Set:

    Orbital Energies (a.u.)
    -----------------------

    Doubly Occupied:

       1A    -26.352634     2A    -26.348753     3A    -26.346118
       4A    -20.605060     5A    -11.509211     6A    -11.319204
       7A    -11.290290     8A    -11.211124     9A     -1.749076
      10A     -1.648921    11A     -1.643764    12A     -1.436326
      13A     -1.082876    14A     -1.015966    15A     -0.931078
      16A     -0.843899    17A     -0.838340    18A     -0.834757
      19A     -0.774387    20A     -0.728394    21A     -0.714401
      22A     -0.701935    23A     -0.678621    24A     -0.661779
      25A     -0.659609    26A     -0.649925    27A     -0.638635
      28A     -0.587318    29A     -0.559131    30A     -0.524675
      31A     -0.500017    32A     -0.347417

  @DF-RHF Final Energy:  -527.52636130522296

   => Energetics <=

    Nuclear Repulsion Energy =            420.1905289833496795
    One-Electron Energy =               -1563.9665264913915053
    Two-Electron Energy =                 616.2496362028189196
    DFT Exchange-Correlation Energy =       0.0000000000000000
    Empirical Dispersion Energy =           0.0000000000000000
    PCM Polarization Energy =               0.0000000000000000
    EFP Energy =                            0.0000000000000000
    Total Energy =                       -527.5263613052229630

  Mulliken Charges: (a.u.)
   Center  Symbol    Alpha    Beta     Spin     Total
       1     H     0.40791  0.40791  0.00000  0.18418
       2     C     3.23623  3.23623  0.00000 -0.47245
       3     C     2.91107  2.91107  0.00000  0.17786
       4     H     0.40436  0.40436  0.00000  0.19127
       5     O     4.30544  4.30544  0.00000 -0.61088
       6     H     0.38915  0.38915  0.00000  0.22171
       7     C     3.05259  3.05259  0.00000 -0.10518
       8     C     2.46443  2.46443  0.00000  1.07114
       9     H     0.40434  0.40434  0.00000  0.19131
      10     H     0.38891  0.38891  0.00000  0.22217
      11     F     4.68227  4.68227  0.00000 -0.36454
      12     F     4.67946  4.67946  0.00000 -0.35891
      13     F     4.67384  4.67384  0.00000 -0.34767

   Total alpha = 32.00000, Total beta = 32.00000, Total charge =  0.00000
