  ==> Input File <==

--------------------------------------------------------------------------
set {
	reference rhf
	basis 6-31G*
}

set_num_threads( 1 )
memory 2 gb

molecule MOL {
0 1

H	 -3.161908	 -0.840114	 1.446659
C	 -3.253309	 -0.606228	 0.378687
C	 -2.711288	 0.740590	 -0.027398
O	 -3.751208	 -1.389040	 -0.363643
C	 -1.269737	 0.963412	 0.450657
H	 -2.792622	 0.831518	 -1.104350
H	 -3.357773	 1.493980	 0.421061
C	 -0.252658	 0.041456	 -0.226725
H	 -1.000710	 1.998319	 0.261249
H	 -1.222766	 0.831401	 1.530529
C	 1.180775	 0.282413	 0.250794
H	 -0.305388	 0.183963	 -1.304110
H	 -0.520207	 -0.998174	 -0.047488
C	 2.148627	 -0.814315	 -0.201312
H	 1.516199	 1.249228	 -0.115937
H	 1.192670	 0.346017	 1.338083
C	 3.580890	 -0.659131	 0.322722
H	 2.166869	 -0.852443	 -1.289387
H	 1.762857	 -1.776509	 0.128956
C	 4.324889	 0.564933	 -0.213704
H	 4.142010	 -1.551473	 0.056605
H	 3.564836	 -0.624694	 1.410140
H	 4.342616	 0.565491	 -1.300421
H	 3.866655	 1.493402	 0.110242
H	 5.353900	 0.572371	 0.132816

	symmetry c1
}
set optking {
	frozen_dihedral = ("
		6 3 5 8,
		6 3 2 4,
		3 5 8 12,
		8 11 14 18,
		20 17 14 18
	")
}

ee = energy('scf')
oeprop('DIPOLE', 'QUADRUPOLE', 'MULLIKEN_CHARGES')
f=open( 'psi4out.xyz', 'w' )
f.write( "25  " )
f.write( str(ee) + "\n" )
f.write( MOL.save_string_xyz() )
f.close()
--------------------------------------------------------------------------

    Molecular point group: c1

    Geometry (in Angstrom), charge = 0, multiplicity = 1:

       Center              X                  Y                   Z               Mass
    ------------   -----------------  -----------------  -----------------  -----------------
           H         -3.166957261430    -0.737750165630     1.410162276401     1.007825032070
           C         -3.258358261430    -0.503864165630     0.342190276401    12.000000000000
           C         -2.716337261430     0.842953834370    -0.063894723599    12.000000000000
           O         -3.756257261430    -1.286676165630    -0.400139723599    15.994914619560
           C         -1.274786261430     1.065775834370     0.414160276401    12.000000000000
           H         -2.797671261430     0.933881834370    -1.140846723599     1.007825032070
           H         -3.362822261430     1.596343834370     0.384564276401     1.007825032070
           C         -0.257707261430     0.143819834370    -0.263221723599    12.000000000000
           H         -1.005759261430     2.100682834370     0.224752276401     1.007825032070
           H         -1.227815261430     0.933764834370     1.494032276401     1.007825032070
           C          1.175725738570     0.384776834370     0.214297276401    12.000000000000
           H         -0.310437261430     0.286326834370    -1.340606723599     1.007825032070
           H         -0.525256261430    -0.895810165630    -0.083984723599     1.007825032070
           C          2.143577738570    -0.711951165630    -0.237808723599    12.000000000000
           H          1.511149738570     1.351591834370    -0.152433723599     1.007825032070
           H          1.187620738570     0.448380834370     1.301586276401     1.007825032070
           C          3.575840738570    -0.556767165630     0.286225276401    12.000000000000
           H          2.161819738570    -0.750079165630    -1.325883723599     1.007825032070
           H          1.757807738570    -1.674145165630     0.092459276401     1.007825032070
           C          4.319839738570     0.667296834370    -0.250200723599    12.000000000000
           H          4.136960738570    -1.449109165630     0.020108276401     1.007825032070
           H          3.559786738570    -0.522330165630     1.373643276401     1.007825032070
           H          4.337566738570     0.667854834370    -1.336917723599     1.007825032070
           H          3.861605738570     1.595765834370     0.073745276401     1.007825032070
           H          5.348850738570     0.674734834370     0.096319276401     1.007825032070

  Charge       = 0
  Multiplicity = 1
  Basis Set: 6-31G*
  Basis Set:

    Orbital Energies (a.u.)
    -----------------------

    Doubly Occupied:

       1A    -20.561988     2A    -11.326175     3A    -11.235384
       4A    -11.234619     5A    -11.223804     6A    -11.219737
       7A    -11.218007     8A    -11.217035     9A    -11.210632
      10A     -1.401975    11A     -1.104041    12A     -1.069717
      13A     -1.013375    14A     -0.942424    15A     -0.875327
      16A     -0.820593    17A     -0.788071    18A     -0.781515
      19A     -0.664104    20A     -0.662560    21A     -0.632403
      22A     -0.626071    23A     -0.600685    24A     -0.593521
      25A     -0.578229    26A     -0.547955    27A     -0.537546
      28A     -0.525025    29A     -0.507142    30A     -0.495332
      31A     -0.491599    32A     -0.479736    33A     -0.464016
      34A     -0.459219    35A     -0.441152    36A     -0.409525

  @DF-RHF Final Energy:  -387.12150071651132

   => Energetics <=

    Nuclear Repulsion Energy =            439.3569626793437806
    One-Electron Energy =               -1395.0365821507480177
    Two-Electron Energy =                 568.5581187548920070
    DFT Exchange-Correlation Energy =       0.0000000000000000
    Empirical Dispersion Energy =           0.0000000000000000
    PCM Polarization Energy =               0.0000000000000000
    EFP Energy =                            0.0000000000000000
    Total Energy =                       -387.1215007165122870

  Mulliken Charges: (a.u.)
   Center  Symbol    Alpha    Beta     Spin     Total
       1     H     0.43262  0.43262  0.00000  0.13475
       2     C     2.83076  2.83076  0.00000  0.33849
       3     C     3.20826  3.20826  0.00000 -0.41652
       4     O     4.23777  4.23777  0.00000 -0.47554
       5     C     3.16672  3.16672  0.00000 -0.33344
       6     H     0.39970  0.39970  0.00000  0.20060
       7     H     0.40671  0.40671  0.00000  0.18659
       8     C     3.15500  3.15500  0.00000 -0.30999
       9     H     0.41285  0.41285  0.00000  0.17431
      10     H     0.41955  0.41955  0.00000  0.16091
      11     C     3.15443  3.15443  0.00000 -0.30886
      12     H     0.41745  0.41745  0.00000  0.16511
      13     H     0.41864  0.41864  0.00000  0.16272
      14     C     3.15335  3.15335  0.00000 -0.30670
      15     H     0.41988  0.41988  0.00000  0.16024
      16     H     0.42420  0.42420  0.00000  0.15161
      17     C     3.15274  3.15274  0.00000 -0.30549
      18     H     0.42274  0.42274  0.00000  0.15453
      19     H     0.42080  0.42080  0.00000  0.15839
      20     C     3.24135  3.24135  0.00000 -0.48269
      21     H     0.41997  0.41997  0.00000  0.16006
      22     H     0.42334  0.42334  0.00000  0.15331
      23     H     0.42180  0.42180  0.00000  0.15641
      24     H     0.42069  0.42069  0.00000  0.15863
      25     H     0.41870  0.41870  0.00000  0.16260

   Total alpha = 36.00000, Total beta = 36.00000, Total charge =  0.00000
