  ==> Input File <==

--------------------------------------------------------------------------
set {
	reference rhf
	basis 6-31G*
}

set_num_threads( 4 )
memory 2 gb

molecule MOL {
0 1

H	 -0.337816	 2.368667	 0.969297
C	 0.527741	 1.718440	 1.144847
C	 0.692068	 0.589600	 0.160137
O	 1.256360	 1.928822	 2.059714
C	 -0.558097	 -0.297372	 0.091132
H	 1.567859	 0.017118	 0.442512
H	 0.877622	 1.028131	 -0.819705
C	 -1.850991	 0.512573	 -0.019058
H	 -0.476753	 -0.965681	 -0.762987
H	 -0.604799	 -0.930658	 0.975228
C	 -3.096943	 -0.368295	 -0.099594
H	 -1.800724	 1.150330	 -0.898172
H	 -1.931651	 1.177355	 0.838044
H	 -3.060452	 -1.020287	 -0.967456
H	 -3.996858	 0.233488	 -0.175704
H	 -3.191959	 -0.995686	 0.782074

	symmetry c1
}
set optking {
	frozen_dihedral = ("
		6 3 5 9
	")
}

ee = optimize('scf')
oeprop('DIPOLE', 'QUADRUPOLE', 'MULLIKEN_CHARGES')
f=open( 'psi4out.xyz', 'w' )
f.write( "16  " )
f.write( str(ee) + "\n" )
f.write( MOL.save_string_xyz() )
f.close()
--------------------------------------------------------------------------

    Molecular point group: c1
  Charge       = 0
  Multiplicity = 1
  Basis Set: 6-31G*
  Basis Set:
  @DF-RHF Final Energy:  -270.01389208073272
    Total Energy =                       -270.0138920807328873
    Molecular point group: c1
  Basis Set: 6-31G*
  Basis Set:
  Basis Set: 6-31G*
  Basis Set:
  @DF-RHF Final Energy:  -270.01439736844361
    Total Energy =                       -270.0143973684433831
  Basis Set: 6-31G*
  Basis Set:
  Basis Set: 6-31G*
  Basis Set:
  @DF-RHF Final Energy:  -270.01615478795958
    Total Energy =                       -270.0161547879594082
  Basis Set: 6-31G*
  Basis Set:
  Basis Set: 6-31G*
  Basis Set:
  @DF-RHF Final Energy:  -270.01574833544004
    Total Energy =                       -270.0157483354399801
  Basis Set: 6-31G*
  Basis Set:
  @DF-RHF Final Energy:  -270.01630493334022
    Total Energy =                       -270.0163049333400522
  @DF-RHF Final Energy:  -270.01676639078903
    Total Energy =                       -270.0167663907890869
  @DF-RHF Final Energy:  -270.01682020728128
    Total Energy =                       -270.0168202072812846
  Basis Set: 6-31G*
  Basis Set:
  @DF-RHF Final Energy:  -270.01689362560967
    Total Energy =                       -270.0168936256096117
  Basis Set: 6-31G*
  Basis Set:
  Basis Set: 6-31G*
  Basis Set:
  @DF-RHF Final Energy:  -270.01690279200102
    Total Energy =                       -270.0169027920010194
  Basis Set: 6-31G*
  Basis Set:
  Basis Set: 6-31G*
  Basis Set:
  @DF-RHF Final Energy:  -270.01690394264864
    Total Energy =                       -270.0169039426485256
  Basis Set: 6-31G*
  Basis Set:
  Charge       = 0
  Multiplicity = 1
  Basis Set: 6-31G*
  Basis Set:

    Orbital Energies (a.u.)
    -----------------------

    Doubly Occupied:

       1A    -20.561801     2A    -11.325418     3A    -11.235712
       4A    -11.234508     5A    -11.230130     6A    -11.218625
       7A     -1.401496     8A     -1.094638     9A     -1.015887
      10A     -0.904734    11A     -0.831117    12A     -0.772413
      13A     -0.682970    14A     -0.646507    15A     -0.620374
      16A     -0.601984    17A     -0.583802    18A     -0.555996
      19A     -0.526844    20A     -0.516458    21A     -0.490251
      22A     -0.479185    23A     -0.468491    24A     -0.407640

  @DF-RHF Final Energy:  -270.01690413847382

   => Energetics <=

    Nuclear Repulsion Energy =            233.8436135818423907
    One-Electron Energy =                -828.9070721092588201
    Two-Electron Energy =                 325.0465543889426385
    DFT Exchange-Correlation Energy =       0.0000000000000000
    Empirical Dispersion Energy =           0.0000000000000000
    PCM Polarization Energy =               0.0000000000000000
    EFP Energy =                            0.0000000000000000
    Total Energy =                       -270.0169041384737625
    Molecular point group: c1
  Basis Set: 6-31G*
  Basis Set:

  -Total Gradient:
     Atom            X                  Y                   Z
    ------   -----------------  -----------------  -----------------
       1       -0.000002367117    -0.000001247710     0.000001851837
       2        0.000002012797     0.000011645951    -0.000019036577
       3        0.000283762675    -0.000394699915    -0.004104733414
       4        0.000005024341    -0.000004992188     0.000014495110
       5        0.001610817465    -0.002350265159     0.002871273612
       6       -0.000481793334     0.000689315533     0.002999610991
       7        0.000013971786     0.000006467613     0.000001598734
       8        0.000011330284    -0.000002049525     0.000015050113
       9       -0.001437537868     0.002048987177    -0.001784886458
      10       -0.000019663413     0.000009286179    -0.000001745375
      11        0.000002926184    -0.000013997842    -0.000003453213
      12        0.000014342461    -0.000009606623     0.000005974018
      13       -0.000008039239     0.000007822442     0.000004261638
      14       -0.000002913384     0.000002694790    -0.000002263015
      15        0.000005112329     0.000002805802     0.000002559374
      16        0.000003014031    -0.000002166530    -0.000000557376

  **** Optimization is complete! (in 11 steps) ****
    Final optimized geometry and variables:
    Molecular point group: c1

    Geometry (in Angstrom), charge = 0, multiplicity = 1:

    H            0.618960612287     2.001515698490     0.218156554222
    C            1.154972496263     1.101678706213     0.536613643013
    C            1.231362834367    -0.024329221357    -0.467757587833
    O            1.628439803592     1.046794364837     1.626147462999
    C           -0.032557030500    -0.906840863760    -0.463055199372
    H            2.092722661289    -0.622704934142    -0.194947198228
    H            1.386054114834     0.395965791882    -1.457983543775
    C           -1.353387134232    -0.138281403188    -0.586345889446
    H            0.038349367479    -1.591277609969    -1.303835031892
    H           -0.043492019757    -1.504763528076     0.443050396400
    C           -2.556991440962    -1.071916888885    -0.708888150977
    H           -1.314105431377     0.515723945812    -1.455457931050
    H           -1.494037704921     0.505744672378     0.278180105047
    H           -2.476856761057    -1.701164728976    -1.590563176685
    H           -3.482099043027    -0.509867244061    -0.785596613048
    H           -2.635844404230    -1.723151476714     0.156647636835

  Mulliken Charges: (a.u.)
   Center  Symbol    Alpha    Beta     Spin     Total
       1     H     0.42896  0.42896  0.00000  0.14209
       2     C     2.83866  2.83866  0.00000  0.32267
       3     C     3.20435  3.20435  0.00000 -0.40870
       4     O     4.23749  4.23749  0.00000 -0.47498
       5     C     3.15776  3.15776  0.00000 -0.31552
       6     H     0.39863  0.39863  0.00000  0.20275
       7     H     0.41431  0.41431  0.00000  0.17139
       8     C     3.16123  3.16123  0.00000 -0.32245
       9     H     0.41496  0.41496  0.00000  0.17009
      10     H     0.40974  0.40974  0.00000  0.18052
      11     C     3.23977  3.23977  0.00000 -0.47955
      12     H     0.42167  0.42167  0.00000  0.15665
      13     H     0.41765  0.41765  0.00000  0.16471
      14     H     0.42021  0.42021  0.00000  0.15958
      15     H     0.41632  0.41632  0.00000  0.16737
      16     H     0.41830  0.41830  0.00000  0.16340

   Total alpha = 24.00000, Total beta = 24.00000, Total charge =  0.00000
