  ==> Input File <==

--------------------------------------------------------------------------
set {
	reference rhf
	basis cc-pvtz
}

set_num_threads( 4 )
memory 2 gb

molecule MOL {
0 1

O	 1.605557	 -0.145653	 -0.838722
C	 0.860843	 0.273204	 -0.013120
C	 -0.623368	 -0.117453	 -0.005652
C	 1.376611	 1.218217	 1.054099
C	 -0.892588	 -1.253841	 -1.002900
C	 -1.473463	 1.100646	 -0.372896
C	 -0.981836	 -0.579025	 1.418506
H	 -0.609333	 -0.970024	 -2.010649
H	 -1.950451	 -1.487353	 -1.013175
H	 -0.360848	 -2.161259	 -0.746463
H	 -1.232203	 1.461623	 -1.364827
H	 -2.524364	 0.834451	 -0.354500
H	 -1.312381	 1.914833	 0.318657
H	 -2.035706	 -0.826342	 1.468082
H	 -0.425078	 -1.458934	 1.716857
H	 -0.788494	 0.205047	 2.140903
H	 1.522346	 0.667738	 1.976865
H	 2.327159	 1.616787	 0.734616
H	 0.688036	 2.025729	 1.261517

	symmetry c1
}
set optking {
	frozen_dihedral = ("
		1 2 3 5
	")
}

ee = optimize('scf')
oeprop('DIPOLE', 'QUADRUPOLE', 'MULLIKEN_CHARGES')
f=open( 'psi4out.xyz', 'w' )
f.write( "19  " )
f.write( str(ee) + "\n" )
f.write( MOL.save_string_xyz() )
f.close()
--------------------------------------------------------------------------

    Molecular point group: c1
  Charge       = 0
  Multiplicity = 1
  Basis Set: CC-PVTZ
  Basis Set:
  @DF-RHF Final Energy:  -309.17326781178065
    Total Energy =                       -309.1732678117799082
    Molecular point group: c1
  Basis Set: CC-PVTZ
  Basis Set:
  Basis Set: CC-PVTZ
  Basis Set:
  @DF-RHF Final Energy:  -309.17360468463932
    Total Energy =                       -309.1736046846393720
  Basis Set: CC-PVTZ
  Basis Set:
  Basis Set: CC-PVTZ
  Basis Set:
  @DF-RHF Final Energy:  -309.17417490131049
    Total Energy =                       -309.1741749013107778
  Basis Set: CC-PVTZ
  Basis Set:
  Basis Set: CC-PVTZ
  Basis Set:
  @DF-RHF Final Energy:  -309.17418140397820
    Total Energy =                       -309.1741814039779683
  Basis Set: CC-PVTZ
  Basis Set:
  @DF-RHF Final Energy:  -309.17422772940796
    Total Energy =                       -309.1742277294076757
  Basis Set: CC-PVTZ
  Basis Set:
  @DF-RHF Final Energy:  -309.17425053292692
    Total Energy =                       -309.1742505329260666
  Basis Set: CC-PVTZ
  Basis Set:
  Basis Set: CC-PVTZ
  Basis Set:
  @DF-RHF Final Energy:  -309.17414850322353
    Total Energy =                       -309.1741485032231935
  Basis Set: CC-PVTZ
  Basis Set:
  Basis Set: CC-PVTZ
  Basis Set:
  @DF-RHF Final Energy:  -309.17425606421330
    Total Energy =                       -309.1742560642132958
  Basis Set: CC-PVTZ
  Basis Set:
  Charge       = 0
  Multiplicity = 1
  Basis Set: CC-PVTZ
  Basis Set:

    Orbital Energies (a.u.)
    -----------------------

    Doubly Occupied:

       1A    -20.537393     2A    -11.317736     3A    -11.245715
       4A    -11.225060     5A    -11.222500     6A    -11.222298
       7A    -11.206120     8A     -1.398466     9A     -1.110978
      10A     -1.002890    11A     -0.948056    12A     -0.935674
      13A     -0.835973    14A     -0.705406    15A     -0.666741
      16A     -0.633944    17A     -0.621292    18A     -0.600188
      19A     -0.593482    20A     -0.565588    21A     -0.546682
      22A     -0.544809    23A     -0.523899    24A     -0.514932
      25A     -0.501507    26A     -0.472720    27A     -0.468843
      28A     -0.394927

  @DF-RHF Final Energy:  -309.17425625968116

   => Energetics <=

    Nuclear Repulsion Energy =            326.8957963956409571
    One-Electron Energy =               -1067.0124804454399055
    Two-Electron Energy =                 430.9424277901179607
    DFT Exchange-Correlation Energy =       0.0000000000000000
    Empirical Dispersion Energy =           0.0000000000000000
    PCM Polarization Energy =               0.0000000000000000
    EFP Energy =                            0.0000000000000000
    Total Energy =                       -309.1742562596810444
    Molecular point group: c1
  Basis Set: CC-PVTZ
  Basis Set:

  -Total Gradient:
     Atom            X                  Y                   Z
    ------   -----------------  -----------------  -----------------
       1        0.000115635838    -0.000399167157     0.000297555453
       2       -0.000178017492     0.000663881607    -0.000516683077
       3        0.000143241260    -0.000492451389     0.000522557270
       4        0.000017817206    -0.000034938553     0.000002429941
       5       -0.000065201753     0.000229766059    -0.000254453549
       6        0.000012587101     0.000001662738    -0.000009560165
       7       -0.000016155039    -0.000012462693    -0.000016631095
       8        0.000000182270     0.000001822457    -0.000002653227
       9        0.000003908816     0.000006669390     0.000002696324
      10        0.000002277234     0.000009668241    -0.000001795600
      11       -0.000021571712    -0.000000626212    -0.000019785819
      12        0.000002950510     0.000005495431     0.000008690768
      13        0.000017013871     0.000007617038     0.000006992280
      14       -0.000005516734     0.000000389679     0.000001647438
      15        0.000002693467    -0.000003615964    -0.000004090848
      16       -0.000002257096    -0.000001850088    -0.000005836968
      17       -0.000003864504     0.000008644371     0.000004603040
      18       -0.000003835406    -0.000000495322    -0.000004601978
      19       -0.000021887834     0.000009990365    -0.000011080191

  **** Optimization is complete! (in 9 steps) ****
    Final optimized geometry and variables:
    Molecular point group: c1

    Geometry (in Angstrom), charge = 0, multiplicity = 1:

    O            1.604280667999    -0.213794427418    -0.904421867616
    C            0.878036815643     0.201284880291    -0.060693517206
    C           -0.605067898631    -0.190360011741    -0.018173200211
    C            1.424120725674     1.127328761718     1.008734316459
    C           -0.863367607192    -1.319968825450    -1.017086175598
    C           -1.442070154496     1.038821215632    -0.415758540031
    C           -0.994237628037    -0.648981067151     1.395188784500
    H           -0.605706665331    -1.020778618966    -2.023021262063
    H           -1.911890299418    -1.595282546634    -0.997044114189
    H           -0.276510989090    -2.197303747962    -0.777330156015
    H           -1.166087151050     1.395523493681    -1.401258934664
    H           -2.492040978319     0.772189567651    -0.440921478010
    H           -1.329988285879     1.857495923737     0.283975588669
    H           -2.031392230576    -0.962010884210     1.405183721247
    H           -0.392710431051    -1.492844845683     1.715038350377
    H           -0.884287738723     0.140474299076     2.127882223932
    H            1.629465116541     0.549195641234     1.902957961801
    H            2.349810224770     1.555921618867     0.656446780511
    H            0.731954970115     1.912384645401     1.278511200806

  Mulliken Charges: (a.u.)
   Center  Symbol    Alpha    Beta     Spin     Total
       1     O     4.17491  4.17491  0.00000 -0.34983
       2     C     2.85373  2.85373  0.00000  0.29254
       3     C     3.00907  3.00907  0.00000 -0.01814
       4     C     3.16281  3.16281  0.00000 -0.32562
       5     C     3.14978  3.14978  0.00000 -0.29956
       6     C     3.15983  3.15983  0.00000 -0.31966
       7     C     3.16356  3.16356  0.00000 -0.32712
       8     H     0.44053  0.44053  0.00000  0.11894
       9     H     0.45205  0.45205  0.00000  0.09589
      10     H     0.44554  0.44554  0.00000  0.10892
      11     H     0.44192  0.44192  0.00000  0.11616
      12     H     0.44498  0.44498  0.00000  0.11005
      13     H     0.44585  0.44585  0.00000  0.10830
      14     H     0.44297  0.44297  0.00000  0.11406
      15     H     0.44276  0.44276  0.00000  0.11448
      16     H     0.44589  0.44589  0.00000  0.10822
      17     H     0.44520  0.44520  0.00000  0.10960
      18     H     0.43180  0.43180  0.00000  0.13639
      19     H     0.44681  0.44681  0.00000  0.10637

   Total alpha = 28.00000, Total beta = 28.00000, Total charge =  0.00000
