  ==> Input File <==

--------------------------------------------------------------------------
set {
	reference rhf
	basis cc-pvtz
}

set_num_threads( 4 )
memory 2 gb

molecule MOL {
0 1

H	 1.552788	 1.500010	 -1.776766
O	 0.678804	 1.330708	 -1.478214
C	 0.700177	 0.619554	 -0.266242
C	 -0.713111	 0.588314	 0.266177
H	 1.348303	 1.109544	 0.454013
H	 1.055223	 -0.396398	 -0.418431
O	 -1.421673	 -0.521378	 -0.196983
H	 -1.244794	 1.469161	 -0.069059
H	 -0.685100	 0.604721	 1.352683
H	 -0.933408	 -1.297830	 0.014544

	symmetry c1
}
set optking {
	frozen_dihedral = ("
		5 3 4 7
	")
}

ee = optimize('scf')
oeprop('DIPOLE', 'QUADRUPOLE', 'MULLIKEN_CHARGES')
f=open( 'psi4out.xyz', 'w' )
f.write( "10  " )
f.write( str(ee) + "\n" )
f.write( MOL.save_string_xyz() )
f.close()
--------------------------------------------------------------------------

    Molecular point group: c1
  Charge       = 0
  Multiplicity = 1
  Basis Set: CC-PVTZ
  Basis Set:
  @DF-RHF Final Energy:  -229.02010489088491
    Total Energy =                       -229.0201048908848520
    Molecular point group: c1
  Basis Set: CC-PVTZ
  Basis Set:
  Basis Set: CC-PVTZ
  Basis Set:
  @DF-RHF Final Energy:  -229.02109073408585
    Total Energy =                       -229.0210907340858455
  Basis Set: CC-PVTZ
  Basis Set:
  Basis Set: CC-PVTZ
  Basis Set:
  @DF-RHF Final Energy:  -229.02140517859038
    Total Energy =                       -229.0214051785903280
  Basis Set: CC-PVTZ
  Basis Set:
  Basis Set: CC-PVTZ
  Basis Set:
  @DF-RHF Final Energy:  -229.02143024121176
    Total Energy =                       -229.0214302412117036
  Basis Set: CC-PVTZ
  Basis Set:
  Basis Set: CC-PVTZ
  Basis Set:
  @DF-RHF Final Energy:  -229.02147089239992
    Total Energy =                       -229.0214708923998046
  Basis Set: CC-PVTZ
  Basis Set:
  Basis Set: CC-PVTZ
  Basis Set:
  @DF-RHF Final Energy:  -229.02149426706919
    Total Energy =                       -229.0214942670691585
  Basis Set: CC-PVTZ
  Basis Set:
  Basis Set: CC-PVTZ
  Basis Set:
  @DF-RHF Final Energy:  -229.02150026019746
    Total Energy =                       -229.0215002601975698
  Basis Set: CC-PVTZ
  Basis Set:
  Charge       = 0
  Multiplicity = 1
  Basis Set: CC-PVTZ
  Basis Set:

    Orbital Energies (a.u.)
    -----------------------

    Doubly Occupied:

       1A    -20.552233     2A    -20.547666     3A    -11.273229
       4A    -11.268459     5A     -1.377732     6A     -1.360334
       7A     -1.001497     8A     -0.847710     9A     -0.721923
      10A     -0.687240    11A     -0.650439    12A     -0.598840
      13A     -0.578956    14A     -0.538528    15A     -0.486709
      16A     -0.448314    17A     -0.438660

  @DF-RHF Final Energy:  -229.02150038208632

   => Energetics <=

    Nuclear Repulsion Energy =            132.4839927656376801
    One-Electron Energy =                -576.2540501230678274
    Two-Electron Energy =                 214.7485569753440586
    DFT Exchange-Correlation Energy =       0.0000000000000000
    Empirical Dispersion Energy =           0.0000000000000000
    PCM Polarization Energy =               0.0000000000000000
    EFP Energy =                            0.0000000000000000
    Total Energy =                       -229.0215003820860602
    Molecular point group: c1
  Basis Set: CC-PVTZ
  Basis Set:

  -Total Gradient:
     Atom            X                  Y                   Z
    ------   -----------------  -----------------  -----------------
       1       -0.000005872567    -0.000000566325    -0.000007665184
       2        0.000015837058    -0.000009218544     0.000023638557
       3       -0.000720946310     0.003986485206    -0.001074015837
       4       -0.001290842051     0.001680641412    -0.003111779724
       5        0.000892289828    -0.003766730287     0.001607788876
       6        0.000008191854    -0.000008336627     0.000007369012
       7        0.001096124369    -0.001879546758     0.002557260493
       8        0.000003204591     0.000004526332    -0.000000275447
       9       -0.000000387853    -0.000002450688     0.000002299950
      10        0.000002401078    -0.000004803720    -0.000004620696

  **** Optimization is complete! (in 8 steps) ****
    Final optimized geometry and variables:
    Molecular point group: c1

    Geometry (in Angstrom), charge = 0, multiplicity = 1:

    H            1.729869969114     0.869040206394    -1.406274044952
    O            0.876990184332     0.889851094104    -1.013306575244
    C            0.874707564662     0.167476356599     0.183232382895
    C           -0.545975773404     0.054387422662     0.709097940669
    H            1.503803977320     0.636977352780     0.936517703101
    H            1.268705072078    -0.835868179946     0.029452517138
    O           -1.250205711405    -1.042228001513     0.198533971354
    H           -1.095408666811     0.940745859422     0.427930727837
    H           -0.518410781699     0.007612888702     1.795111877067
    H           -0.879511440909    -1.841870040366     0.523469417506

  Mulliken Charges: (a.u.)
   Center  Symbol    Alpha    Beta     Spin     Total
       1     H     0.39446  0.39446  0.00000  0.21107
       2     O     4.19424  4.19424  0.00000 -0.38848
       3     C     2.95784  2.95784  0.00000  0.08431
       4     C     2.96875  2.96875  0.00000  0.06250
       5     H     0.47869  0.47869  0.00000  0.04262
       6     H     0.48376  0.48376  0.00000  0.03249
       7     O     4.19894  4.19894  0.00000 -0.39787
       8     H     0.45303  0.45303  0.00000  0.09393
       9     H     0.47377  0.47377  0.00000  0.05245
      10     H     0.39651  0.39651  0.00000  0.20698

   Total alpha = 17.00000, Total beta = 17.00000, Total charge =  0.00000
