                              Psi4 1.0.54 Driver

  ==> Input File <==

--------------------------------------------------------------------------
set {
	reference rhf
	basis cc-pvtz
}

set_num_threads( 4 )
memory 2 gb

molecule MOL {
0 1

H	 1.022022	 -0.642842	 -4.227461
O	 1.950523	 -0.518100	 -4.162996
C	 2.237671	 0.799233	 -3.773827
C	 1.914156	 1.084809	 -2.314899
H	 3.297802	 0.932528	 -3.942154
H	 1.717949	 1.506769	 -4.417047
C	 0.426854	 1.012434	 -1.976460
H	 2.464855	 0.383390	 -1.695302
H	 2.289092	 2.077560	 -2.077695
C	 0.137495	 1.336992	 -0.511615
H	 0.054521	 0.019844	 -2.206974
H	 -0.121038	 1.707362	 -2.610633
C	 -1.344760	 1.351812	 -0.133521
H	 0.662271	 0.625987	 0.121875
H	 0.559354	 2.312141	 -0.284484
C	 -2.041121	 -0.006551	 -0.194127
H	 -1.434934	 1.741287	 0.876779
H	 -1.871370	 2.054775	 -0.775143
C	 -3.489218	 0.042606	 0.286507
H	 -1.487349	 -0.719929	 0.412418
H	 -2.022272	 -0.391181	 -1.209364
C	 -4.219984	 1.311773	 -0.139038
H	 -4.022855	 -0.824300	 -0.093339
H	 -3.510372	 -0.038577	 1.370031
H	 -4.244251	 1.405725	 -1.219696
H	 -5.244345	 1.313233	 0.215630
H	 -3.732090	 2.196311	 0.257073

	symmetry c1
}
set optking {
	frozen_dihedral = ("
		20 16 19 22
	")
}

ee,wfn = optimize('scf', return_wfn=True)
oeprop( wfn, 'DIPOLE', 'QUADRUPOLE', 'MULLIKEN_CHARGES')
f=open( 'psi4out.xyz', 'w' )
f.write( "27  " )
f.write( str(ee) + "\n" )
f.write( MOL.save_string_xyz() )
f.close()
--------------------------------------------------------------------------

    Molecular point group: c1
  Charge       = 0
  Multiplicity = 1
  Basis Set: CC-PVTZ
  Basis Set:
  @DF-RHF Final Energy:  -388.42143300295606
    Total Energy =                       -388.4214330029564053
    Molecular point group: c1
  Basis Set: CC-PVTZ
  Basis Set:
  Basis Set: CC-PVTZ
  Basis Set:
  @DF-RHF Final Energy:  -388.05768148677134
    Total Energy =                       -388.0576814867715711
  Basis Set: CC-PVTZ
  Basis Set:
  Basis Set: CC-PVTZ
  Basis Set:
  @DF-RHF Final Energy:  -388.22590130305309
    Total Energy =                       -388.2259013030529786
  Basis Set: CC-PVTZ
  Basis Set:
  Basis Set: CC-PVTZ
  Basis Set:
  @DF-RHF Final Energy:  -388.37719893993057
    Total Energy =                       -388.3771989399305085
  Basis Set: CC-PVTZ
  Basis Set:
  @DF-RHF Final Energy:  -388.42065794089478
    Total Energy =                       -388.4206579408945572
  @DF-RHF Final Energy:  -388.42307603808530
    Total Energy =                       -388.4230760380855827
  @DF-RHF Final Energy:  -388.42336403971700
    Total Energy =                       -388.4233640397163754
  Basis Set: CC-PVTZ
  Basis Set:
  @DF-RHF Final Energy:  -388.42336489058073
    Total Energy =                       -388.4233648905807286
  Basis Set: CC-PVTZ
  Basis Set:
  Basis Set: CC-PVTZ
  Basis Set:
  @DF-RHF Final Energy:  -388.42337610456013
    Total Energy =                       -388.4233761045596793
  Basis Set: CC-PVTZ
  Basis Set:
  Basis Set: CC-PVTZ
  Basis Set:
  @DF-RHF Final Energy:  -388.42337882987954
    Total Energy =                       -388.4233788298794252
  Basis Set: CC-PVTZ
  Basis Set:
  Charge       = 0
  Multiplicity = 1
  Basis Set: CC-PVTZ
  Basis Set:

    Orbital Energies (a.u.)
    -----------------------

    Doubly Occupied:

       1A    -20.545275     2A    -11.264896     3A    -11.216627
       4A    -11.214528     5A    -11.214462     6A    -11.213144
       7A    -11.212833     8A    -11.212235     9A    -11.206949
      10A     -1.363137    11A     -1.095865    12A     -1.061117
      13A     -1.009945    14A     -0.947027    15A     -0.895025
      16A     -0.830198    17A     -0.799361    18A     -0.764872
      19A     -0.695976    20A     -0.652670    21A     -0.635133
      22A     -0.615764    23A     -0.605579    24A     -0.591186
      25A     -0.580840    26A     -0.555351    27A     -0.538201
      28A     -0.525378    29A     -0.514012    30A     -0.498976
      31A     -0.482474    32A     -0.475667    33A     -0.469610
      34A     -0.454918    35A     -0.448962    36A     -0.442287
      37A     -0.425658

  @DF-RHF Final Energy:  -388.42337888564685

   => Energetics <=

    Nuclear Repulsion Energy =            463.7697266967888368
    One-Electron Energy =               -1445.8339341190358027
    Two-Electron Energy =                 593.6408285366005657
    DFT Exchange-Correlation Energy =       0.0000000000000000
    Empirical Dispersion Energy =           0.0000000000000000
    PCM Polarization Energy =               0.0000000000000000
    EFP Energy =                            0.0000000000000000
    Total Energy =                       -388.4233788856463434
    Molecular point group: c1
  Basis Set: CC-PVTZ
  Basis Set:

  -Total Gradient:
     Atom            X                  Y                   Z
    ------   -----------------  -----------------  -----------------
       1       -0.000133232858     0.000017682549    -0.000080265931
       2        0.000146941354    -0.000011576252     0.000094031635
       3       -0.000011749298     0.000020138320    -0.000006512857
       4       -0.000024371935    -0.000005448978    -0.000014032586
       5       -0.000000607201    -0.000021481298    -0.000002445131
       6       -0.000007090594     0.000000816080    -0.000001024277
       7        0.000020479350    -0.000006822930     0.000000766038
       8       -0.000005077481    -0.000001085842     0.000003075081
       9       -0.000002543574     0.000003322416    -0.000001741392
      10       -0.000004297777    -0.000016766605     0.000027019407
      11        0.000008984994    -0.000004037902    -0.000008473512
      12        0.000006526508    -0.000000074585     0.000010367342
      13       -0.000001458483     0.000050662626    -0.000013424112
      14        0.000020224675    -0.000001482915     0.000004589530
      15       -0.000008634447     0.000003045019    -0.000008221417
      16       -0.000425679288    -0.003974356916    -0.003307847618
      17       -0.000010176944    -0.000011065841    -0.000029652676
      18        0.000005804239    -0.000027509015     0.000014363130
      19        0.000157469882    -0.001571155065    -0.004695948270
      20        0.000315624470     0.003886272232     0.004066978672
      21       -0.000014234218     0.000008660656     0.000017712415
      22       -0.000047466121     0.001694114527     0.003934822394
      23       -0.000003453971    -0.000028465087    -0.000022968023
      24       -0.000008023205     0.000022534786     0.000012415446
      25        0.000023065385    -0.000017535849    -0.000000669729
      26        0.000020266683    -0.000017448240     0.000004543670
      27       -0.000017290144     0.000009064108     0.000002542772

  **** Optimization is complete! (in 11 steps) ****
    Final optimized geometry and variables:
    Molecular point group: c1

    Geometry (in Angstrom), charge = 0, multiplicity = 1:

    H            2.331642394659    -1.654095114859    -1.867411804831
    O            3.133214316764    -1.710807443307    -1.381514370696
    C            3.448089871239    -0.465375454550    -0.816844449212
    C            2.551103336606    -0.084949105101     0.351550253224
    H            4.471531210280    -0.545945447868    -0.476208805365
    H            3.421783897038     0.313221584054    -1.576763700668
    C            1.088885849143     0.138872003754    -0.027058342782
    H            2.618542129975    -0.862845555137     1.106123254297
    H            2.950266374591     0.822923552287     0.797402614009
    C            0.227134572450     0.556322264298     1.163785988071
    H            0.687689160835    -0.770236022231    -0.462382686875
    H            1.029903850012     0.906798392170    -0.796455407099
    C           -1.229789302956     0.879300437865     0.825044101532
    H            0.256990041115    -0.226850057812     1.917370299675
    H            0.674836544399     1.433711495820     1.622330386223
    C           -2.048187561959    -0.324173080955     0.349034862924
    H           -1.700679516983     1.290892866484     1.713993282039
    H           -1.251157412963     1.667166064111     0.078664739539
    C           -3.558080381888    -0.068890194285     0.222366151528
    H           -1.902226046985    -1.109883354871     1.084987434055
    H           -1.659276025223    -0.684314367554    -0.596998061001
    C           -3.959692555763     1.276918961314    -0.377321302786
    H           -3.999283294817    -0.870560161612    -0.360721475175
    H           -4.003821165431    -0.138851796366     1.211150083677
    H           -3.520859834328     1.425724775768    -1.359319424514
    H           -5.036451896835     1.332332671989    -0.489384926769
    H           -3.653667393133     2.104029393542     0.250084097464

  Mulliken Charges: (a.u.)
   Center  Symbol    Alpha    Beta     Spin     Total
       1     H     0.39228  0.39228  0.00000  0.21543
       2     O     4.20555  4.20555  0.00000 -0.41111
       3     C     2.97986  2.97986  0.00000  0.04028
       4     C     3.08971  3.08971  0.00000 -0.17943
       5     H     0.44856  0.44856  0.00000  0.10288
       6     H     0.46976  0.46976  0.00000  0.06049
       7     C     3.10249  3.10249  0.00000 -0.20498
       8     H     0.45079  0.45079  0.00000  0.09841
       9     H     0.45518  0.45518  0.00000  0.08964
      10     C     3.09865  3.09865  0.00000 -0.19729
      11     H     0.45555  0.45555  0.00000  0.08890
      12     H     0.45389  0.45389  0.00000  0.09221
      13     C     3.10104  3.10104  0.00000 -0.20209
      14     H     0.45214  0.45214  0.00000  0.09572
      15     H     0.44804  0.44804  0.00000  0.10392
      16     C     3.09685  3.09685  0.00000 -0.19370
      17     H     0.44711  0.44711  0.00000  0.10579
      18     H     0.45040  0.45040  0.00000  0.09921
      19     C     3.08862  3.08862  0.00000 -0.17723
      20     H     0.45055  0.45055  0.00000  0.09890
      21     H     0.45244  0.45244  0.00000  0.09513
      22     C     3.15647  3.15647  0.00000 -0.31295
      23     H     0.44897  0.44897  0.00000  0.10206
      24     H     0.45382  0.45382  0.00000  0.09235
      25     H     0.45482  0.45482  0.00000  0.09037
      26     H     0.44509  0.44509  0.00000  0.10983
      27     H     0.45136  0.45136  0.00000  0.09727

   Total alpha = 37.00000, Total beta = 37.00000, Total charge =  0.00000

*** Psi4 exiting successfully. Buy a developer a beer!
