  ==> Input File <==

--------------------------------------------------------------------------
set {
	reference rhf
	basis 6-31G*
}

set_num_threads( 1 )
memory 2 gb

molecule MOL {
0 1

H	 1.244178	 -1.076751	 0.292177
O	 1.281670	 -0.557320	 -0.499428
C	 0.675820	 0.679820	 -0.261954
C	 -0.793441	 0.596080	 0.058728
H	 0.819011	 1.264657	 -1.163434
H	 1.186350	 1.213323	 0.539144
C	 -1.530462	 -0.493172	 -0.025500
H	 -1.243553	 1.524007	 0.376271
H	 -1.092586	 -1.461565	 -0.186463
H	 -2.602122	 -0.450675	 0.050101

	symmetry c1
}
set optking {
	frozen_dihedral = ("
		5 3 2 1,
		5 3 4 7
	")
}

ee = energy('scf')
oeprop('DIPOLE', 'QUADRUPOLE', 'MULLIKEN_CHARGES')
f=open( 'psi4out.xyz', 'w' )
f.write( "10  " )
f.write( str(ee) + "\n" )
f.write( MOL.save_string_xyz() )
f.close()
--------------------------------------------------------------------------

    Molecular point group: c1

    Geometry (in Angstrom), charge = 0, multiplicity = 1:

       Center              X                  Y                   Z               Mass
    ------------   -----------------  -----------------  -----------------  -----------------
           H          1.261040485148    -1.102583610914     0.478696605339     1.007825032070
           O          1.298532485148    -0.583152610914    -0.312908394661    15.994914619560
           C          0.692682485148     0.653987389086    -0.075434394661    12.000000000000
           C         -0.776578514852     0.570247389086     0.245247605339    12.000000000000
           H          0.835873485148     1.238824389086    -0.976914394661     1.007825032070
           H          1.203212485148     1.187490389086     0.725663605339     1.007825032070
           C         -1.513599514852    -0.519004610914     0.161019605339    12.000000000000
           H         -1.226690514852     1.498174389086     0.562790605339     1.007825032070
           H         -1.075723514852    -1.487397610914     0.000056605339     1.007825032070
           H         -2.585259514852    -0.476507610914     0.236620605339     1.007825032070

  Charge       = 0
  Multiplicity = 1
  Basis Set: 6-31G*
  Basis Set:

    Orbital Energies (a.u.)
    -----------------------

    Doubly Occupied:

       1A    -20.560729     2A    -11.278568     3A    -11.231009
       4A    -11.219851     5A     -1.369382     6A     -1.058007
       7A     -0.928713     8A     -0.768778     9A     -0.688401
      10A     -0.661391    11A     -0.615489    12A     -0.570358
      13A     -0.541184    14A     -0.490641    15A     -0.449144
      16A     -0.362198

  @DF-RHF Final Energy:  -191.91440461818519

   => Energetics <=

    Nuclear Repulsion Energy =            119.3885288200875721
    One-Electron Energy =                -497.0182235172308083
    Two-Electron Energy =                 185.7152900789579917
    DFT Exchange-Correlation Energy =       0.0000000000000000
    Empirical Dispersion Energy =           0.0000000000000000
    PCM Polarization Energy =               0.0000000000000000
    EFP Energy =                            0.0000000000000000
    Total Energy =                       -191.9144046181852445

  Mulliken Charges: (a.u.)
   Center  Symbol    Alpha    Beta     Spin     Total
       1     H     0.28075  0.28075  0.00000  0.43849
       2     O     4.36660  4.36660  0.00000 -0.73321
       3     C     2.99980  2.99980  0.00000  0.00039
       4     C     3.09442  3.09442  0.00000 -0.18885
       5     H     0.40718  0.40718  0.00000  0.18564
       6     H     0.42686  0.42686  0.00000  0.14627
       7     C     3.19446  3.19446  0.00000 -0.38893
       8     H     0.41014  0.41014  0.00000  0.17972
       9     H     0.40940  0.40940  0.00000  0.18120
      10     H     0.41037  0.41037  0.00000  0.17926

   Total alpha = 16.00000, Total beta = 16.00000, Total charge = -0.00000
