                              Psi4 1.0.54 Driver

  ==> Input File <==

--------------------------------------------------------------------------
set {
	reference rhf
	basis cc-pvtz
}

set_num_threads( 4 )
memory 2 gb

molecule MOL {
0 1

H	 -1.838229	 0.067641	 1.061714
C	 -1.045921	 -0.484969	 0.604108
C	 -1.039342	 -1.865069	 0.600278
C	 0.000000	 0.179985	 0.000046
H	 -1.843553	 -2.400822	 1.064744
C	 -0.000002	 -2.552036	 -0.000013
N	 0.000000	 1.644631	 0.000076
C	 1.045922	 -0.484944	 -0.604042
H	 -0.000000	 -3.625035	 -0.000032
C	 1.039341	 -1.865044	 -0.600272
O	 1.050559	 2.194174	 -0.000073
O	 -1.050559	 2.194174	 -0.000074
H	 1.838225	 0.067684	 -1.061633
H	 1.843554	 -2.400779	 -1.064756

	symmetry c1
}
set optking {
	frozen_dihedral = ("
		2 4 7 11
	")
}

ee,wfn = optimize('scf', return_wfn=True)
oeprop( wfn, 'DIPOLE', 'QUADRUPOLE', 'MULLIKEN_CHARGES')
f=open( 'psi4out.xyz', 'w' )
f.write( "14  " )
f.write( str(ee) + "\n" )
f.write( MOL.save_string_xyz() )
f.close()
--------------------------------------------------------------------------

    Molecular point group: c1
  Charge       = 0
  Multiplicity = 1
  Basis Set: CC-PVTZ
  Basis Set:
  @DF-RHF Final Energy:  -434.32830169947778
    Total Energy =                       -434.3283016994779473
    Molecular point group: c1
  Basis Set: CC-PVTZ
  Basis Set:
  Basis Set: CC-PVTZ
  Basis Set:
  @DF-RHF Final Energy:  -434.32059373942741
    Total Energy =                       -434.3205937394271814
  Basis Set: CC-PVTZ
  Basis Set:
  Basis Set: CC-PVTZ
  Basis Set:
  @DF-RHF Final Energy:  -434.32745474448905
    Total Energy =                       -434.3274547444888185
  Basis Set: CC-PVTZ
  Basis Set:
  Basis Set: CC-PVTZ
  Basis Set:
  @DF-RHF Final Energy:  -434.32847281944527
    Total Energy =                       -434.3284728194450963
  Basis Set: CC-PVTZ
  Basis Set:
  Basis Set: CC-PVTZ
  Basis Set:
  @DF-RHF Final Energy:  -434.32848065579219
    Total Energy =                       -434.3284806557925322
  Basis Set: CC-PVTZ
  Basis Set:
  Basis Set: CC-PVTZ
  Basis Set:
  @DF-RHF Final Energy:  -434.32850535601204
    Total Energy =                       -434.3285053560118740
  Basis Set: CC-PVTZ
  Basis Set:
  Charge       = 0
  Multiplicity = 1
  Basis Set: CC-PVTZ
  Basis Set:

    Orbital Energies (a.u.)
    -----------------------

    Doubly Occupied:

       1A    -20.593154     2A    -20.592945     3A    -15.847518
       4A    -11.303362     5A    -11.267693     6A    -11.267553
       7A    -11.263768     8A    -11.258877     9A    -11.258699
      10A     -1.641640    11A     -1.424426    12A     -1.205293
      13A     -1.096308    14A     -1.055725    15A     -0.959529
      16A     -0.869308    17A     -0.829367    18A     -0.788225
      19A     -0.740473    20A     -0.735551    21A     -0.713495
      22A     -0.657962    23A     -0.651722    24A     -0.626406
      25A     -0.557195    26A     -0.543790    27A     -0.532136
      28A     -0.494521    29A     -0.490803    30A     -0.456999
      31A     -0.376179    32A     -0.369822

  @DF-RHF Final Energy:  -434.32850608317062

   => Energetics <=

    Nuclear Repulsion Energy =            418.1815786274785296
    One-Electron Energy =               -1420.0792875085471678
    Two-Electron Energy =                 567.5692027978981287
    DFT Exchange-Correlation Energy =       0.0000000000000000
    Empirical Dispersion Energy =           0.0000000000000000
    PCM Polarization Energy =               0.0000000000000000
    EFP Energy =                            0.0000000000000000
    Total Energy =                       -434.3285060831705096
    Molecular point group: c1
  Basis Set: CC-PVTZ
  Basis Set:

  -Total Gradient:
     Atom            X                  Y                   Z
    ------   -----------------  -----------------  -----------------
       1        0.000004453744    -0.000003462450    -0.000004522595
       2        0.001515075182    -0.000129253652     0.002527822864
       3       -0.000023943193     0.000021996306    -0.000013974681
       4       -0.002093093264     0.000148326257    -0.002343230616
       5       -0.000001179715     0.000003192948    -0.000003246809
       6        0.000009703370     0.000003352456    -0.000022439240
       7        0.000549440701     0.000301102509    -0.003513043115
       8       -0.000015014438     0.000025347464    -0.000005609832
       9        0.000001601113     0.000000648992     0.000004702847
      10        0.000010460670    -0.000009153737     0.000022427015
      11        0.000188820654    -0.000306842619     0.003342815230
      12       -0.000147441380    -0.000063810283     0.000014847611
      13        0.000000725805     0.000002805132    -0.000004391783
      14        0.000000390748     0.000005750677    -0.000002156899

  **** Optimization is complete! (in 7 steps) ****
    Final optimized geometry and variables:
    Molecular point group: c1

    Geometry (in Angstrom), charge = 0, multiplicity = 1:

    H           -1.837020574025     0.073239097055     1.059753367182
    C           -1.051623420912    -0.480924187631     0.590352403326
    C           -1.052277375279    -1.861323632370     0.573617805479
    C           -0.008902525615     0.180710871014    -0.019254934433
    H           -1.849812286901    -2.397705275220     1.048766768898
    C           -0.028905633400    -2.547479024554    -0.054064326007
    N            0.020077238260     1.641611671324     0.033209498975
    C            1.033087128529    -0.480893283387    -0.630686203140
    H           -0.037994913087    -3.620222856790    -0.069849377766
    C            1.008628305603    -1.860545110491    -0.657956831702
    O            1.083052849045     2.166914410600     0.023108883955
    O           -1.019991257551     2.206384825062     0.107433317762
    H            1.834792975756     0.073108246372    -1.071960797738
    H            1.800847122674    -2.396426977317    -1.142475990567

  Mulliken Charges: (a.u.)
   Center  Symbol    Alpha    Beta     Spin     Total
       1     H     0.40270  0.40270  0.00000  0.19459
       2     C     3.08222  3.08222  0.00000 -0.16443
       3     C     3.07142  3.07142  0.00000 -0.14285
       4     C     2.95904  2.95904  0.00000  0.08193
       5     H     0.41699  0.41699  0.00000  0.16601
       6     C     3.06635  3.06635  0.00000 -0.13271
       7     N     3.26428  3.26428  0.00000  0.47144
       8     C     3.08077  3.08077  0.00000 -0.16154
       9     H     0.41723  0.41723  0.00000  0.16554
      10     C     3.07115  3.07115  0.00000 -0.14231
      11     O     4.17305  4.17305  0.00000 -0.34611
      12     O     4.17415  4.17415  0.00000 -0.34830
      13     H     0.40360  0.40360  0.00000  0.19281
      14     H     0.41704  0.41704  0.00000  0.16592

   Total alpha = 32.00000, Total beta = 32.00000, Total charge = -0.00000

*** Psi4 exiting successfully. Buy a developer a beer!
