  ==> Input File <==

--------------------------------------------------------------------------
set {
	reference rhf
	basis 6-31G*
}

set_num_threads( 4 )
memory 2 gb

molecule MOL {
0 1

O	 -2.447452	 1.117083	 -0.274670
C	 -2.131972	 0.013229	 0.051539
C	 -0.912590	 -0.659075	 -0.554615
C	 -2.903802	 -0.755752	 1.100501
C	 0.379448	 -0.143569	 0.099626
H	 -0.900314	 -0.424927	 -1.613543
H	 -0.978152	 -1.738076	 -0.447446
C	 1.631333	 -0.777471	 -0.511575
H	 0.406069	 0.934874	 -0.008239
H	 0.357567	 -0.352209	 1.168148
C	 2.915987	 -0.544314	 0.291766
H	 1.766672	 -0.399098	 -1.523130
H	 1.471257	 -1.849544	 -0.605828
C	 3.373361	 0.914346	 0.347591
H	 3.708709	 -1.142521	 -0.150311
H	 2.780642	 -0.921148	 1.303579
H	 3.506512	 1.320010	 -0.651625
H	 4.322697	 0.999599	 0.867103
H	 2.660624	 1.545032	 0.868198
H	 -3.379805	 -1.619485	 0.643718
H	 -3.659400	 -0.121773	 1.543136
H	 -2.236641	 -1.128833	 1.872195

	symmetry c1
}
set optking {
	frozen_dihedral = ("
		3 5 8 12
	")
}

ee = optimize('scf')
oeprop('DIPOLE', 'QUADRUPOLE', 'MULLIKEN_CHARGES')
f=open( 'psi4out.xyz', 'w' )
f.write( "22  " )
f.write( str(ee) + "\n" )
f.write( MOL.save_string_xyz() )
f.close()
--------------------------------------------------------------------------

    Molecular point group: c1
  Charge       = 0
  Multiplicity = 1
  Basis Set: 6-31G*
  Basis Set:
  @DF-RHF Final Energy:  -348.09796295944898
    Total Energy =                       -348.0979629594490916
    Molecular point group: c1
  Basis Set: 6-31G*
  Basis Set:
  Basis Set: 6-31G*
  Basis Set:
  @DF-RHF Final Energy:  -348.09765244689498
    Total Energy =                       -348.0976524468948128
  Basis Set: 6-31G*
  Basis Set:
  Basis Set: 6-31G*
  Basis Set:
  @DF-RHF Final Energy:  -348.09762016391807
    Total Energy =                       -348.0976201639183500
  Basis Set: 6-31G*
  Basis Set:
  Basis Set: 6-31G*
  Basis Set:
  @DF-RHF Final Energy:  -348.09798810267841
    Total Energy =                       -348.0979881026783573
  Basis Set: 6-31G*
  Basis Set:
  @DF-RHF Final Energy:  -348.09648361104456
    Total Energy =                       -348.0964836110446186
  @DF-RHF Final Energy:  -348.09756509877337
    Total Energy =                       -348.0975650987732593
  Basis Set: 6-31G*
  Basis Set:
  @DF-RHF Final Energy:  -348.09801468091314
    Total Energy =                       -348.0980146809134794
  Basis Set: 6-31G*
  Basis Set:
  Basis Set: 6-31G*
  Basis Set:
  @DF-RHF Final Energy:  -348.09802855451483
    Total Energy =                       -348.0980285545149400
  Basis Set: 6-31G*
  Basis Set:
  Basis Set: 6-31G*
  Basis Set:
  @DF-RHF Final Energy:  -348.09803185737360
    Total Energy =                       -348.0980318573735985
  Basis Set: 6-31G*
  Basis Set:
  Charge       = 0
  Multiplicity = 1
  Basis Set: 6-31G*
  Basis Set:

    Orbital Energies (a.u.)
    -----------------------

    Doubly Occupied:

       1A    -20.547335     2A    -11.324486     3A    -11.229612
       4A    -11.229037     5A    -11.228243     6A    -11.222311
       7A    -11.220643     8A    -11.211343     9A     -1.393117
      10A     -1.095620    11A     -1.044329    12A     -0.999411
      13A     -0.937426    14A     -0.858089    15A     -0.785948
      16A     -0.733148    17A     -0.663273    18A     -0.643129
      19A     -0.626261    20A     -0.620184    21A     -0.595748
      22A     -0.585536    23A     -0.561770    24A     -0.539685
      25A     -0.535136    26A     -0.521597    27A     -0.496615
      28A     -0.488340    29A     -0.470237    30A     -0.465161
      31A     -0.459078    32A     -0.396182

  @DF-RHF Final Energy:  -348.09803369450071

   => Energetics <=

    Nuclear Repulsion Energy =            373.0342982485500443
    One-Electron Energy =               -1210.8086081076680784
    Two-Electron Energy =                 489.6762761646175477
    DFT Exchange-Correlation Energy =       0.0000000000000000
    Empirical Dispersion Energy =           0.0000000000000000
    PCM Polarization Energy =               0.0000000000000000
    EFP Energy =                            0.0000000000000000
    Total Energy =                       -348.0980336945004865
    Molecular point group: c1
  Basis Set: 6-31G*
  Basis Set:

  -Total Gradient:
     Atom            X                  Y                   Z
    ------   -----------------  -----------------  -----------------
       1       -0.000003737037     0.000001572988     0.000002367454
       2       -0.000006450277    -0.000012370783    -0.000025071760
       3       -0.000080519194    -0.000962556715     0.000874410834
       4        0.000012768078     0.000000415414     0.000011567602
       5        0.000291979193     0.001640833347    -0.001058364412
       6        0.000001371484     0.000008933441     0.000010352088
       7       -0.000008072210    -0.000005011990    -0.000004962144
       8       -0.001244926324    -0.002019788394    -0.000449078967
       9        0.000007571918     0.000000574139     0.000004682457
      10       -0.000003177803     0.000003351214    -0.000006948009
      11        0.000000767190     0.000000344693     0.000000628548
      12        0.000994235930     0.001334149642     0.000636959525
      13       -0.000006297057    -0.000003634272    -0.000002292785
      14        0.000022144360     0.000000602438     0.000006288590
      15        0.000010777045     0.000012360172     0.000008176485
      16        0.000005608532    -0.000004108394    -0.000005445519
      17       -0.000000019257    -0.000000712881     0.000000544513
      18        0.000002603345     0.000011859109     0.000000187112
      19        0.000007501157    -0.000009056537    -0.000002825691
      20       -0.000000041446     0.000004291756    -0.000002742189
      21       -0.000000149304     0.000000565253    -0.000000101540
      22       -0.000003938318    -0.000002613637     0.000001667809

  **** Optimization is complete! (in 10 steps) ****
    Final optimized geometry and variables:
    Molecular point group: c1

    Geometry (in Angstrom), charge = 0, multiplicity = 1:

    O           -2.418254643859     1.217424237065    -0.363066587833
    C           -2.116036200418     0.113324802159    -0.025559235162
    C           -0.902371884747    -0.578463619819    -0.621497680527
    C           -2.903682407773    -0.640123313559     1.023074272761
    C            0.394396789332    -0.069205350172     0.028032668284
    H           -0.887741504542    -0.358651804156    -1.683756117263
    H           -0.977850081369    -1.655112755611    -0.500196211998
    C            1.643265752877    -0.704285249333    -0.591405272558
    H            0.427906364919     1.009995166682    -0.068854670098
    H            0.372043369920    -0.288193821671     1.094698933502
    C            2.932518048701    -0.455377199676     0.200158168341
    H            1.773181353869    -0.321279754455    -1.601828779078
    H            1.492302947890    -1.777692718972    -0.680328742475
    C            3.348091788026     1.014372603638     0.283172899283
    H            3.735668925642    -1.021502341848    -0.264887963912
    H            2.820605967625    -0.857287391331     1.205158220245
    H            3.457264539919     1.445643415582    -0.708196269678
    H            4.300266541592     1.117169005725     0.794204801034
    H            2.621909644071     1.611245511204     0.825041599821
    H           -3.384416422273    -1.502785809831     0.569298997737
    H           -3.656432330213     0.004666487444     1.454765265565
    H           -2.246180446428    -1.013494900163     1.802877768170

  Mulliken Charges: (a.u.)
   Center  Symbol    Alpha    Beta     Spin     Total
       1     O     4.26242  4.26242  0.00000 -0.52484
       2     C     2.73728  2.73728  0.00000  0.52545
       3     C     3.19980  3.19980  0.00000 -0.39960
       4     C     3.28957  3.28957  0.00000 -0.57915
       5     C     3.16420  3.16420  0.00000 -0.32840
       6     H     0.40124  0.40124  0.00000  0.19752
       7     H     0.41687  0.41687  0.00000  0.16626
       8     C     3.15251  3.15251  0.00000 -0.30502
       9     H     0.40321  0.40321  0.00000  0.19358
      10     H     0.42172  0.42172  0.00000  0.15655
      11     C     3.15349  3.15349  0.00000 -0.30698
      12     H     0.41982  0.41982  0.00000  0.16035
      13     H     0.42162  0.42162  0.00000  0.15676
      14     C     3.24226  3.24226  0.00000 -0.48452
      15     H     0.41970  0.41970  0.00000  0.16061
      16     H     0.42326  0.42326  0.00000  0.15348
      17     H     0.42069  0.42069  0.00000  0.15862
      18     H     0.41824  0.41824  0.00000  0.16353
      19     H     0.41841  0.41841  0.00000  0.16318
      20     H     0.40689  0.40689  0.00000  0.18622
      21     H     0.39709  0.39709  0.00000  0.20583
      22     H     0.40972  0.40972  0.00000  0.18056

   Total alpha = 32.00000, Total beta = 32.00000, Total charge =  0.00000
