  ==> Input File <==

--------------------------------------------------------------------------
set {
	reference rhf
	basis cc-pvtz
}

set_num_threads( 4 )
memory 2 gb

molecule MOL {
0 1

H	 1.128311	 0.207724	 1.465118
C	 1.134565	 0.093781	 0.372499
C	 0.062554	 0.862911	 -0.350953
O	 1.948932	 -0.587720	 -0.146651
C	 0.540969	 2.239780	 -0.822085
H	 -0.801080	 0.942542	 0.296574
H	 -0.219917	 0.267062	 -1.215966
C	 0.836035	 3.204413	 0.322934
H	 -0.220049	 2.664985	 -1.466000
H	 1.427360	 2.121103	 -1.439073
H	 -0.047036	 3.367252	 0.930574
H	 1.161262	 4.165283	 -0.057324
H	 1.615874	 2.826785	 0.975071

	symmetry c1
}
set optking {
	frozen_dihedral = ("
		6 3 2 4
	")
}

ee = optimize('scf')
oeprop('DIPOLE', 'QUADRUPOLE', 'MULLIKEN_CHARGES')
f=open( 'psi4out.xyz', 'w' )
f.write( "13  " )
f.write( str(ee) + "\n" )
f.write( MOL.save_string_xyz() )
f.close()
--------------------------------------------------------------------------

    Molecular point group: c1
  Charge       = 0
  Multiplicity = 1
  Basis Set: CC-PVTZ
  Basis Set:
  @DF-RHF Final Energy:  -231.06839870664800
    Total Energy =                       -231.0683987066481109
    Molecular point group: c1
  Basis Set: CC-PVTZ
  Basis Set:
  Basis Set: CC-PVTZ
  Basis Set:
  @DF-RHF Final Energy:  -231.06879247940014
    Total Energy =                       -231.0687924793997752
  Basis Set: CC-PVTZ
  Basis Set:
  Basis Set: CC-PVTZ
  Basis Set:
  @DF-RHF Final Energy:  -231.06859839308541
    Total Energy =                       -231.0685983930854945
  Basis Set: CC-PVTZ
  Basis Set:
  Basis Set: CC-PVTZ
  Basis Set:
  @DF-RHF Final Energy:  -231.06881131083168
    Total Energy =                       -231.0688113108316770
  Basis Set: CC-PVTZ
  Basis Set:
  Basis Set: CC-PVTZ
  Basis Set:
  @DF-RHF Final Energy:  -231.06883011590676
    Total Energy =                       -231.0688301159066498
  Basis Set: CC-PVTZ
  Basis Set:
  Basis Set: CC-PVTZ
  Basis Set:
  @DF-RHF Final Energy:  -231.06883597119403
    Total Energy =                       -231.0688359711938915
  Basis Set: CC-PVTZ
  Basis Set:
  Charge       = 0
  Multiplicity = 1
  Basis Set: CC-PVTZ
  Basis Set:

    Orbital Energies (a.u.)
    -----------------------

    Doubly Occupied:

       1A    -20.552405     2A    -11.321341     3A    -11.235653
       4A    -11.233897     5A    -11.221932     6A     -1.407127
       7A     -1.085140     8A     -0.973321     9A     -0.854924
      10A     -0.777294    11A     -0.685890    12A     -0.646854
      13A     -0.613145    14A     -0.601898    15A     -0.563962
      16A     -0.538534    17A     -0.507543    18A     -0.493047
      19A     -0.481802    20A     -0.411506

  @DF-RHF Final Energy:  -231.06883687592352

   => Energetics <=

    Nuclear Repulsion Energy =            174.3257036083924163
    One-Electron Energy =                -658.3746519473983199
    Two-Electron Energy =                 252.9801114630824088
    DFT Exchange-Correlation Energy =       0.0000000000000000
    Empirical Dispersion Energy =           0.0000000000000000
    PCM Polarization Energy =               0.0000000000000000
    EFP Energy =                            0.0000000000000000
    Total Energy =                       -231.0688368759234947
    Molecular point group: c1
  Basis Set: CC-PVTZ
  Basis Set:

  -Total Gradient:
     Atom            X                  Y                   Z
    ------   -----------------  -----------------  -----------------
       1        0.000004389958    -0.000004397933     0.000008985015
       2       -0.000387852325    -0.000475588888     0.000099138097
       3       -0.000072935510    -0.000297930657    -0.000222637213
       4        0.000291296064     0.000398193182    -0.000033086992
       5       -0.000002174156    -0.000024936560     0.000000469702
       6        0.000174393660     0.000398096761     0.000159864670
       7       -0.000010213755    -0.000012792102    -0.000009502015
       8       -0.000007665585     0.000012496854     0.000002683972
       9        0.000009608344     0.000008804726     0.000000838846
      10       -0.000003432792    -0.000003637367    -0.000010593123
      11        0.000007335755    -0.000009077235     0.000003516595
      12       -0.000001788337     0.000005145704     0.000003856805
      13       -0.000000961321     0.000005623515    -0.000003534359

  **** Optimization is complete! (in 7 steps) ****
    Final optimized geometry and variables:
    Molecular point group: c1

    Geometry (in Angstrom), charge = 0, multiplicity = 1:

    H            0.213576156644    -0.924513635451     1.592584858181
    C            0.207772560748    -1.062182280077     0.505276570282
    C           -0.855842258117    -0.316643504582    -0.261229460859
    O            1.023053421817    -1.750766417522    -0.005254329996
    C           -0.376209688215     1.073173309309    -0.707616527178
    H           -1.739273609821    -0.214895627331     0.361596281168
    H           -1.110530192912    -0.908738379220    -1.130614725947
    C           -0.066873980265     2.030150325641     0.440839362612
    H           -1.146935873995     1.505927014280    -1.335209568769
    H            0.501560670780     0.952660903112    -1.332509618903
    H           -0.930453210090     2.164258368250     1.083808801458
    H            0.214996080712     3.003930371090     0.059342396920
    H            0.752635957666     1.674004062428     1.055034478460

  Mulliken Charges: (a.u.)
   Center  Symbol    Alpha    Beta     Spin     Total
       1     H     0.45922  0.45922  0.00000  0.08155
       2     C     2.90934  2.90934  0.00000  0.18132
       3     C     3.08953  3.08953  0.00000 -0.17905
       4     O     4.16741  4.16741  0.00000 -0.33481
       5     C     3.09307  3.09307  0.00000 -0.18614
       6     H     0.45086  0.45086  0.00000  0.09828
       7     H     0.43803  0.43803  0.00000  0.12393
       8     C     3.15129  3.15129  0.00000 -0.30257
       9     H     0.44677  0.44677  0.00000  0.10646
      10     H     0.44420  0.44420  0.00000  0.11159
      11     H     0.45415  0.45415  0.00000  0.09170
      12     H     0.44404  0.44404  0.00000  0.11192
      13     H     0.45209  0.45209  0.00000  0.09583

   Total alpha = 20.00000, Total beta = 20.00000, Total charge =  0.00000
