                              Psi4 1.0.54 Driver

  ==> Input File <==

--------------------------------------------------------------------------
set {
	reference rhf
	basis cc-pvtz
}

set_num_threads( 4 )
memory 2 gb

molecule MOL {
0 1

O	 1.392028	 2.084782	 -0.277506
C	 0.383313	 2.410700	 -0.804109
C	 -0.906721	 1.631587	 -0.783283
O	 0.256880	 3.530927	 -1.496583
C	 -0.824290	 0.329213	 -0.000115
H	 -1.670556	 2.286706	 -0.377298
H	 -1.189926	 1.452402	 -1.815335
C	 -2.146151	 -0.432825	 -0.000068
H	 -0.522739	 0.543538	 1.018907
H	 -0.041357	 -0.291636	 -0.420652
C	 -3.366283	 0.483552	 0.000557
H	 -2.189286	 -1.084450	 -0.869996
H	 -2.188867	 -1.085083	 0.869399
C	 -4.687436	 -0.278003	 0.000108
H	 -3.325150	 1.134819	 -0.867957
H	 -3.325087	 1.133730	 0.869885
H	 -4.773783	 -0.912098	 -0.876078
H	 -5.531922	 0.401392	 0.000363
H	 -4.773901	 -0.912898	 0.875703
C	 1.394886	 4.362704	 -1.598638
H	 1.718054	 4.688367	 -0.621029
H	 1.091893	 5.210121	 -2.191872
H	 2.206903	 3.840244	 -2.082245

	symmetry c1
}
set optking {
	frozen_dihedral = ("
		9 5 8 12
	")
}

ee,wfn = optimize('scf', return_wfn=True)
oeprop( wfn, 'DIPOLE', 'QUADRUPOLE', 'MULLIKEN_CHARGES')
f=open( 'psi4out.xyz', 'w' )
f.write( "23  " )
f.write( str(ee) + "\n" )
f.write( MOL.save_string_xyz() )
f.close()
--------------------------------------------------------------------------

    Molecular point group: c1
  Charge       = 0
  Multiplicity = 1
  Basis Set: CC-PVTZ
  Basis Set:
  @DF-RHF Final Energy:  -423.12299200231541
    Total Energy =                       -423.1229920023156410
    Molecular point group: c1
  Basis Set: CC-PVTZ
  Basis Set:
  Basis Set: CC-PVTZ
  Basis Set:
  @DF-RHF Final Energy:  -423.12223644378042
    Total Energy =                       -423.1222364437803662
  Basis Set: CC-PVTZ
  Basis Set:
  Basis Set: CC-PVTZ
  Basis Set:
  @DF-RHF Final Energy:  -423.12614063307825
    Total Energy =                       -423.1261406330784212
  Basis Set: CC-PVTZ
  Basis Set:
  Basis Set: CC-PVTZ
  Basis Set:
  @DF-RHF Final Energy:  -423.12619999666657
    Total Energy =                       -423.1261999966668554
  Basis Set: CC-PVTZ
  Basis Set:
  @DF-RHF Final Energy:  -423.12510301290644
    Total Energy =                       -423.1251030129064929
  @DF-RHF Final Energy:  -423.12637845409097
    Total Energy =                       -423.1263784540908546
  @DF-RHF Final Energy:  -423.12639328397790
    Total Energy =                       -423.1263932839779045
  Basis Set: CC-PVTZ
  Basis Set:
  @DF-RHF Final Energy:  -423.12639465795593
    Total Energy =                       -423.1263946579557569
  Basis Set: CC-PVTZ
  Basis Set:
  Basis Set: CC-PVTZ
  Basis Set:
  @DF-RHF Final Energy:  -423.12574219094108
    Total Energy =                       -423.1257421909411960
  Basis Set: CC-PVTZ
  Basis Set:
  Basis Set: CC-PVTZ
  Basis Set:
  @DF-RHF Final Energy:  -423.12636632503893
    Total Energy =                       -423.1263663250392710
  Basis Set: CC-PVTZ
  Basis Set:
  Charge       = 0
  Multiplicity = 1
  Basis Set: CC-PVTZ
  Basis Set:

    Orbital Energies (a.u.)
    -----------------------

    Doubly Occupied:

       1A    -20.596103     2A    -20.534007     3A    -11.364424
       4A    -11.278352     5A    -11.233456     6A    -11.217365
       7A    -11.217144     8A    -11.215678     9A    -11.209299
      10A     -1.472048    11A     -1.365630    12A     -1.093776
      13A     -1.043160    14A     -0.987956    15A     -0.934076
      16A     -0.853528    17A     -0.793087    18A     -0.762715
      19A     -0.702596    20A     -0.685861    21A     -0.675410
      22A     -0.644853    23A     -0.613506    24A     -0.602258
      25A     -0.579386    26A     -0.559231    27A     -0.554348
      28A     -0.527982    29A     -0.522130    30A     -0.512664
      31A     -0.493071    32A     -0.467835    33A     -0.462777
      34A     -0.459845    35A     -0.453576    36A     -0.440726

  @DF-RHF Final Energy:  -423.12639475514834

   => Energetics <=

    Nuclear Repulsion Energy =            458.6477350120478604
    One-Electron Energy =               -1485.2885423445734432
    Two-Electron Energy =                 603.5144125773772430
    DFT Exchange-Correlation Energy =       0.0000000000000000
    Empirical Dispersion Energy =           0.0000000000000000
    PCM Polarization Energy =               0.0000000000000000
    EFP Energy =                            0.0000000000000000
    Total Energy =                       -423.1263947551483398
    Molecular point group: c1
  Basis Set: CC-PVTZ
  Basis Set:

  -Total Gradient:
     Atom            X                  Y                   Z
    ------   -----------------  -----------------  -----------------
       1        0.000024841029    -0.000007367483     0.000015453211
       2       -0.000029527555     0.000038476379    -0.000023340926
       3        0.000010668728    -0.000008605529    -0.000015978957
       4       -0.000010735522    -0.000033539180     0.000008316069
       5       -0.003112175405     0.004928468394     0.000526802591
       6       -0.000003245002     0.000003941694     0.000005127586
       7       -0.000007036537     0.000003672036    -0.000001634979
       8       -0.002263728845     0.003914665816    -0.003545784734
       9        0.002962060492    -0.004756417895     0.000132319730
      10        0.000000841407    -0.000004159377     0.000000190423
      11       -0.000002696485    -0.000017922202    -0.000011634384
      12        0.002419109287    -0.004092075514     0.002898487201
      13        0.000003906945    -0.000008528789     0.000004740216
      14       -0.000006229298     0.000004083095     0.000001699448
      15       -0.000004373908     0.000027356542    -0.000031421596
      16        0.000005724007     0.000020082072     0.000033553156
      17       -0.000005393138    -0.000008471011    -0.000010576073
      18        0.000005382504    -0.000004001748    -0.000000464792
      19       -0.000004824850    -0.000010396235     0.000012497007
      20        0.000021259142     0.000013499600     0.000000348939
      21        0.000000334847     0.000000509042     0.000002900025
      22       -0.000002918225    -0.000000995127    -0.000000607058
      23       -0.000001243623    -0.000002274582    -0.000000992103

  **** Optimization is complete! (in 11 steps) ****
    Final optimized geometry and variables:
    Molecular point group: c1

    Geometry (in Angstrom), charge = 0, multiplicity = 1:

    O            2.325075049440     0.462550112765     0.299737737313
    C            1.346420618064     0.840514998027    -0.248256999662
    C            0.011195093832     0.140206543193    -0.245073131330
    O            1.298063387022     1.959308768967    -0.953237721002
    C            0.012839474282    -1.153380698597     0.556377809400
    H           -0.715325209110     0.851013329377     0.129440721542
    H           -0.256554908278    -0.039240665198    -1.281581525771
    C           -1.287687591756    -1.967415344326     0.491105106122
    H            0.277250448057    -0.959098409782     1.589353943471
    H            0.818903775019    -1.777987914052     0.189245340028
    C           -2.592475279724    -1.180905166597     0.580615401303
    H           -1.281429872796    -2.592641188672    -0.398182657056
    H           -1.262109590774    -2.674589142796     1.316117045117
    C           -3.817333725672    -2.087254455483     0.650959904103
    H           -2.692144752966    -0.520560568246    -0.274672258152
    H           -2.568456869840    -0.541890414871     1.459958419349
    H           -3.881866049545    -2.724565958854    -0.224777026999
    H           -4.731731252227    -1.507911982574     0.705984956466
    H           -3.779287067632    -2.730195155923     1.523788588074
    C            2.484442247347     2.721968710645    -1.042167199014
    H            2.808706779869     3.038596499533    -0.061938951212
    H            2.242345861765     3.579364677360    -1.648940660954
    H            3.273032416440     2.147951015098    -1.505729103603

  Mulliken Charges: (a.u.)
   Center  Symbol    Alpha    Beta     Spin     Total
       1     O     4.19657  4.19657  0.00000 -0.39314
       2     C     2.80942  2.80942  0.00000  0.38115
       3     C     3.10142  3.10142  0.00000 -0.20283
       4     O     4.14669  4.14669  0.00000 -0.29339
       5     C     3.09209  3.09209  0.00000 -0.18417
       6     H     0.43668  0.43668  0.00000  0.12664
       7     H     0.43869  0.43869  0.00000  0.12263
       8     C     3.09642  3.09642  0.00000 -0.19284
       9     H     0.44451  0.44451  0.00000  0.11098
      10     H     0.44241  0.44241  0.00000  0.11519
      11     C     3.09123  3.09123  0.00000 -0.18246
      12     H     0.45136  0.45136  0.00000  0.09727
      13     H     0.44971  0.44971  0.00000  0.10059
      14     C     3.15042  3.15042  0.00000 -0.30084
      15     H     0.45189  0.45189  0.00000  0.09622
      16     H     0.45216  0.45216  0.00000  0.09569
      17     H     0.45478  0.45478  0.00000  0.09044
      18     H     0.44794  0.44794  0.00000  0.10413
      19     H     0.45356  0.45356  0.00000  0.09288
      20     C     3.03824  3.03824  0.00000 -0.07649
      21     H     0.45439  0.45439  0.00000  0.09123
      22     H     0.44519  0.44519  0.00000  0.10962
      23     H     0.45424  0.45424  0.00000  0.09153

   Total alpha = 36.00000, Total beta = 36.00000, Total charge =  0.00000

*** Psi4 exiting successfully. Buy a developer a beer!
