  ==> Input File <==

--------------------------------------------------------------------------
set {
	reference rhf
	basis 6-31G*
}

set_num_threads( 1 )
memory 2 gb

molecule MOL {
0 1

H	 0.301643	 -2.350525	 -4.486987
O	 1.244086	 -2.428410	 -4.515375
C	 1.829208	 -1.350216	 -3.830405
C	 1.679109	 -1.447381	 -2.316220
H	 2.878525	 -1.367712	 -4.095548
H	 1.421367	 -0.405341	 -4.187693
C	 0.229424	 -1.383737	 -1.829158
H	 2.135529	 -2.375946	 -1.983331
H	 2.247756	 -0.635214	 -1.866338
C	 0.115918	 -1.429151	 -0.302766
H	 -0.328404	 -2.210917	 -2.259236
H	 -0.235521	 -0.468047	 -2.194777
C	 -1.309753	 -1.282496	 0.241564
H	 0.545766	 -2.360836	 0.060610
H	 0.727126	 -0.631179	 0.113606
C	 -2.037799	 -0.007733	 -0.193645
H	 -1.890610	 -2.142323	 -0.085726
H	 -1.285946	 -1.330893	 1.329189
C	 -3.489788	 0.042957	 0.286558
H	 -2.017067	 0.064384	 -1.280144
H	 -1.513726	 0.868678	 0.179924
C	 -4.216917	 1.317354	 -0.141063
H	 -4.025645	 -0.823308	 -0.095450
H	 -3.513059	 -0.038752	 1.371301
H	 -4.239342	 1.411634	 -1.223113
H	 -5.243387	 1.322503	 0.212445
H	 -3.726170	 2.201406	 0.256408

	symmetry c1
}
set optking {
	frozen_dihedral = ("
		14 10 7 4,
		10 7 4 8,
		8 4 3 2,
		10 13 16 20,
		20 16 19 22,
		4 3 2 1
	")
}

ee = energy('scf')
oeprop('DIPOLE', 'QUADRUPOLE', 'MULLIKEN_CHARGES')
f=open( 'psi4out.xyz', 'w' )
f.write( "27  " )
f.write( str(ee) + "\n" )
f.write( MOL.save_string_xyz() )
f.close()
--------------------------------------------------------------------------

    Molecular point group: c1

    Geometry (in Angstrom), charge = 0, multiplicity = 1:

       Center              X                  Y                   Z               Mass
    ------------   -----------------  -----------------  -----------------  -----------------
           H          0.950260028598    -1.453864184025    -3.029756116992     1.007825032070
           O          1.892703028598    -1.531749184025    -3.058144116992    15.994914619560
           C          2.477825028598    -0.453555184025    -2.373174116992    12.000000000000
           C          2.327726028598    -0.550720184025    -0.858989116992    12.000000000000
           H          3.527142028598    -0.471051184025    -2.638317116992     1.007825032070
           H          2.069984028598     0.491319815975    -2.730462116992     1.007825032070
           C          0.878041028598    -0.487076184025    -0.371927116992    12.000000000000
           H          2.784146028598    -1.479285184025    -0.526100116992     1.007825032070
           H          2.896373028598     0.261446815975    -0.409107116992     1.007825032070
           C          0.764535028598    -0.532490184025     1.154464883008    12.000000000000
           H          0.320213028598    -1.314256184025    -0.802005116992     1.007825032070
           H          0.413096028598     0.428613815975    -0.737546116992     1.007825032070
           C         -0.661135971402    -0.385835184025     1.698794883008    12.000000000000
           H          1.194383028598    -1.464175184025     1.517840883008     1.007825032070
           H          1.375743028598     0.265481815975     1.570836883008     1.007825032070
           C         -1.389181971402     0.888927815975     1.263585883008    12.000000000000
           H         -1.241992971402    -1.245662184025     1.371504883008     1.007825032070
           H         -0.637328971402    -0.434232184025     2.786419883008     1.007825032070
           C         -2.841170971402     0.939617815975     1.743788883008    12.000000000000
           H         -1.368449971402     0.961044815975     0.177086883008     1.007825032070
           H         -0.865108971402     1.765338815975     1.637154883008     1.007825032070
           C         -3.568299971402     2.214014815975     1.316167883008    12.000000000000
           H         -3.377027971402     0.073352815975     1.361780883008     1.007825032070
           H         -2.864441971402     0.857908815975     2.828531883008     1.007825032070
           H         -3.590724971402     2.308294815975     0.234117883008     1.007825032070
           H         -4.594769971402     2.219163815975     1.669675883008     1.007825032070
           H         -3.077552971402     3.098066815975     1.713638883008     1.007825032070

  Charge       = 0
  Multiplicity = 1
  Basis Set: 6-31G*
  Basis Set:

    Orbital Energies (a.u.)
    -----------------------

    Doubly Occupied:

       1A    -20.552306     2A    -11.267095     3A    -11.219714
       4A    -11.217415     5A    -11.216606     6A    -11.215886
       7A    -11.215255     8A    -11.214692     9A    -11.210100
      10A     -1.359067    11A     -1.096073    12A     -1.061463
      13A     -1.011770    14A     -0.948317    15A     -0.889185
      16A     -0.820159    17A     -0.803879    18A     -0.776314
      19A     -0.694245    20A     -0.647848    21A     -0.642329
      22A     -0.613637    23A     -0.604798    24A     -0.583940
      25A     -0.577445    26A     -0.554117    27A     -0.546035
      28A     -0.522037    29A     -0.506592    30A     -0.502105
      31A     -0.484864    32A     -0.474441    33A     -0.464775
      34A     -0.460181    35A     -0.453334    36A     -0.442324
      37A     -0.423309

  @DF-RHF Final Energy:  -388.28031579276137

   => Energetics <=

    Nuclear Repulsion Energy =            460.6653097410322744
    One-Electron Energy =               -1439.3039292793380355
    Two-Electron Energy =                 590.3583037455480280
    DFT Exchange-Correlation Energy =       0.0000000000000000
    Empirical Dispersion Energy =           0.0000000000000000
    PCM Polarization Energy =               0.0000000000000000
    EFP Energy =                            0.0000000000000000
    Total Energy =                       -388.2803157927577331

  Mulliken Charges: (a.u.)
   Center  Symbol    Alpha    Beta     Spin     Total
       1     H     0.27996  0.27996  0.00000  0.44007
       2     O     4.37094  4.37094  0.00000 -0.74187
       3     C     2.99738  2.99738  0.00000  0.00525
       4     C     3.16035  3.16035  0.00000 -0.32071
       5     H     0.41442  0.41442  0.00000  0.17117
       6     H     0.43209  0.43209  0.00000  0.13582
       7     C     3.16501  3.16501  0.00000 -0.33001
       8     H     0.41518  0.41518  0.00000  0.16964
       9     H     0.42410  0.42410  0.00000  0.15181
      10     C     3.15150  3.15150  0.00000 -0.30301
      11     H     0.42528  0.42528  0.00000  0.14943
      12     H     0.42225  0.42225  0.00000  0.15550
      13     C     3.15316  3.15316  0.00000 -0.30632
      14     H     0.41917  0.41917  0.00000  0.16166
      15     H     0.42405  0.42405  0.00000  0.15189
      16     C     3.15395  3.15395  0.00000 -0.30790
      17     H     0.42456  0.42456  0.00000  0.15087
      18     H     0.42052  0.42052  0.00000  0.15895
      19     C     3.15076  3.15076  0.00000 -0.30151
      20     H     0.42320  0.42320  0.00000  0.15360
      21     H     0.42392  0.42392  0.00000  0.15215
      22     C     3.23918  3.23918  0.00000 -0.47837
      23     H     0.42305  0.42305  0.00000  0.15390
      24     H     0.42283  0.42283  0.00000  0.15435
      25     H     0.42237  0.42237  0.00000  0.15525
      26     H     0.41902  0.41902  0.00000  0.16195
      27     H     0.42179  0.42179  0.00000  0.15642

   Total alpha = 37.00000, Total beta = 37.00000, Total charge =  0.00000
