  ==> Input File <==

--------------------------------------------------------------------------
set {
	reference rhf
	basis cc-pvtz
}

set_num_threads( 4 )
memory 2 gb

molecule MOL {
0 1

H	 0.963437	 1.624481	 -1.660202
O	 1.218688	 1.706191	 -0.758746
C	 0.706474	 0.636793	 -0.025501
C	 -0.793473	 0.591216	 0.050087
H	 1.111309	 0.729354	 0.975421
H	 1.067475	 -0.311592	 -0.419131
C	 -1.534243	 -0.493009	 -0.013340
H	 -1.266611	 1.552628	 0.164437
H	 -1.101195	 -1.466332	 -0.144046
H	 -2.604242	 -0.437780	 0.050785

	symmetry c1
}
set optking {
	frozen_dihedral = ("
		5 3 4 7
	")
}

ee = optimize('scf')
oeprop('DIPOLE', 'QUADRUPOLE', 'MULLIKEN_CHARGES')
f=open( 'psi4out.xyz', 'w' )
f.write( "10  " )
f.write( str(ee) + "\n" )
f.write( MOL.save_string_xyz() )
f.close()
--------------------------------------------------------------------------

    Molecular point group: c1
  Charge       = 0
  Multiplicity = 1
  Basis Set: CC-PVTZ
  Basis Set:
  @DF-RHF Final Energy:  -191.99800645548481
    Total Energy =                       -191.9980064554847274
    Molecular point group: c1
  Basis Set: CC-PVTZ
  Basis Set:
  Basis Set: CC-PVTZ
  Basis Set:
  @DF-RHF Final Energy:  -191.99834735703635
    Total Energy =                       -191.9983473570364083
  Basis Set: CC-PVTZ
  Basis Set:
  Basis Set: CC-PVTZ
  Basis Set:
  @DF-RHF Final Energy:  -191.99843663537268
    Total Energy =                       -191.9984366353728547
  Basis Set: CC-PVTZ
  Basis Set:
  Basis Set: CC-PVTZ
  Basis Set:
  @DF-RHF Final Energy:  -191.99844035723947
    Total Energy =                       -191.9984403572394172
  Basis Set: CC-PVTZ
  Basis Set:
  Charge       = 0
  Multiplicity = 1
  Basis Set: CC-PVTZ
  Basis Set:

    Orbital Energies (a.u.)
    -----------------------

    Doubly Occupied:

       1A    -20.553008     2A    -11.276209     3A    -11.230712
       4A    -11.223190     5A     -1.371880     6A     -1.067571
       7A     -0.924350     8A     -0.778522     9A     -0.708183
      10A     -0.626590    11A     -0.618816    12A     -0.610520
      13A     -0.529747    14A     -0.496201    15A     -0.450723
      16A     -0.374764

  @DF-RHF Final Energy:  -191.99844070612869

   => Energetics <=

    Nuclear Repulsion Energy =            117.4563650499272711
    One-Electron Energy =                -493.2276431360402285
    Two-Electron Energy =                 183.7728373799841677
    DFT Exchange-Correlation Energy =       0.0000000000000000
    Empirical Dispersion Energy =           0.0000000000000000
    PCM Polarization Energy =               0.0000000000000000
    EFP Energy =                            0.0000000000000000
    Total Energy =                       -191.9984407061287754
    Molecular point group: c1
  Basis Set: CC-PVTZ
  Basis Set:

  -Total Gradient:
     Atom            X                  Y                   Z
    ------   -----------------  -----------------  -----------------
       1       -0.000003810808    -0.000010356606     0.000007600241
       2       -0.000000593343    -0.000004247638     0.000024917627
       3       -0.000005358822     0.002697569718     0.000729149835
       4       -0.000118462161    -0.000328502530    -0.003090358444
       5        0.000038341091    -0.002215103633     0.000224712168
       6       -0.000005047668    -0.000003873684     0.000002554387
       7        0.000092189173    -0.000131514086     0.002104208204
       8        0.000005958986    -0.000004243105    -0.000001316719
       9       -0.000002903666     0.000003360497     0.000000120257
      10       -0.000000312778    -0.000003088931    -0.000001587557

  **** Optimization is complete! (in 5 steps) ****
    Final optimized geometry and variables:
    Molecular point group: c1

    Geometry (in Angstrom), charge = 0, multiplicity = 1:

    H            0.966734666348     0.974554841909    -1.426093111702
    O            1.244158101219     1.047131094059    -0.530500958789
    C            0.739777771507    -0.028744942627     0.209688870872
    C           -0.761604778060    -0.046734116527     0.259913367902
    H            1.135930363701     0.079528139605     1.211448378750
    H            1.108322787193    -0.975785378653    -0.174349508569
    C           -1.498349673259    -1.134697247097     0.206205769824
    H           -1.228126522672     0.914607650888     0.394480139171
    H           -1.060540000309    -2.108186951125     0.073791220194
    H           -2.567529928427    -1.094086694047     0.293427891746

  Mulliken Charges: (a.u.)
   Center  Symbol    Alpha    Beta     Spin     Total
       1     H     0.39328  0.39328  0.00000  0.21344
       2     O     4.20083  4.20083  0.00000 -0.40166
       3     C     2.94846  2.94846  0.00000  0.10308
       4     C     3.08521  3.08521  0.00000 -0.17043
       5     H     0.45638  0.45638  0.00000  0.08723
       6     H     0.46875  0.46875  0.00000  0.06250
       7     C     3.17263  3.17263  0.00000 -0.34525
       8     H     0.41723  0.41723  0.00000  0.16554
       9     H     0.43064  0.43064  0.00000  0.13872
      10     H     0.42659  0.42659  0.00000  0.14682

   Total alpha = 16.00000, Total beta = 16.00000, Total charge =  0.00000
