                              Psi4 1.0.54 Driver

  ==> Input File <==

--------------------------------------------------------------------------
set {
	reference rhf
	basis cc-pvtz
}

set_num_threads( 4 )
memory 2 gb

molecule MOL {
0 1

H	 -3.421045	 -0.856178	 -0.497368
O	 -3.111620	 -0.160824	 0.054985
C	 -1.774486	 -0.064349	 0.015462
C	 -0.995994	 -0.912689	 -0.762166
C	 -1.180904	 0.922197	 0.785249
H	 -1.463804	 -1.675647	 -1.356705
C	 0.371256	 -0.770196	 -0.765999
H	 -1.799495	 1.565853	 1.377762
C	 0.189509	 1.051690	 0.770287
H	 0.982973	 -1.418355	 -1.361652
C	 0.981121	 0.213562	 0.000000
H	 0.651079	 1.816719	 1.367113
C	 2.447402	 0.371303	 0.000000
O	 3.227427	 -0.521847	 0.000000
H	 2.796538	 1.409525	 0.000000

	symmetry c1
}
set optking {
	frozen_dihedral = ("
		7 11 13 14
	")
}

ee,wfn = optimize('scf', return_wfn=True)
oeprop( wfn, 'DIPOLE', 'QUADRUPOLE', 'MULLIKEN_CHARGES')
f=open( 'psi4out.xyz', 'w' )
f.write( "15  " )
f.write( str(ee) + "\n" )
f.write( MOL.save_string_xyz() )
f.close()
--------------------------------------------------------------------------

    Molecular point group: c1
  Charge       = 0
  Multiplicity = 1
  Basis Set: CC-PVTZ
  Basis Set:
  @DF-RHF Final Energy:  -418.43635212599537
    Total Energy =                       -418.4363521259956542
    Molecular point group: c1
  Basis Set: CC-PVTZ
  Basis Set:
  Basis Set: CC-PVTZ
  Basis Set:
  @DF-RHF Final Energy:  -418.43505614863017
    Total Energy =                       -418.4350561486298830
  Basis Set: CC-PVTZ
  Basis Set:
  Basis Set: CC-PVTZ
  Basis Set:
  @DF-RHF Final Energy:  -418.43677176210696
    Total Energy =                       -418.4367717621070142
  Basis Set: CC-PVTZ
  Basis Set:
  Basis Set: CC-PVTZ
  Basis Set:
  @DF-RHF Final Energy:  -418.43708405913230
    Total Energy =                       -418.4370840591319620
  Basis Set: CC-PVTZ
  Basis Set:
  @DF-RHF Final Energy:  -418.43708677789959
    Total Energy =                       -418.4370867778998218
  @DF-RHF Final Energy:  -418.43708814090559
    Total Energy =                       -418.4370881409054164
  @DF-RHF Final Energy:  -418.43706335439970
    Total Energy =                       -418.4370633543995837
  @DF-RHF Final Energy:  -418.43708827210492
    Total Energy =                       -418.4370882721051430
  @DF-RHF Final Energy:  -418.41555977009932
    Total Energy =                       -418.4155597700995486
  @DF-RHF Final Energy:  -418.24688110247860
    Total Energy =                       -418.2468811024785964
  @DF-RHF Final Energy:  -418.37023930231754
    Total Energy =                       -418.3702393023174864
  @DF-RHF Final Energy:  -418.41301199684449
    Total Energy =                       -418.4130119968442614
  @DF-RHF Final Energy:  -418.42253825615967
    Total Energy =                       -418.4225382561596689
  @DF-RHF Final Energy:  -418.42821461523221
    Total Energy =                       -418.4282146152316955
  @DF-RHF Final Energy:  -418.43263279246599
    Total Energy =                       -418.4326327924659381
  @DF-RHF Final Energy:  -418.43540793527808
    Total Energy =                       -418.4354079352783629
  @DF-RHF Final Energy:  -418.43658986265143
    Total Energy =                       -418.4365898626507487
  @DF-RHF Final Energy:  -418.43689954636261
    Total Energy =                       -418.4368995463628380
  @DF-RHF Final Energy:  -418.43701551052300
    Total Energy =                       -418.4370155105227695
  Basis Set: CC-PVTZ
  Basis Set:
  @DF-RHF Final Energy:  -418.43705875308081
    Total Energy =                       -418.4370587530806915
  Basis Set: CC-PVTZ
  Basis Set:
  Basis Set: CC-PVTZ
  Basis Set:
  @DF-RHF Final Energy:  -418.43707286852236
    Total Energy =                       -418.4370728685221366
  Basis Set: CC-PVTZ
  Basis Set:
  Basis Set: CC-PVTZ
  Basis Set:
  @DF-RHF Final Energy:  -418.43707666896950
    Total Energy =                       -418.4370766689692118
  Basis Set: CC-PVTZ
  Basis Set:
  Charge       = 0
  Multiplicity = 1
  Basis Set: CC-PVTZ
  Basis Set:

    Orbital Energies (a.u.)
    -----------------------

    Doubly Occupied:

       1A    -20.602021     2A    -20.551161     3A    -11.325370
       4A    -11.318828     5A    -11.256033     6A    -11.254407
       7A    -11.241381     8A    -11.238897     9A    -11.236534
      10A     -1.434687    11A     -1.406378    12A     -1.174622
      13A     -1.043488    14A     -1.041863    15A     -0.891214
      16A     -0.869354    17A     -0.798973    18A     -0.760490
      19A     -0.716701    20A     -0.673000    21A     -0.650889
      22A     -0.631723    23A     -0.612819    24A     -0.609916
      25A     -0.591402    26A     -0.565254    27A     -0.545110
      28A     -0.508329    29A     -0.492969    30A     -0.423448
      31A     -0.360983    32A     -0.330456

  @DF-RHF Final Energy:  -418.43707724022187

   => Energetics <=

    Nuclear Repulsion Energy =            401.8467917724972835
    One-Electron Energy =               -1366.2503373101101261
    Two-Electron Energy =                 545.9664682973909748
    DFT Exchange-Correlation Energy =       0.0000000000000000
    Empirical Dispersion Energy =           0.0000000000000000
    PCM Polarization Energy =               0.0000000000000000
    EFP Energy =                            0.0000000000000000
    Total Energy =                       -418.4370772402219245
    Molecular point group: c1
  Basis Set: CC-PVTZ
  Basis Set:

  -Total Gradient:
     Atom            X                  Y                   Z
    ------   -----------------  -----------------  -----------------
       1        0.000011699714     0.000003319971    -0.000008119154
       2       -0.000083613180    -0.000083108514     0.000063080622
       3        0.000026904870     0.000310817267     0.000087515246
       4        0.000245835575     0.000057952364    -0.000205989063
       5       -0.000213891249    -0.000057372360    -0.000203474644
       6       -0.000014746517     0.000013641030     0.000029101858
       7       -0.000713750359     0.003821587796    -0.004271883245
       8        0.000022038105    -0.000017576649    -0.000009191301
       9        0.000223848728    -0.000453797116     0.000347862030
      10       -0.000002903728    -0.000057584202     0.000167777398
      11        0.000791918331    -0.005508665600     0.009558340571
      12        0.000005953619    -0.000153493541     0.000124194452
      13       -0.000700824705     0.002713259816    -0.013586380466
      14        0.000355206756    -0.000506336513     0.007886005813
      15        0.000046324039    -0.000082643751     0.000021159883

  **** Optimization is complete! (in 23 steps) ****
    Final optimized geometry and variables:
    Molecular point group: c1

    Geometry (in Angstrom), charge = 0, multiplicity = 1:

    H           -3.443279061423    -0.758186548826    -0.541423034080
    O           -3.120972376584    -0.083407462664     0.028830761147
    C           -1.779561953929    -0.024063927105     0.003003949141
    C           -1.016663219385    -0.864308533660    -0.793305609269
    C           -1.165588720116     0.925870727713     0.803159658882
    H           -1.496772331232    -1.588487506537    -1.425423641887
    C            0.357301993402    -0.766034599082    -0.770259372142
    H           -1.771680785872     1.572005000144     1.406066234917
    C            0.206669999094     1.030253145203     0.794629850798
    H            0.953045197723    -1.421559447401    -1.374888919785
    C            0.984948341827     0.168646500221     0.036296918165
    H            0.678779205744     1.784226719047     1.397458041177
    C            2.458532353429     0.324263402722     0.008398509886
    O            3.229241068884    -0.572024576218    -0.064027123078
    H            2.818191754293     1.352699700911     0.121349217433

  Mulliken Charges: (a.u.)
   Center  Symbol    Alpha    Beta     Spin     Total
       1     H     0.38573  0.38573  0.00000  0.22854
       2     O     4.16782  4.16782  0.00000 -0.33564
       3     C     2.84927  2.84927  0.00000  0.30147
       4     C     3.12824  3.12824  0.00000 -0.25648
       5     C     3.10435  3.10435  0.00000 -0.20870
       6     H     0.43155  0.43155  0.00000  0.13689
       7     C     3.07859  3.07859  0.00000 -0.15719
       8     H     0.41668  0.41668  0.00000  0.16663
       9     C     3.07236  3.07236  0.00000 -0.14471
      10     H     0.41092  0.41092  0.00000  0.17815
      11     C     2.97829  2.97829  0.00000  0.04341
      12     H     0.42211  0.42211  0.00000  0.15578
      13     C     2.92099  2.92099  0.00000  0.15803
      14     O     4.17182  4.17182  0.00000 -0.34363
      15     H     0.46128  0.46128  0.00000  0.07744

   Total alpha = 32.00000, Total beta = 32.00000, Total charge = -0.00000

*** Psi4 exiting successfully. Buy a developer a beer!
