  ==> Input File <==

--------------------------------------------------------------------------
set {
	reference rhf
	basis 6-31G*
}

set_num_threads( 4 )
memory 2 gb

molecule MOL {
0 1

H	 -3.650283	 0.221984	 0.000000
C	 -2.577024	 0.154109	 0.000000
C	 -1.960329	 -1.089307	 0.000000
C	 -1.811733	 1.307557	 0.000000
H	 -2.554473	 -1.985285	 0.000000
C	 -0.581547	 -1.175855	 0.000000
H	 -2.287118	 2.271701	 0.000000
C	 -0.428719	 1.219221	 0.000000
H	 -0.090826	 -2.129898	 0.000000
C	 0.198341	 -0.021559	 0.000000
H	 0.149947	 2.124040	 0.000000
C	 1.691355	 -0.173192	 0.000000
C	 2.549715	 0.989527	 -0.452597
O	 2.198055	 -1.197207	 0.352169
H	 2.320273	 1.264918	 -1.476949
H	 3.587585	 0.696759	 -0.384752
H	 2.380875	 1.861614	 0.170893

	symmetry c1
}
set optking {
	frozen_dihedral = ("
		13 12 10 8
	")
}

ee = optimize('scf')
oeprop('DIPOLE', 'QUADRUPOLE', 'MULLIKEN_CHARGES')
f=open( 'psi4out.xyz', 'w' )
f.write( "17  " )
f.write( str(ee) + "\n" )
f.write( MOL.save_string_xyz() )
f.close()
--------------------------------------------------------------------------

    Molecular point group: c1
  Charge       = 0
  Multiplicity = 1
  Basis Set: 6-31G*
  Basis Set:
  @DF-RHF Final Energy:  -382.47466775432093
    Total Energy =                       -382.4746677543211035
    Molecular point group: c1
  Basis Set: 6-31G*
  Basis Set:
  Basis Set: 6-31G*
  Basis Set:
  @DF-RHF Final Energy:  -382.47252176756808
    Total Energy =                       -382.4725217675680824
  Basis Set: 6-31G*
  Basis Set:
  Basis Set: 6-31G*
  Basis Set:
  @DF-RHF Final Energy:  -382.47491338582290
    Total Energy =                       -382.4749133858229015
  Basis Set: 6-31G*
  Basis Set:
  Basis Set: 6-31G*
  Basis Set:
  @DF-RHF Final Energy:  -382.47498086307860
    Total Energy =                       -382.4749808630787129
  Basis Set: 6-31G*
  Basis Set:
  Basis Set: 6-31G*
  Basis Set:
  @DF-RHF Final Energy:  -382.47498957663743
    Total Energy =                       -382.4749895766371992
  Basis Set: 6-31G*
  Basis Set:
  Charge       = 0
  Multiplicity = 1
  Basis Set: 6-31G*
  Basis Set:

    Orbital Energies (a.u.)
    -----------------------

    Doubly Occupied:

       1A    -20.550586     2A    -11.331741     3A    -11.248636
       4A    -11.245655     5A    -11.243231     6A    -11.240570
       7A    -11.240502     8A    -11.238065     9A    -11.229744
      10A     -1.396969    11A     -1.165614    12A     -1.049727
      13A     -1.026358    14A     -0.996320    15A     -0.860934
      16A     -0.835032    17A     -0.759768    18A     -0.708417
      19A     -0.655530    20A     -0.646507    21A     -0.624868
      22A     -0.609148    23A     -0.598635    24A     -0.594607
      25A     -0.554188    26A     -0.525385    27A     -0.516639
      28A     -0.500531    29A     -0.491030    30A     -0.410647
      31A     -0.345346    32A     -0.341388

  @DF-RHF Final Energy:  -382.47499218500940

   => Energetics <=

    Nuclear Repulsion Energy =            403.5023909198966408
    One-Electron Energy =               -1318.3901307164014725
    Two-Electron Energy =                 532.4127476114956607
    DFT Exchange-Correlation Energy =       0.0000000000000000
    Empirical Dispersion Energy =           0.0000000000000000
    PCM Polarization Energy =               0.0000000000000000
    EFP Energy =                            0.0000000000000000
    Total Energy =                       -382.4749921850091141
    Molecular point group: c1
  Basis Set: 6-31G*
  Basis Set:

  -Total Gradient:
     Atom            X                  Y                   Z
    ------   -----------------  -----------------  -----------------
       1       -0.000000302553    -0.000002271970    -0.000011676945
       2        0.000011135491     0.000024574899     0.000048924882
       3        0.000018518750    -0.000006910257     0.000001778242
       4       -0.000034396807    -0.000005042748    -0.000020468330
       5       -0.000003387087     0.000002606256     0.000002295320
       6       -0.000022500166     0.000005199062    -0.000061147324
       7       -0.000003784222    -0.000002766315    -0.000001831954
       8       -0.000028698201     0.000015513043     0.002096326661
       9        0.000004023362    -0.000001294853     0.000027174997
      10        0.000040022032    -0.000297885454    -0.003997353480
      11       -0.000020846789    -0.000016086351     0.000019840694
      12        0.000070528445     0.000875217351     0.003642900652
      13       -0.000013554387    -0.000643330837    -0.001724638084
      14       -0.000020588377     0.000049992534     0.000001872618
      15        0.000005214063    -0.000003238701    -0.000008715691
      16        0.000006930913     0.000014438138    -0.000014750409
      17       -0.000008314468    -0.000008713791    -0.000000531849

  **** Optimization is complete! (in 6 steps) ****
    Final optimized geometry and variables:
    Molecular point group: c1

    Geometry (in Angstrom), charge = 0, multiplicity = 1:

    H           -3.649188911325     0.222992853105     0.017123280147
    C           -2.575915088388     0.155279774721     0.013003887409
    C           -1.959164561695    -1.087818882333     0.028717044439
    C           -1.810534487233     1.308694396945    -0.005410959968
    H           -2.553316706602    -1.983632873990     0.045428244769
    C           -0.580040961191    -1.174326003118     0.029810471638
    H           -2.285982408321     2.272876857649    -0.010029659785
    C           -0.427632626213     1.220454469174    -0.017770850232
    H           -0.089997817193    -2.128639468964     0.057444126766
    C            0.198635977337    -0.020454939078    -0.005247256254
    H            0.152680387686     2.124432117826    -0.034164452660
    C            1.691723826117    -0.167808875918     0.024026945951
    C            2.550680365574     1.000575395364    -0.413102779441
    O            2.193291946251    -1.201791921744     0.352511965522
    H            2.237941873099     1.368715060465    -1.384396601179
    H            3.579776087943     0.674127260991    -0.458993916405
    H            2.474585405089     1.822322953350     0.292415425309

  Mulliken Charges: (a.u.)
   Center  Symbol    Alpha    Beta     Spin     Total
       1     H     0.39542  0.39542  0.00000  0.20916
       2     C     3.09266  3.09266  0.00000 -0.18532
       3     C     3.10384  3.10384  0.00000 -0.20769
       4     C     3.10406  3.10406  0.00000 -0.20812
       5     H     0.39523  0.39523  0.00000  0.20954
       6     C     3.08921  3.08921  0.00000 -0.17842
       7     H     0.39641  0.39641  0.00000  0.20718
       8     C     3.10300  3.10300  0.00000 -0.20600
       9     H     0.37761  0.37761  0.00000  0.24479
      10     C     3.05469  3.05469  0.00000 -0.10937
      11     H     0.39400  0.39400  0.00000  0.21200
      12     C     2.72907  2.72907  0.00000  0.54186
      13     C     3.29240  3.29240  0.00000 -0.58480
      14     O     4.26663  4.26663  0.00000 -0.53326
      15     H     0.40537  0.40537  0.00000  0.18927
      16     H     0.39368  0.39368  0.00000  0.21263
      17     H     0.40672  0.40672  0.00000  0.18655

   Total alpha = 32.00000, Total beta = 32.00000, Total charge =  0.00000
