  ==> Input File <==

--------------------------------------------------------------------------
set {
	reference rhf
	basis 6-31G*
}

set_num_threads( 4 )
memory 2 gb

molecule MOL {
0 1

H	 -3.916106	 0.821192	 -1.307750
O	 -3.325603	 0.143520	 -1.011151
C	 -2.097703	 0.715934	 -0.640755
C	 -1.177863	 -0.397191	 -0.171080
H	 -1.649211	 1.239481	 -1.484000
H	 -2.239450	 1.443903	 0.156935
C	 0.198102	 0.111031	 0.262842
H	 -1.073605	 -1.117744	 -0.977716
H	 -1.662166	 -0.916905	 0.651006
C	 1.331804	 -0.827780	 -0.158768
H	 0.361943	 1.100838	 -0.156218
H	 0.217265	 0.229072	 1.345532
C	 2.723619	 -0.410569	 0.329459
H	 1.342964	 -0.912588	 -1.244120
H	 1.116806	 -1.824343	 0.220779
C	 3.243875	 0.895854	 -0.272975
H	 3.424222	 -1.207124	 0.091250
H	 2.714788	 -0.329854	 1.414619
H	 3.251977	 0.848779	 -1.358681
H	 2.637085	 1.747371	 0.016682
H	 4.259473	 1.094070	 0.055697

	symmetry c1
}
set optking {
	frozen_dihedral = ("
		8 4 7 10
	")
}

ee = optimize('scf')
oeprop('DIPOLE', 'QUADRUPOLE', 'MULLIKEN_CHARGES')
f=open( 'psi4out.xyz', 'w' )
f.write( "21  " )
f.write( str(ee) + "\n" )
f.write( MOL.save_string_xyz() )
f.close()
--------------------------------------------------------------------------

    Molecular point group: c1
  Charge       = 0
  Multiplicity = 1
  Basis Set: 6-31G*
  Basis Set:
  @DF-RHF Final Energy:  -310.20918098818845
    Total Energy =                       -310.2091809881882796
    Molecular point group: c1
  Basis Set: 6-31G*
  Basis Set:
  Basis Set: 6-31G*
  Basis Set:
  @DF-RHF Final Energy:  -310.20939899326748
    Total Energy =                       -310.2093989932676550
  Basis Set: 6-31G*
  Basis Set:
  Basis Set: 6-31G*
  Basis Set:
  @DF-RHF Final Energy:  -310.20944402847533
    Total Energy =                       -310.2094440284752750
  Basis Set: 6-31G*
  Basis Set:
  Basis Set: 6-31G*
  Basis Set:
  @DF-RHF Final Energy:  -310.20943761078416
    Total Energy =                       -310.2094376107841640
  Basis Set: 6-31G*
  Basis Set:
  Basis Set: 6-31G*
  Basis Set:
  @DF-RHF Final Energy:  -310.20945358699453
    Total Energy =                       -310.2094535869944707
  Basis Set: 6-31G*
  Basis Set:
  Charge       = 0
  Multiplicity = 1
  Basis Set: 6-31G*
  Basis Set:

    Orbital Energies (a.u.)
    -----------------------

    Doubly Occupied:

       1A    -20.552039     2A    -11.267591     3A    -11.215665
       4A    -11.215087     5A    -11.213883     6A    -11.210296
       7A    -11.208523     8A     -1.359101     9A     -1.085282
      10A     -1.032341    11A     -0.954515    12A     -0.875804
      13A     -0.808963    14A     -0.779061    15A     -0.693626
      16A     -0.653477    17A     -0.627972    18A     -0.606856
      19A     -0.582035    20A     -0.575500    21A     -0.529565
      22A     -0.525318    23A     -0.511075    24A     -0.486174
      25A     -0.479150    26A     -0.460205    27A     -0.454492
      28A     -0.443602    29A     -0.432852

  @DF-RHF Final Energy:  -310.20945351755063

   => Energetics <=

    Nuclear Repulsion Energy =            312.9085858847944337
    One-Electron Energy =               -1040.5559775669362352
    Two-Electron Energy =                 417.4379381645910598
    DFT Exchange-Correlation Energy =       0.0000000000000000
    Empirical Dispersion Energy =           0.0000000000000000
    PCM Polarization Energy =               0.0000000000000000
    EFP Energy =                            0.0000000000000000
    Total Energy =                       -310.2094535175507417
    Molecular point group: c1
  Basis Set: 6-31G*
  Basis Set:

  -Total Gradient:
     Atom            X                  Y                   Z
    ------   -----------------  -----------------  -----------------
       1       -0.000005903049    -0.000002209612     0.000001375562
       2       -0.000031464155     0.000014241625    -0.000008379665
       3        0.000005275664    -0.000046848444    -0.000007463559
       4       -0.000162751316     0.003786789784    -0.004013296913
       5        0.000004401802    -0.000006882571     0.000006867288
       6       -0.000004078609    -0.000000292247     0.000001035135
       7       -0.000286692732    -0.002412691852     0.003810367569
       8        0.000185600957    -0.002641413542     0.002457427729
       9       -0.000011394396     0.000018622554    -0.000003779988
      10        0.000245021790     0.001303175102    -0.002275081384
      11        0.000028720498    -0.000024607828     0.000020192536
      12        0.000032267045     0.000003524213     0.000024271299
      13        0.000009064528    -0.000001050549    -0.000016283055
      14       -0.000009624423     0.000005075426    -0.000003905430
      15        0.000010607533     0.000017203403     0.000011928670
      16        0.000002658230    -0.000000628720    -0.000003164128
      17        0.000001539335    -0.000015642136     0.000009283794
      18       -0.000016241754     0.000013289429    -0.000007384261
      19        0.000001032459     0.000002693716    -0.000006109711
      20        0.000001730283    -0.000005453970     0.000002300592
      21        0.000000230313    -0.000006893783    -0.000000202076

  **** Optimization is complete! (in 6 steps) ****
    Final optimized geometry and variables:
    Molecular point group: c1

    Geometry (in Angstrom), charge = 0, multiplicity = 1:

    H           -4.017454055967     0.762660020260    -0.983068740942
    O           -3.419903824168     0.087331101342    -0.695311395893
    C           -2.173432895973     0.657029897503    -0.391852546005
    C           -1.239456280136    -0.450138905349     0.060007574689
    H           -1.757375579433     1.159056453368    -1.264433864651
    H           -2.272814632585     1.402855117635     0.396124462687
    C            0.146853898233     0.064870185717     0.487901616825
    H           -1.147383552987    -1.186007769601    -0.733547508616
    H           -1.713645457958    -0.974191937470     0.884750637261
    C            1.283281802171    -0.880076744191     0.086498126533
    H            0.324864652789     1.038254725928     0.035758510862
    H            0.165746599394     0.227298301516     1.562786140552
    C            2.669576604974    -0.469781789722     0.594573150867
    H            1.306437076761    -0.963454825845    -0.998668080737
    H            1.058857745790    -1.876687150356     0.461747527392
    C            3.200381403538     0.839791473561     0.008118654050
    H            3.371300457564    -1.266405512005     0.359796320928
    H            2.647131509661    -0.396375884871     1.680019208319
    H            3.219103975672     0.801873641536    -1.077882857241
    H            2.593913605050     1.691089731652     0.299172519128
    H            4.213394678231     1.031494452368     0.348335965587

  Mulliken Charges: (a.u.)
   Center  Symbol    Alpha    Beta     Spin     Total
       1     H     0.28111  0.28111  0.00000  0.43778
       2     O     4.37149  4.37149  0.00000 -0.74297
       3     C     2.99247  2.99247  0.00000  0.01507
       4     C     3.16063  3.16063  0.00000 -0.32127
       5     H     0.43259  0.43259  0.00000  0.13483
       6     H     0.43253  0.43253  0.00000  0.13494
       7     C     3.16353  3.16353  0.00000 -0.32705
       8     H     0.41316  0.41316  0.00000  0.17368
       9     H     0.41287  0.41287  0.00000  0.17426
      10     C     3.15372  3.15372  0.00000 -0.30744
      11     H     0.42232  0.42232  0.00000  0.15535
      12     H     0.41980  0.41980  0.00000  0.16040
      13     C     3.15300  3.15300  0.00000 -0.30599
      14     H     0.42315  0.42315  0.00000  0.15369
      15     H     0.42050  0.42050  0.00000  0.15899
      16     C     3.24138  3.24138  0.00000 -0.48276
      17     H     0.42063  0.42063  0.00000  0.15874
      18     H     0.42320  0.42320  0.00000  0.15359
      19     H     0.42231  0.42231  0.00000  0.15538
      20     H     0.42054  0.42054  0.00000  0.15892
      21     H     0.41907  0.41907  0.00000  0.16186

   Total alpha = 29.00000, Total beta = 29.00000, Total charge = -0.00000
