  ==> Input File <==

--------------------------------------------------------------------------
set {
	reference rhf
	basis 6-31G*
}

set_num_threads( 4 )
memory 2 gb

molecule MOL {
0 1

H	 -2.455896	 0.143717	 0.867598
O	 -2.315789	 -0.143634	 -0.024262
C	 -0.945151	 -0.064130	 -0.333158
H	 -0.813375	 -0.223047	 -1.403232
C	 -0.232801	 -1.184051	 0.407206
C	 -0.355424	 1.302939	 0.054523
H	 -0.318824	 -0.992899	 1.473524
H	 -0.742411	 -2.122033	 0.217954
C	 1.248522	 -1.270719	 -0.013048
H	 -0.546144	 2.018388	 -0.742941
H	 -0.890929	 1.656788	 0.930149
C	 1.156425	 1.235120	 0.355905
H	 1.825384	 -1.683246	 0.809111
H	 1.357782	 -1.965923	 -0.840362
C	 1.828244	 0.099899	 -0.419275
H	 1.626109	 2.185622	 0.123525
H	 1.309438	 1.071213	 1.419539
H	 2.901447	 0.112642	 -0.255830
H	 1.681817	 0.263413	 -1.484607

	symmetry c1
}
set optking {
	frozen_dihedral = ("
		1 2 3 4
	")
}

ee = optimize('scf')
oeprop('DIPOLE', 'QUADRUPOLE', 'MULLIKEN_CHARGES')
f=open( 'psi4out.xyz', 'w' )
f.write( "19  " )
f.write( str(ee) + "\n" )
f.write( MOL.save_string_xyz() )
f.close()
--------------------------------------------------------------------------

    Molecular point group: c1
  Charge       = 0
  Multiplicity = 1
  Basis Set: 6-31G*
  Basis Set:
  @DF-RHF Final Energy:  -309.04625238459880
    Total Energy =                       -309.0462523845990290
    Molecular point group: c1
  Basis Set: 6-31G*
  Basis Set:
  Basis Set: 6-31G*
  Basis Set:
  @DF-RHF Final Energy:  -309.04795035973217
    Total Energy =                       -309.0479503597325674
  Basis Set: 6-31G*
  Basis Set:
  Basis Set: 6-31G*
  Basis Set:
  @DF-RHF Final Energy:  -309.04825748151598
    Total Energy =                       -309.0482574815157477
  Basis Set: 6-31G*
  Basis Set:
  Basis Set: 6-31G*
  Basis Set:
  @DF-RHF Final Energy:  -309.04826334929294
    Total Energy =                       -309.0482633492929949
  Basis Set: 6-31G*
  Basis Set:
  Charge       = 0
  Multiplicity = 1
  Basis Set: 6-31G*
  Basis Set:

    Orbital Energies (a.u.)
    -----------------------

    Doubly Occupied:

       1A    -20.549937     2A    -11.269036     3A    -11.219390
       4A    -11.218259     5A    -11.217597     6A    -11.216988
       7A    -11.212225     8A     -1.359420     9A     -1.110312
      10A     -1.004602    11A     -0.988703    12A     -0.846769
      13A     -0.841090    14A     -0.752344    15A     -0.673614
      16A     -0.662941    17A     -0.615704    18A     -0.600536
      19A     -0.579213    20A     -0.561401    21A     -0.531206
      22A     -0.521549    23A     -0.502280    24A     -0.491965
      25A     -0.465431    26A     -0.450422    27A     -0.432057
      28A     -0.407187

  @DF-RHF Final Energy:  -309.04826412855459

   => Energetics <=

    Nuclear Repulsion Energy =            331.1880821278692792
    One-Electron Energy =               -1075.8683338566024759
    Two-Electron Energy =                 435.6319876001787748
    DFT Exchange-Correlation Energy =       0.0000000000000000
    Empirical Dispersion Energy =           0.0000000000000000
    PCM Polarization Energy =               0.0000000000000000
    EFP Energy =                            0.0000000000000000
    Total Energy =                       -309.0482641285544219
    Molecular point group: c1
  Basis Set: 6-31G*
  Basis Set:

  -Total Gradient:
     Atom            X                  Y                   Z
    ------   -----------------  -----------------  -----------------
       1       -0.000060827239     0.001050702472    -0.000355404838
       2        0.000084339971    -0.001122621508     0.000413827594
       3        0.000030094241    -0.000901250444     0.000117954161
       4       -0.000024404431     0.000939549294    -0.000140156676
       5       -0.000041949881     0.000021800597    -0.000025297947
       6        0.000042518681    -0.000014256426     0.000009796807
       7        0.000009932894    -0.000012846237    -0.000013754216
       8        0.000010779023    -0.000012159682     0.000007293888
       9       -0.000013591404    -0.000006718807     0.000058750449
      10        0.000014659320     0.000025765158    -0.000017548234
      11        0.000002940790    -0.000003458932    -0.000014413733
      12       -0.000026618117     0.000024750031    -0.000013194691
      13        0.000018463836    -0.000026539879    -0.000002738119
      14       -0.000016590184     0.000007354090    -0.000002882666
      15       -0.000013354249     0.000024969077    -0.000036874962
      16       -0.000006021570     0.000010870922     0.000016022578
      17       -0.000005978810     0.000000320464     0.000004806653
      18       -0.000014570695    -0.000012424825     0.000002464534
      19        0.000010177825     0.000006194635    -0.000008650582

  **** Optimization is complete! (in 5 steps) ****
    Final optimized geometry and variables:
    Molecular point group: c1

    Geometry (in Angstrom), charge = 0, multiplicity = 1:

    H           -2.533679443104     0.167770521400     0.777782939969
    O           -2.339500927474    -0.106546375526    -0.108164891608
    C           -0.949264119137    -0.067142494192    -0.314806290864
    H           -0.833392824659    -0.214378314328    -1.382303971730
    C           -0.223062385601    -1.192744569001     0.414022112630
    C           -0.356684924263     1.299729860930     0.067365699152
    H           -0.293866316607    -1.014832194011     1.486568929122
    H           -0.730680929099    -2.131495925473     0.221870450570
    C            1.257104509724    -1.271779772065    -0.015510992380
    H           -0.572608359607     2.012037646004    -0.722832507413
    H           -0.870606736351     1.665210661362     0.954795342464
    C            1.159415495403     1.234219545464     0.346358048169
    H            1.845596760926    -1.672390874860     0.804350215071
    H            1.363874898313    -1.972661569194    -0.838055068219
    C            1.821059250134     0.100022888044    -0.438768078016
    H            1.623296711269     2.185696472111     0.106642133245
    H            1.331654779771     1.070575067030     1.407465371095
    H            2.897164605439     0.118175470394    -0.296820511263
    H            1.652371221265     0.259127762094    -1.501268508174

  Mulliken Charges: (a.u.)
   Center  Symbol    Alpha    Beta     Spin     Total
       1     H     0.28510  0.28510  0.00000  0.42979
       2     O     4.37805  4.37805  0.00000 -0.75610
       3     C     2.90668  2.90668  0.00000  0.18663
       4     H     0.41620  0.41620  0.00000  0.16760
       5     C     3.17274  3.17274  0.00000 -0.34548
       6     C     3.16802  3.16802  0.00000 -0.33604
       7     H     0.42791  0.42791  0.00000  0.14418
       8     H     0.40886  0.40886  0.00000  0.18228
       9     C     3.16000  3.16000  0.00000 -0.32000
      10     H     0.41277  0.41277  0.00000  0.17446
      11     H     0.42751  0.42751  0.00000  0.14498
      12     C     3.16382  3.16382  0.00000 -0.32764
      13     H     0.41819  0.41819  0.00000  0.16361
      14     H     0.41700  0.41700  0.00000  0.16599
      15     C     3.16468  3.16468  0.00000 -0.32936
      16     H     0.41553  0.41553  0.00000  0.16894
      17     H     0.42064  0.42064  0.00000  0.15871
      18     H     0.41611  0.41611  0.00000  0.16779
      19     H     0.42017  0.42017  0.00000  0.15966

   Total alpha = 28.00000, Total beta = 28.00000, Total charge = -0.00000
