  ==> Input File <==

--------------------------------------------------------------------------
set {
	reference rhf
	basis 6-31G*
}

set_num_threads( 1 )
memory 2 gb

molecule MOL {
0 1

H	 2.262150	 -0.093845	 -0.953615
O	 1.654024	 -0.625927	 -0.460906
C	 1.135793	 0.118896	 0.612333
C	 0.031547	 1.023609	 0.088541
H	 1.915668	 0.729681	 1.063582
H	 0.754543	 -0.542641	 1.387006
C	 -1.134819	 0.293262	 -0.585751
H	 0.474374	 1.714721	 -0.623187
H	 -0.338529	 1.620940	 0.920081
C	 -1.917817	 -0.639439	 0.339494
H	 -0.758119	 -0.268455	 -1.433105
H	 -1.813832	 1.041889	 -0.986690
H	 -2.777680	 -1.057197	 -0.174994
H	 -1.310268	 -1.471279	 0.680599
H	 -2.283753	 -0.111424	 1.216626

	symmetry c1
}
set optking {
	frozen_dihedral = ("
		8 4 7 11,
		2 3 4 8
	")
}

ee = energy('scf')
oeprop('DIPOLE', 'QUADRUPOLE', 'MULLIKEN_CHARGES')
f=open( 'psi4out.xyz', 'w' )
f.write( "15  " )
f.write( str(ee) + "\n" )
f.write( MOL.save_string_xyz() )
f.close()
--------------------------------------------------------------------------

    Molecular point group: c1

    Geometry (in Angstrom), charge = 0, multiplicity = 1:

       Center              X                  Y                   Z               Mass
    ------------   -----------------  -----------------  -----------------  -----------------
           H          2.263140248366    -0.108950373581    -0.942654667575     1.007825032070
           O          1.655014248366    -0.641032373581    -0.449945667575    15.994914619560
           C          1.136783248366     0.103790626419     0.623293332425    12.000000000000
           C          0.032537248366     1.008503626419     0.099501332425    12.000000000000
           H          1.916658248366     0.714575626419     1.074542332425     1.007825032070
           H          0.755533248366    -0.557746373581     1.397966332425     1.007825032070
           C         -1.133828751634     0.278156626419    -0.574790667575    12.000000000000
           H          0.475364248366     1.699615626419    -0.612226667575     1.007825032070
           H         -0.337538751634     1.605834626419     0.931041332425     1.007825032070
           C         -1.916826751634    -0.654544373581     0.350454332425    12.000000000000
           H         -0.757128751634    -0.283560373581    -1.422144667575     1.007825032070
           H         -1.812841751634     1.026783626419    -0.975729667575     1.007825032070
           H         -2.776689751634    -1.072302373581    -0.164033667575     1.007825032070
           H         -1.309277751634    -1.486384373581     0.691559332425     1.007825032070
           H         -2.282762751634    -0.126529373581     1.227586332425     1.007825032070

  Charge       = 0
  Multiplicity = 1
  Basis Set: 6-31G*
  Basis Set:

    Orbital Energies (a.u.)
    -----------------------

    Doubly Occupied:

       1A    -20.552902     2A    -11.268599     3A    -11.213001
       4A    -11.210492     5A    -11.205040     6A     -1.360937
       7A     -1.064430     8A     -0.970038     9A     -0.873075
      10A     -0.783104    11A     -0.688114    12A     -0.642969
      13A     -0.624835    14A     -0.578424    15A     -0.560870
      16A     -0.537395    17A     -0.503804    18A     -0.483811
      19A     -0.468885    20A     -0.453183    21A     -0.424573

  @DF-RHF Final Energy:  -232.14183678187109

   => Energetics <=

    Nuclear Repulsion Energy =            192.2245834966854829
    One-Electron Energy =                -695.7958968938758062
    Two-Electron Energy =                 271.4294766153186629
    DFT Exchange-Correlation Energy =       0.0000000000000000
    Empirical Dispersion Energy =           0.0000000000000000
    PCM Polarization Energy =               0.0000000000000000
    EFP Energy =                            0.0000000000000000
    Total Energy =                       -232.1418367818716888

  Mulliken Charges: (a.u.)
   Center  Symbol    Alpha    Beta     Spin     Total
       1     H     0.28089  0.28089  0.00000  0.43821
       2     O     4.36844  4.36844  0.00000 -0.73687
       3     C     3.00409  3.00409  0.00000 -0.00818
       4     C     3.16143  3.16143  0.00000 -0.32286
       5     H     0.42801  0.42801  0.00000  0.14397
       6     H     0.41463  0.41463  0.00000  0.17074
       7     C     3.15077  3.15077  0.00000 -0.30154
       8     H     0.42689  0.42689  0.00000  0.14622
       9     H     0.42674  0.42674  0.00000  0.14651
      10     C     3.24429  3.24429  0.00000 -0.48857
      11     H     0.41062  0.41062  0.00000  0.17877
      12     H     0.42312  0.42312  0.00000  0.15377
      13     H     0.41868  0.41868  0.00000  0.16265
      14     H     0.41669  0.41669  0.00000  0.16662
      15     H     0.42471  0.42471  0.00000  0.15058

   Total alpha = 21.00000, Total beta = 21.00000, Total charge = -0.00000
