  ==> Input File <==

--------------------------------------------------------------------------
set {
	reference rhf
	basis 6-31G*
}

set_num_threads( 4 )
memory 2 gb

molecule MOL {
0 1

H	 -3.301617	 0.570527	 0.000000
C	 -2.250981	 0.344174	 0.000000
C	 -1.813665	 -0.976045	 0.000000
C	 -1.315303	 1.358057	 0.000000
H	 -2.528860	 -1.779366	 0.000000
C	 -0.467298	 -1.270142	 0.000000
H	 -1.635074	 2.385107	 0.000000
C	 0.047081	 1.078114	 0.000000
H	 -0.115948	 -2.285222	 0.000000
C	 0.472063	 -0.241155	 0.000000
H	 0.749976	 1.888426	 0.000000
O	 1.765256	 -0.628444	 0.000000
C	 2.206356	 -1.574989	 0.929814
H	 2.077432	 -1.222036	 1.947721
H	 3.258584	 -1.720774	 0.736487
H	 1.688444	 -2.520901	 0.810018

	symmetry c1
}
set optking {
	frozen_dihedral = ("
		13 12 10 8
	")
}

ee = optimize('scf')
oeprop('DIPOLE', 'QUADRUPOLE', 'MULLIKEN_CHARGES')
f=open( 'psi4out.xyz', 'w' )
f.write( "16  " )
f.write( str(ee) + "\n" )
f.write( MOL.save_string_xyz() )
f.close()
--------------------------------------------------------------------------

    Molecular point group: c1
  Charge       = 0
  Multiplicity = 1
  Basis Set: 6-31G*
  Basis Set:
  @DF-RHF Final Energy:  -344.57508969951317
    Total Energy =                       -344.5750896995131143
    Molecular point group: c1
  Basis Set: 6-31G*
  Basis Set:
  Basis Set: 6-31G*
  Basis Set:
  @DF-RHF Final Energy:  -344.57906657919210
    Total Energy =                       -344.5790665791920446
  Basis Set: 6-31G*
  Basis Set:
  Basis Set: 6-31G*
  Basis Set:
  @DF-RHF Final Energy:  -344.58025900310111
    Total Energy =                       -344.5802590031012187
  Basis Set: 6-31G*
  Basis Set:
  Basis Set: 6-31G*
  Basis Set:
  @DF-RHF Final Energy:  -344.58037257497864
    Total Energy =                       -344.5803725749784121
  Basis Set: 6-31G*
  Basis Set:
  Basis Set: 6-31G*
  Basis Set:
  @DF-RHF Final Energy:  -344.58038506878194
    Total Energy =                       -344.5803850687821068
  Basis Set: 6-31G*
  Basis Set:
  Charge       = 0
  Multiplicity = 1
  Basis Set: 6-31G*
  Basis Set:

    Orbital Energies (a.u.)
    -----------------------

    Doubly Occupied:

       1A    -20.575728     2A    -11.288801     3A    -11.276964
       4A    -11.233587     5A    -11.232257     6A    -11.225763
       7A    -11.223650     8A    -11.221985     9A     -1.404022
      10A     -1.146952    11A     -1.018771    12A     -1.014019
      13A     -0.936373    14A     -0.832793    15A     -0.805733
      16A     -0.716267    17A     -0.665859    18A     -0.661646
      19A     -0.643763    20A     -0.614325    21A     -0.592021
      22A     -0.581825    23A     -0.528971    24A     -0.510445
      25A     -0.505234    26A     -0.481575    27A     -0.444743
      28A     -0.334912    29A     -0.313976

  @DF-RHF Final Energy:  -344.58038633268842

   => Energetics <=

    Nuclear Repulsion Energy =            347.9216291706675861
    One-Electron Energy =               -1156.9381123713671968
    Two-Electron Energy =                 464.4360968680111341
    DFT Exchange-Correlation Energy =       0.0000000000000000
    Empirical Dispersion Energy =           0.0000000000000000
    PCM Polarization Energy =               0.0000000000000000
    EFP Energy =                            0.0000000000000000
    Total Energy =                       -344.5803863326885335
    Molecular point group: c1
  Basis Set: 6-31G*
  Basis Set:

  -Total Gradient:
     Atom            X                  Y                   Z
    ------   -----------------  -----------------  -----------------
       1       -0.000006429793    -0.000017512547     0.000015194789
       2        0.000047834839     0.000141752092     0.000047920952
       3        0.000080306256    -0.000104071989    -0.000080685582
       4       -0.000083611338    -0.000046106868    -0.000066249774
       5       -0.000014982567     0.000009907839     0.000008282116
       6       -0.000058634894    -0.000080723162     0.000038974586
       7        0.000019247815     0.000003195464     0.000008628483
       8        0.000067102348    -0.000083173852     0.000782284893
       9        0.000004901636     0.000007122146     0.000006979058
      10       -0.000063222848     0.000461596744    -0.000854571283
      11        0.000006912863     0.000008314335     0.000003325426
      12       -0.000096713337    -0.000908495997    -0.000382455648
      13        0.000105370864     0.000573809724     0.000555303887
      14       -0.000000619262     0.000004686963    -0.000018291188
      15        0.000013324140     0.000019031284    -0.000018520842
      16       -0.000020786715     0.000010667822    -0.000046119873

  **** Optimization is complete! (in 6 steps) ****
    Final optimized geometry and variables:
    Molecular point group: c1

    Geometry (in Angstrom), charge = 0, multiplicity = 1:

    H           -3.205403956994     0.928618485221    -0.129430133898
    C           -2.164806740179     0.659008323107    -0.129305545111
    C           -1.787994507114    -0.673412209964    -0.125396100408
    C           -1.186110807166     1.641017302176    -0.135593317493
    H           -2.538054405372    -1.444302606883    -0.126236128516
    C           -0.448384045117    -1.029628351573    -0.127683837174
    H           -1.465447707152     2.679629198367    -0.138761577205
    C            0.153985363076     1.296104366735    -0.129312984438
    H           -0.166864377702    -2.066187222287    -0.141605239898
    C            0.524140733616    -0.040439327699    -0.128731325375
    H            0.923773359155     2.045417638791    -0.131163103002
    O            1.852909667872    -0.323111505932    -0.159679165197
    C            2.351305759487    -1.232833009106     0.785793212127
    H            2.021319675374    -0.974545498686     1.786412147647
    H            3.428655695435    -1.169833710288     0.734579023781
    H            2.051052006995    -2.250838158483     0.564098306832

  Mulliken Charges: (a.u.)
   Center  Symbol    Alpha    Beta     Spin     Total
       1     H     0.40038  0.40038  0.00000  0.19923
       2     C     3.10822  3.10822  0.00000 -0.21643
       3     C     3.09453  3.09453  0.00000 -0.18906
       4     C     3.09492  3.09492  0.00000 -0.18985
       5     H     0.39891  0.39891  0.00000  0.20217
       6     C     3.12975  3.12975  0.00000 -0.25949
       7     H     0.39846  0.39846  0.00000  0.20309
       8     C     3.12328  3.12328  0.00000 -0.24656
       9     H     0.39679  0.39679  0.00000  0.20643
      10     C     2.79263  2.79263  0.00000  0.41474
      11     H     0.39314  0.39314  0.00000  0.21372
      12     O     4.33120  4.33120  0.00000 -0.66240
      13     C     3.08530  3.08530  0.00000 -0.17061
      14     H     0.42032  0.42032  0.00000  0.15936
      15     H     0.40855  0.40855  0.00000  0.18290
      16     H     0.42362  0.42362  0.00000  0.15276

   Total alpha = 29.00000, Total beta = 29.00000, Total charge = -0.00000
