  ==> Input File <==

--------------------------------------------------------------------------
set {
	reference rhf
	basis cc-pvtz
}

set_num_threads( 4 )
memory 2 gb

molecule MOL {
0 1

H	 -0.000105	 1.988529	 0.748933
O	 -0.000098	 1.879786	 -0.188206
C	 -0.000014	 0.545691	 -0.532416
C	 -0.851595	 0.322955	 -1.783406
C	 -0.404929	 -0.309821	 0.669215
H	 1.012251	 0.268968	 -0.788161
F	 -0.362551	 1.030451	 -2.771913
F	 -0.868674	 -0.931588	 -2.156959
F	 -2.094356	 0.710532	 -1.591822
F	 0.442479	 -0.110010	 1.648415
F	 -0.404473	 -1.589227	 0.392028
F	 -1.603057	 0.014546	 1.105851

	symmetry c1
}
set optking {
	frozen_dihedral = ("
		6 3 2 1
	")
}

ee = optimize('scf')
oeprop('DIPOLE', 'QUADRUPOLE', 'MULLIKEN_CHARGES')
f=open( 'psi4out.xyz', 'w' )
f.write( "12  " )
f.write( str(ee) + "\n" )
f.write( MOL.save_string_xyz() )
f.close()
--------------------------------------------------------------------------

    Molecular point group: c1
  Charge       = 0
  Multiplicity = 1
  Basis Set: CC-PVTZ
  Basis Set:
  @DF-RHF Final Energy:  -786.58413958969152
    Total Energy =                       -786.5841395896915174
    Molecular point group: c1
  Basis Set: CC-PVTZ
  Basis Set:
  Basis Set: CC-PVTZ
  Basis Set:
  @DF-RHF Final Energy:  -786.58560562714297
    Total Energy =                       -786.5856056271430816
  Basis Set: CC-PVTZ
  Basis Set:
  Basis Set: CC-PVTZ
  Basis Set:
  @DF-RHF Final Energy:  -786.58590005372355
    Total Energy =                       -786.5859000537236625
  Basis Set: CC-PVTZ
  Basis Set:
  Basis Set: CC-PVTZ
  Basis Set:
  @DF-RHF Final Energy:  -786.58596549260653
    Total Energy =                       -786.5859654926066469
  Basis Set: CC-PVTZ
  Basis Set:
  Basis Set: CC-PVTZ
  Basis Set:
  @DF-RHF Final Energy:  -786.58598054573463
    Total Energy =                       -786.5859805457345146
  Basis Set: CC-PVTZ
  Basis Set:
  Basis Set: CC-PVTZ
  Basis Set:
  @DF-RHF Final Energy:  -786.58598455384492
    Total Energy =                       -786.5859845538450372
  Basis Set: CC-PVTZ
  Basis Set:
  Charge       = 0
  Multiplicity = 1
  Basis Set: CC-PVTZ
  Basis Set:

    Orbital Energies (a.u.)
    -----------------------

    Doubly Occupied:

       1A    -26.365499     2A    -26.362785     3A    -26.361397
       4A    -26.351463     5A    -26.348224     6A    -26.347797
       7A    -20.607291     8A    -11.526802     9A    -11.514704
      10A    -11.351729    11A     -1.776527    12A     -1.762020
      13A     -1.671774    14A     -1.669690    15A     -1.657441
      16A     -1.655663    17A     -1.437156    18A     -1.105190
      19A     -1.003071    20A     -0.943427    21A     -0.876726
      22A     -0.868541    23A     -0.863391    24A     -0.849434
      25A     -0.839001    26A     -0.800022    27A     -0.755016
      28A     -0.741186    29A     -0.726295    30A     -0.724821
      31A     -0.713947    32A     -0.695744    33A     -0.691815
      34A     -0.676229    35A     -0.674870    36A     -0.671131
      37A     -0.659230    38A     -0.654047    39A     -0.621052
      40A     -0.549819    41A     -0.507408

  @DF-RHF Final Energy:  -786.58598561050167

   => Energetics <=

    Nuclear Repulsion Energy =            671.2156890504575131
    One-Electron Energy =               -2429.6445842706089024
    Two-Electron Energy =                 971.8429096096491548
    DFT Exchange-Correlation Energy =       0.0000000000000000
    Empirical Dispersion Energy =           0.0000000000000000
    PCM Polarization Energy =               0.0000000000000000
    EFP Energy =                            0.0000000000000000
    Total Energy =                       -786.5859856105022345
    Molecular point group: c1
  Basis Set: CC-PVTZ
  Basis Set:

  -Total Gradient:
     Atom            X                  Y                   Z
    ------   -----------------  -----------------  -----------------
       1       -0.001862839363     0.000006848912     0.000080018800
       2        0.002255055338     0.000023454767    -0.000553354621
       3       -0.000010175725    -0.000400821714     0.001952557851
       4       -0.000137391781     0.000099923638     0.000019287330
       5       -0.000165901691    -0.000047128259     0.000014100892
       6       -0.000346524787     0.000374009160    -0.001500925781
       7        0.000047377600     0.000030029331    -0.000039244723
       8        0.000023594704    -0.000094472781     0.000002258806
       9        0.000042208481    -0.000016372685     0.000012755719
      10        0.000085323062     0.000047233840     0.000078276401
      11        0.000003219524    -0.000019265273    -0.000030119528
      12        0.000066054638    -0.000003438931    -0.000035611147

  **** Optimization is complete! (in 7 steps) ****
    Final optimized geometry and variables:
    Molecular point group: c1

    Geometry (in Angstrom), charge = 0, multiplicity = 1:

    H            0.706307355539     1.885150456814     1.220121448295
    O            0.675132301573     1.733803883425     0.292108805467
    C            0.658273113233     0.388074967839    -0.016523186042
    C           -0.230409348141     0.219245068118    -1.248628776957
    C            0.226314377831    -0.466522815903     1.174018751791
    H            1.642163400826     0.037925805367    -0.308119879055
    F            0.275686001821     0.909791319753    -2.241190767383
    F           -0.279904032315    -1.040069209828    -1.619959751372
    F           -1.453646517553     0.633487535958    -1.048678383963
    F            0.977260351060    -0.144803463207     2.212216393915
    F            0.394224608890    -1.740763915397     0.939407880025
    F           -1.019801210532    -0.268293416691     1.521458686169

  Mulliken Charges: (a.u.)
   Center  Symbol    Alpha    Beta     Spin     Total
       1     H     0.38247  0.38247  0.00000  0.23506
       2     O     4.18864  4.18864  0.00000 -0.37727
       3     C     2.99471  2.99471  0.00000  0.01058
       4     C     2.67899  2.67899  0.00000  0.64203
       5     C     2.68588  2.68588  0.00000  0.62824
       6     H     0.44289  0.44289  0.00000  0.11422
       7     F     4.60316  4.60316  0.00000 -0.20632
       8     F     4.60666  4.60666  0.00000 -0.21332
       9     F     4.60243  4.60243  0.00000 -0.20486
      10     F     4.61280  4.61280  0.00000 -0.22559
      11     F     4.59968  4.59968  0.00000 -0.19936
      12     F     4.60170  4.60170  0.00000 -0.20340

   Total alpha = 41.00000, Total beta = 41.00000, Total charge =  0.00000
