  ==> Input File <==

--------------------------------------------------------------------------
set {
	reference rhf
	basis cc-pvtz
}

set_num_threads( 4 )
memory 2 gb

molecule MOL {
0 1

H	 -3.920812	 -1.376999	 0.936034
C	 -2.854786	 -1.257220	 0.973688
C	 -2.212487	 -1.174229	 2.196065
C	 -2.127817	 -1.186355	 -0.199545
H	 -2.777403	 -1.229312	 3.106305
C	 -0.842617	 -1.020320	 2.243644
H	 -2.626868	 -1.250815	 -1.146997
C	 -0.756090	 -1.032250	 -0.153552
H	 -0.329306	 -0.954349	 3.181310
C	 -0.109385	 -0.948763	 1.069278
H	 -0.190138	 -0.977020	 -1.060293
C	 1.368504	 -0.782228	 1.174299
O	 1.968286	 -0.725612	 -0.000027
O	 1.952208	 -0.707515	 2.203321
C	 3.373556	 -0.568203	 0.000011
H	 3.695416	 -0.031588	 -0.879663
H	 3.782700	 -1.565294	 -0.000152
H	 3.695405	 -0.031851	 0.879862

	symmetry c1
}
set optking {
	frozen_dihedral = ("
		12 13 15 16
	")
}

ee = optimize('scf')
oeprop('DIPOLE', 'QUADRUPOLE', 'MULLIKEN_CHARGES')
f=open( 'psi4out.xyz', 'w' )
f.write( "18  " )
f.write( str(ee) + "\n" )
f.write( MOL.save_string_xyz() )
f.close()
--------------------------------------------------------------------------

    Molecular point group: c1
  Charge       = 0
  Multiplicity = 1
  Basis Set: CC-PVTZ
  Basis Set:
  @DF-RHF Final Energy:  -457.50775367617507
    Total Energy =                       -457.5077536761752981
    Molecular point group: c1
  Basis Set: CC-PVTZ
  Basis Set:
  Basis Set: CC-PVTZ
  Basis Set:
  @DF-RHF Final Energy:  -457.50869435294101
    Total Energy =                       -457.5086943529410064
  Basis Set: CC-PVTZ
  Basis Set:
  Basis Set: CC-PVTZ
  Basis Set:
  @DF-RHF Final Energy:  -457.50876599323806
    Total Energy =                       -457.5087659932385122
  Basis Set: CC-PVTZ
  Basis Set:
  Basis Set: CC-PVTZ
  Basis Set:
  @DF-RHF Final Energy:  -457.50895675841514
    Total Energy =                       -457.5089567584152519
  Basis Set: CC-PVTZ
  Basis Set:
  Basis Set: CC-PVTZ
  Basis Set:
  @DF-RHF Final Energy:  -457.50907122243098
    Total Energy =                       -457.5090712224312028
  Basis Set: CC-PVTZ
  Basis Set:
  Basis Set: CC-PVTZ
  Basis Set:
  @DF-RHF Final Energy:  -457.50907119841497
    Total Energy =                       -457.5090711984151994
  Basis Set: CC-PVTZ
  Basis Set:
  Charge       = 0
  Multiplicity = 1
  Basis Set: CC-PVTZ
  Basis Set:

    Orbital Energies (a.u.)
    -----------------------

    Doubly Occupied:

       1A    -20.600428     2A    -20.534027     3A    -11.372522
       4A    -11.280588     5A    -11.244754     6A    -11.243319
       7A    -11.242451     8A    -11.239812     9A    -11.235860
      10A    -11.235096    11A     -1.475634    12A     -1.368846
      13A     -1.170542    14A     -1.051683    15A     -1.028838
      16A     -0.981177    17A     -0.862977    18A     -0.838236
      19A     -0.780884    20A     -0.744995    21A     -0.688147
      22A     -0.680709    23A     -0.676174    24A     -0.634128
      25A     -0.629883    26A     -0.601083    27A     -0.587578
      28A     -0.568582    29A     -0.528431    30A     -0.520095
      31A     -0.509816    32A     -0.501823    33A     -0.462664
      34A     -0.449398    35A     -0.350087    36A     -0.346039

  @DF-RHF Final Energy:  -457.50907298449278

   => Energetics <=

    Nuclear Repulsion Energy =            493.7934867906631666
    One-Electron Energy =               -1602.0705053313761255
    Two-Electron Energy =                 650.7679455562199564
    DFT Exchange-Correlation Energy =       0.0000000000000000
    Empirical Dispersion Energy =           0.0000000000000000
    PCM Polarization Energy =               0.0000000000000000
    EFP Energy =                            0.0000000000000000
    Total Energy =                       -457.5090729844930593
    Molecular point group: c1
  Basis Set: CC-PVTZ
  Basis Set:

  -Total Gradient:
     Atom            X                  Y                   Z
    ------   -----------------  -----------------  -----------------
       1        0.000000797893    -0.000000239789    -0.000000515761
       2        0.000001017445    -0.000000182567     0.000002609555
       3        0.000000130018     0.000001951841    -0.000001684676
       4        0.000006667208     0.000001054531    -0.000000601537
       5        0.000001646886     0.000001064700     0.000000424275
       6        0.000006221103    -0.000001137882    -0.000003348923
       7        0.000000956883    -0.000000288282    -0.000000462547
       8       -0.000004850707    -0.000004601988     0.000000221964
       9        0.000000134578    -0.000000885120     0.000002436839
      10       -0.000005341618    -0.000001090396    -0.000006060981
      11        0.000000055244     0.000001681213    -0.000001248877
      12       -0.000164687437     0.001482546024    -0.000020045995
      13        0.000254399892    -0.001795915155     0.000213775454
      14       -0.000003423126     0.000000149823    -0.000020185235
      15        0.000102741466    -0.001144777144    -0.000974256640
      16       -0.000190261215     0.001457658328     0.000797406852
      17        0.000007603185    -0.000002185874    -0.000000473182
      18       -0.000013807688     0.000005197738     0.000012009415

  **** Optimization is complete! (in 7 steps) ****
    Final optimized geometry and variables:
    Molecular point group: c1

    Geometry (in Angstrom), charge = 0, multiplicity = 1:

    H           -4.026490604422    -0.422819585360    -0.026916968431
    C           -2.959793891638    -0.311420163560     0.017874520145
    C           -2.324789781862    -0.235445631637     1.244594408614
    C           -2.224447743438    -0.244493480719    -1.150293887431
    H           -2.896015224450    -0.287621633099     2.151128113323
    C           -0.954100663443    -0.092520387016     1.301365190164
    H           -2.717502401046    -0.303636326239    -2.101267810219
    C           -0.851750052877    -0.101165291923    -1.095053911169
    H           -0.446651385052    -0.032401625534     2.242631237496
    C           -0.212409650608    -0.024538731149     0.131987629973
    H           -0.279706277719    -0.049263353993    -1.998143436577
    C            1.266765943228     0.130822926860     0.248496861190
    O            1.870968224663     0.178487571930    -0.924336747770
    O            1.839201899939     0.201811873657     1.283755993968
    C            3.273442394750     0.360845151931    -0.954726197650
    H            3.493098296711     0.886883425851    -1.870177492331
    H            3.768013652570    -0.600154160014    -0.947848723585
    H            3.602509883344     0.940117488127    -0.108413612962

  Mulliken Charges: (a.u.)
   Center  Symbol    Alpha    Beta     Spin     Total
       1     H     0.42032  0.42032  0.00000  0.15935
       2     C     3.06975  3.06975  0.00000 -0.13951
       3     C     3.07555  3.07555  0.00000 -0.15109
       4     C     3.07492  3.07492  0.00000 -0.14985
       5     H     0.42044  0.42044  0.00000  0.15913
       6     C     3.07587  3.07587  0.00000 -0.15175
       7     H     0.42194  0.42194  0.00000  0.15613
       8     C     3.08206  3.08206  0.00000 -0.16412
       9     H     0.40650  0.40650  0.00000  0.18701
      10     C     3.01652  3.01652  0.00000 -0.03303
      11     H     0.41112  0.41112  0.00000  0.17775
      12     C     2.77748  2.77748  0.00000  0.44504
      13     O     4.14945  4.14945  0.00000 -0.29891
      14     O     4.21142  4.21142  0.00000 -0.42284
      15     C     3.03859  3.03859  0.00000 -0.07717
      16     H     0.44779  0.44779  0.00000  0.10442
      17     H     0.45517  0.45517  0.00000  0.08967
      18     H     0.44511  0.44511  0.00000  0.10978

   Total alpha = 36.00000, Total beta = 36.00000, Total charge =  0.00000
