  ==> Input File <==

--------------------------------------------------------------------------
set {
	reference rhf
	basis 6-31G*
}

set_num_threads( 1 )
memory 2 gb

molecule MOL {
0 1

O	 2.678951	 1.356743	 1.705911
C	 2.389622	 0.283738	 1.284000
C	 1.245376	 -0.013843	 0.345420
O	 3.055582	 -0.821721	 1.593981
C	 0.455112	 1.231400	 -0.050772
H	 1.664919	 -0.520931	 -0.517156
H	 0.606031	 -0.743065	 0.836511
C	 -0.998893	 1.219485	 0.433193
H	 0.482531	 1.345121	 -1.130325
H	 0.957290	 2.103070	 0.354729
C	 -1.883438	 0.145884	 -0.207175
H	 -1.431207	 2.195402	 0.224832
H	 -1.019646	 1.105716	 1.516076
C	 -3.347647	 0.245583	 0.225435
H	 -1.822183	 0.231698	 -1.291012
H	 -1.510341	 -0.844814	 0.042401
C	 -4.239992	 -0.825570	 -0.404234
H	 -3.732888	 1.230466	 -0.033079
H	 -3.408585	 0.170602	 1.310038
C	 -5.701275	 -0.716658	 0.029921
H	 -4.179496	 -0.752714	 -1.488058
H	 -3.859041	 -1.810759	 -0.143352
H	 -6.308102	 -1.488908	 -0.432678
H	 -6.122175	 0.245478	 -0.248167
H	 -5.799072	 -0.820114	 1.106957
C	 4.157272	 -0.683104	 2.472587
H	 4.903504	 -0.028308	 2.046108
H	 4.559884	 -1.675910	 2.600050
H	 3.836746	 -0.284009	 3.424177

	symmetry c1
}
set optking {
	frozen_dihedral = ("
		21 17 14 11,
		17 14 11 15,
		15 11 8 5,
		11 8 5 9,
		2 4 26 27,
		1 2 4 26,
		6 3 2 1
	")
}

ee = energy('scf')
oeprop('DIPOLE', 'QUADRUPOLE', 'MULLIKEN_CHARGES')
f=open( 'psi4out.xyz', 'w' )
f.write( "29  " )
f.write( str(ee) + "\n" )
f.write( MOL.save_string_xyz() )
f.close()
--------------------------------------------------------------------------

    Molecular point group: c1

    Geometry (in Angstrom), charge = 0, multiplicity = 1:

       Center              X                  Y                   Z               Mass
    ------------   -----------------  -----------------  -----------------  -----------------
           O          2.841591133153     1.237500129263     1.006716912924    15.994914619560
           C          2.552262133153     0.164495129263     0.584805912924    12.000000000000
           C          1.408016133153    -0.133085870737    -0.353774087076    12.000000000000
           O          3.218222133153    -0.940963870737     0.894786912924    15.994914619560
           C          0.617752133153     1.112157129263    -0.749966087076    12.000000000000
           H          1.827559133153    -0.640173870737    -1.216350087076     1.007825032070
           H          0.768671133153    -0.862307870737     0.137316912924     1.007825032070
           C         -0.836252866847     1.100242129263    -0.266001087076    12.000000000000
           H          0.645171133153     1.225878129263    -1.829519087076     1.007825032070
           H          1.119930133153     1.983827129263    -0.344465087076     1.007825032070
           C         -1.720797866847     0.026641129263    -0.906369087076    12.000000000000
           H         -1.268566866847     2.076159129263    -0.474362087076     1.007825032070
           H         -0.857005866847     0.986473129263     0.816881912924     1.007825032070
           C         -3.185006866847     0.126340129263    -0.473759087076    12.000000000000
           H         -1.659542866847     0.112455129263    -1.990206087076     1.007825032070
           H         -1.347700866847    -0.964056870737    -0.656793087076     1.007825032070
           C         -4.077351866847    -0.944812870737    -1.103428087076    12.000000000000
           H         -3.570247866847     1.111223129263    -0.732273087076     1.007825032070
           H         -3.245944866847     0.051359129263     0.610843912924     1.007825032070
           C         -5.538634866847    -0.835900870737    -0.669273087076    12.000000000000
           H         -4.016855866847    -0.871956870737    -2.187252087076     1.007825032070
           H         -3.696400866847    -1.930001870737    -0.842546087076     1.007825032070
           H         -6.145461866847    -1.608150870737    -1.131872087076     1.007825032070
           H         -5.959534866847     0.126235129263    -0.947361087076     1.007825032070
           H         -5.636431866847    -0.939356870737     0.407762912924     1.007825032070
           C          4.319912133153    -0.802346870737     1.773392912924    12.000000000000
           H          5.066144133153    -0.147550870737     1.346913912924     1.007825032070
           H          4.722524133153    -1.795152870737     1.900855912924     1.007825032070
           H          3.999386133153    -0.403251870737     2.724982912924     1.007825032070

  Charge       = 0
  Multiplicity = 1
  Basis Set: 6-31G*
  Basis Set:

    Orbital Energies (a.u.)
    -----------------------

    Doubly Occupied:

       1A    -20.604155     2A    -20.546229     3A    -11.372622
       4A    -11.281080     5A    -11.233397     6A    -11.215610
       7A    -11.215286     8A    -11.214860     9A    -11.214529
      10A    -11.213589    11A    -11.208574    12A     -1.469892
      13A     -1.363733    14A     -1.097019    15A     -1.066085
      16A     -1.018572    17A     -0.976991    18A     -0.927504
      19A     -0.861007    20A     -0.799913    21A     -0.790218
      22A     -0.762509    23A     -0.702192    24A     -0.682231
      25A     -0.672907    26A     -0.652986    27A     -0.623409
      28A     -0.609113    29A     -0.591203    30A     -0.580615
      31A     -0.565211    32A     -0.550198    33A     -0.534995
      34A     -0.526658    35A     -0.516074    36A     -0.505082
      37A     -0.499743    38A     -0.474202    39A     -0.469042
      40A     -0.460320    41A     -0.457931    42A     -0.456742
      43A     -0.440574    44A     -0.436458

  @DF-RHF Final Energy:  -501.03941710655386

   => Energetics <=

    Nuclear Repulsion Energy =            613.8212839078184970
    One-Electron Energy =               -1898.7988134681058909
    Two-Electron Energy =                 783.9381124537351297
    DFT Exchange-Correlation Energy =       0.0000000000000000
    Empirical Dispersion Energy =           0.0000000000000000
    PCM Polarization Energy =               0.0000000000000000
    EFP Energy =                            0.0000000000000000
    Total Energy =                       -501.0394171065522642

  Mulliken Charges: (a.u.)
   Center  Symbol    Alpha    Beta     Spin     Total
       1     O     4.28471  4.28471  0.00000 -0.56942
       2     C     2.61133  2.61133  0.00000  0.77734
       3     C     3.21016  3.21016  0.00000 -0.42032
       4     O     4.30581  4.30581  0.00000 -0.61163
       5     C     3.16598  3.16598  0.00000 -0.33195
       6     H     0.39701  0.39701  0.00000  0.20598
       7     H     0.39785  0.39785  0.00000  0.20430
       8     C     3.15736  3.15736  0.00000 -0.31471
       9     H     0.41967  0.41967  0.00000  0.16067
      10     H     0.39068  0.39068  0.00000  0.21863
      11     C     3.15408  3.15408  0.00000 -0.30817
      12     H     0.41939  0.41939  0.00000  0.16122
      13     H     0.42157  0.42157  0.00000  0.15686
      14     C     3.15033  3.15033  0.00000 -0.30065
      15     H     0.42367  0.42367  0.00000  0.15266
      16     H     0.42448  0.42448  0.00000  0.15104
      17     C     3.15137  3.15137  0.00000 -0.30274
      18     H     0.42320  0.42320  0.00000  0.15359
      19     H     0.42381  0.42381  0.00000  0.15237
      20     C     3.23933  3.23933  0.00000 -0.47865
      21     H     0.42310  0.42310  0.00000  0.15380
      22     H     0.42354  0.42354  0.00000  0.15291
      23     H     0.41941  0.41941  0.00000  0.16118
      24     H     0.42158  0.42158  0.00000  0.15684
      25     H     0.42174  0.42174  0.00000  0.15653
      26     C     3.09227  3.09227  0.00000 -0.18454
      27     H     0.40899  0.40899  0.00000  0.18201
      28     H     0.40845  0.40845  0.00000  0.18309
      29     H     0.40911  0.40911  0.00000  0.18177

   Total alpha = 44.00000, Total beta = 44.00000, Total charge = -0.00000
