                              Psi4 1.0.54 Driver

  ==> Input File <==

--------------------------------------------------------------------------
set {
	reference rhf
	basis cc-pvtz
}

set_num_threads( 4 )
memory 2 gb

molecule MOL {
0 1

H	 -3.436473	 1.252944	 -1.023892
O	 -3.458596	 0.315260	 -0.960865
C	 -3.176635	 -0.080824	 0.355601
C	 -1.763371	 0.265266	 0.799691
H	 -3.321825	 -1.153438	 0.379502
H	 -3.895468	 0.357385	 1.043382
C	 -1.588038	 1.720500	 1.223807
H	 -1.479340	 -0.393134	 1.619264
H	 -1.086658	 0.037297	 -0.020356
C	 -0.173073	 2.042186	 1.697479
H	 -2.296763	 1.951101	 2.011490
H	 -1.842968	 2.365793	 0.386482
C	 -0.003012	 3.501366	 2.115715
H	 0.078281	 1.387219	 2.526170
H	 0.534374	 1.814080	 0.902908
C	 1.418657	 3.893040	 2.522285
H	 -0.682620	 3.720577	 2.936038
H	 -0.311847	 4.136790	 1.290198
C	 1.926609	 3.220698	 3.795503
H	 1.451173	 4.969294	 2.661550
H	 2.098913	 3.673789	 1.703383
H	 1.262414	 3.417676	 4.631039
H	 2.909297	 3.593457	 4.061242
H	 2.006517	 2.146190	 3.683017

	symmetry c1
}
set optking {
	frozen_dihedral = ("
		7 4 3 2
	")
}

ee,wfn = optimize('scf', return_wfn=True)
oeprop( wfn, 'DIPOLE', 'QUADRUPOLE', 'MULLIKEN_CHARGES')
f=open( 'psi4out.xyz', 'w' )
f.write( "24  " )
f.write( str(ee) + "\n" )
f.write( MOL.save_string_xyz() )
f.close()
--------------------------------------------------------------------------

    Molecular point group: c1
  Charge       = 0
  Multiplicity = 1
  Basis Set: CC-PVTZ
  Basis Set:
  @DF-RHF Final Energy:  -349.37896645894722
    Total Energy =                       -349.3789664589473887
    Molecular point group: c1
  Basis Set: CC-PVTZ
  Basis Set:
  Basis Set: CC-PVTZ
  Basis Set:
  @DF-RHF Final Energy:  -349.37918609577366
    Total Energy =                       -349.3791860957737754
  Basis Set: CC-PVTZ
  Basis Set:
  Basis Set: CC-PVTZ
  Basis Set:
  @DF-RHF Final Energy:  -349.37922515089303
    Total Energy =                       -349.3792251508934328
  Basis Set: CC-PVTZ
  Basis Set:
  Basis Set: CC-PVTZ
  Basis Set:
  @DF-RHF Final Energy:  -349.37922670687431
    Total Energy =                       -349.3792267068744763
  Basis Set: CC-PVTZ
  Basis Set:
  Charge       = 0
  Multiplicity = 1
  Basis Set: CC-PVTZ
  Basis Set:

    Orbital Energies (a.u.)
    -----------------------

    Doubly Occupied:

       1A    -20.545136     2A    -11.264681     3A    -11.217985
       4A    -11.214914     5A    -11.214224     6A    -11.213447
       7A    -11.213148     8A    -11.207447     9A     -1.362645
      10A     -1.093845    11A     -1.051730    12A     -0.988681
      13A     -0.919234    14A     -0.853526    15A     -0.799630
      16A     -0.780643    17A     -0.694694    18A     -0.655919
      19A     -0.624507    20A     -0.616141    21A     -0.598372
      22A     -0.588176    23A     -0.563599    24A     -0.536265
      25A     -0.531105    26A     -0.508860    27A     -0.492959
      28A     -0.486717    29A     -0.475598    30A     -0.462902
      31A     -0.458189    32A     -0.446057    33A     -0.425039

  @DF-RHF Final Energy:  -349.37922729499786

   => Energetics <=

    Nuclear Repulsion Energy =            383.7125725004354422
    One-Electron Energy =               -1233.9715608419351156
    Two-Electron Energy =                 500.8797610465014145
    DFT Exchange-Correlation Energy =       0.0000000000000000
    Empirical Dispersion Energy =           0.0000000000000000
    PCM Polarization Energy =               0.0000000000000000
    EFP Energy =                            0.0000000000000000
    Total Energy =                       -349.3792272949982021
    Molecular point group: c1
  Basis Set: CC-PVTZ
  Basis Set:

  -Total Gradient:
     Atom            X                  Y                   Z
    ------   -----------------  -----------------  -----------------
       1        0.000019227063    -0.000068320444     0.000075209098
       2        0.000834935470    -0.002468818725    -0.000815848680
       3       -0.001453312283     0.003211779304     0.002019290589
       4        0.001267108454    -0.000089775718    -0.003491492131
       5        0.000006681778     0.000012472501    -0.000072612647
       6        0.000060194918    -0.000020634742    -0.000024899759
       7       -0.000697625448    -0.000583006474     0.002297837131
       8        0.000031213928     0.000050842565    -0.000031421878
       9       -0.000097573093     0.000042840498     0.000066274679
      10        0.000030353435    -0.000036690575    -0.000010607845
      11       -0.000030730909    -0.000037780243    -0.000044816540
      12       -0.000001017627    -0.000012010780     0.000033285903
      13       -0.000019951476    -0.000021556948     0.000011757790
      14       -0.000020809273     0.000015034831    -0.000013922196
      15        0.000036025942    -0.000015478579    -0.000004665575
      16        0.000009807589    -0.000039171022    -0.000032737536
      17        0.000001464330    -0.000011795796     0.000005463263
      18       -0.000009680333     0.000025173265     0.000009412628
      19        0.000006454037     0.000015616843     0.000021487606
      20        0.000005799287     0.000023354742    -0.000009486506
      21        0.000006659329    -0.000014387157    -0.000008117021
      22       -0.000004991016    -0.000005528409     0.000009212145
      23       -0.000001882890     0.000011642518     0.000008574401
      24        0.000021648790     0.000016198542     0.000002823074

  **** Optimization is complete! (in 5 steps) ****
    Final optimized geometry and variables:
    Molecular point group: c1

    Geometry (in Angstrom), charge = 0, multiplicity = 1:

    H           -2.560167074628    -0.586310090364    -2.476451810401
    O           -2.517731662134    -1.522570451062    -2.412734223556
    C           -2.287209697901    -1.910462860202    -1.083383287950
    C           -0.885816135765    -1.572369626311    -0.591677161924
    H           -2.425887841264    -2.983006256508    -1.071730375657
    H           -3.036079286843    -1.481334010106    -0.421489905215
    C           -0.706314679741    -0.115211447746    -0.171701651581
    H           -0.662468756862    -2.208495627623     0.261231399776
    H           -0.179101538075    -1.833369699490    -1.372302571792
    C            0.710159249771     0.208301349772     0.296505244518
    H           -1.410200535187     0.112945522781     0.624977253943
    H           -0.959651374438     0.542969914828    -1.000596471613
    C            0.880436065547     1.664130832707     0.726104512006
    H            0.967291435819    -0.454255956313     1.116979574004
    H            1.410426708366    -0.012605705978    -0.505629339215
    C            2.305293803678     2.055134210318     1.122372344018
    H            0.208774270356     1.875077341447     1.555334320038
    H            0.562786092770     2.306502665458    -0.090849275934
    C            2.825657984635     1.375217143450     2.386534129446
    H            2.337350452656     3.130507938543     1.268278374107
    H            2.978024861786     1.842282238680     0.295735951920
    H            2.167261831659     1.563032795668     3.228764040792
    H            3.808675267302     1.750302394305     2.647391501982
    H            2.909527084023     0.302012103984     2.265292872907

  Mulliken Charges: (a.u.)
   Center  Symbol    Alpha    Beta     Spin     Total
       1     H     0.39358  0.39358  0.00000  0.21284
       2     O     4.20476  4.20476  0.00000 -0.40952
       3     C     2.97661  2.97661  0.00000  0.04677
       4     C     3.09439  3.09439  0.00000 -0.18879
       5     H     0.44899  0.44899  0.00000  0.10203
       6     H     0.47126  0.47126  0.00000  0.05748
       7     C     3.09436  3.09436  0.00000 -0.18873
       8     H     0.45622  0.45622  0.00000  0.08756
       9     H     0.44875  0.44875  0.00000  0.10250
      10     C     3.09177  3.09177  0.00000 -0.18354
      11     H     0.45324  0.45324  0.00000  0.09352
      12     H     0.46183  0.46183  0.00000  0.07634
      13     C     3.09467  3.09467  0.00000 -0.18935
      14     H     0.45184  0.45184  0.00000  0.09632
      15     H     0.45273  0.45273  0.00000  0.09453
      16     C     3.09040  3.09040  0.00000 -0.18081
      17     H     0.45424  0.45424  0.00000  0.09153
      18     H     0.45009  0.45009  0.00000  0.09982
      19     C     3.15255  3.15255  0.00000 -0.30510
      20     H     0.44843  0.44843  0.00000  0.10315
      21     H     0.45443  0.45443  0.00000  0.09115
      22     H     0.45503  0.45503  0.00000  0.08994
      23     H     0.44618  0.44618  0.00000  0.10765
      24     H     0.45365  0.45365  0.00000  0.09271

   Total alpha = 33.00000, Total beta = 33.00000, Total charge =  0.00000

*** Psi4 exiting successfully. Buy a developer a beer!
