                              Psi4 1.0.54 Driver

  ==> Input File <==

--------------------------------------------------------------------------
set {
	reference rhf
	basis cc-pvtz
}

set_num_threads( 4 )
memory 2 gb

molecule MOL {
0 1

H	 -2.816458	 -0.841657	 -0.064679
N	 -1.878861	 -0.711874	 0.250184
C	 -1.341419	 0.551458	 -0.220231
H	 -1.333674	 -1.468530	 -0.105118
C	 0.082190	 0.731516	 0.254705
H	 -1.357065	 0.652078	 -1.304747
H	 -1.939897	 1.357530	 0.189797
O	 0.881195	 -0.248324	 -0.336237
H	 0.440901	 1.722476	 -0.020063
H	 0.119896	 0.643586	 1.338114
C	 2.200188	 0.133134	 -0.545918
H	 2.716942	 -0.696419	 -1.006563
H	 2.264663	 0.994971	 -1.206808
H	 2.696654	 0.379449	 0.389717

	symmetry c1
}
set optking {
	frozen_dihedral = ("
		11 8 5 3
	")
}

ee,wfn = optimize('scf', return_wfn=True)
oeprop( wfn, 'DIPOLE', 'QUADRUPOLE', 'MULLIKEN_CHARGES')
f=open( 'psi4out.xyz', 'w' )
f.write( "14  " )
f.write( str(ee) + "\n" )
f.write( MOL.save_string_xyz() )
f.close()
--------------------------------------------------------------------------

    Molecular point group: c1
  Charge       = 0
  Multiplicity = 1
  Basis Set: CC-PVTZ
  Basis Set:
  @DF-RHF Final Energy:  -248.22386832520723
    Total Energy =                       -248.2238683252073770
    Molecular point group: c1
  Basis Set: CC-PVTZ
  Basis Set:
  Basis Set: CC-PVTZ
  Basis Set:
  @DF-RHF Final Energy:  -248.22397242346605
    Total Energy =                       -248.2239724234658524
  Basis Set: CC-PVTZ
  Basis Set:
  Basis Set: CC-PVTZ
  Basis Set:
  @DF-RHF Final Energy:  -248.22399245264393
    Total Energy =                       -248.2239924526440973
  Basis Set: CC-PVTZ
  Basis Set:
  Charge       = 0
  Multiplicity = 1
  Basis Set: CC-PVTZ
  Basis Set:

    Orbital Energies (a.u.)
    -----------------------

    Doubly Occupied:

       1A    -20.549290     2A    -15.522930     3A    -11.264772
       4A    -11.264028     5A    -11.239775     6A     -1.382549
       7A     -1.175469     8A     -1.000261     9A     -0.909659
      10A     -0.814675    11A     -0.682678    12A     -0.677844
      13A     -0.645891    14A     -0.613048    15A     -0.607080
      16A     -0.542546    17A     -0.532734    18A     -0.498556
      19A     -0.473922    20A     -0.417870    21A     -0.382774

  @DF-RHF Final Energy:  -248.22399300879945

   => Energetics <=

    Nuclear Repulsion Energy =            194.3871149568624048
    One-Electron Energy =                -722.8255124868558141
    Two-Electron Energy =                 280.2144045211939556
    DFT Exchange-Correlation Energy =       0.0000000000000000
    Empirical Dispersion Energy =           0.0000000000000000
    PCM Polarization Energy =               0.0000000000000000
    EFP Energy =                            0.0000000000000000
    Total Energy =                       -248.2239930087994253
    Molecular point group: c1
  Basis Set: CC-PVTZ
  Basis Set:

  -Total Gradient:
     Atom            X                  Y                   Z
    ------   -----------------  -----------------  -----------------
       1        0.000001939390     0.000016005798    -0.000000370774
       2        0.000009888943    -0.000032711963    -0.000006009508
       3        0.000387049067     0.001371489300    -0.001686090966
       4       -0.000003705401     0.000004989655     0.000000752133
       5       -0.000791816837    -0.001462624686     0.001328345190
       6        0.000022157657    -0.000015572773     0.000021927312
       7       -0.000019623169    -0.000003447997     0.000000966069
       8        0.001003810444    -0.000687581061     0.002665402273
       9       -0.000001639178     0.000010323808    -0.000008250043
      10       -0.000014071072    -0.000003338631    -0.000025910660
      11       -0.000558598644     0.000809586735    -0.002300177949
      12        0.000015378347    -0.000003553110     0.000000112304
      13       -0.000024619051    -0.000000669420     0.000015164888
      14       -0.000026150495    -0.000002895656    -0.000005860270

  **** Optimization is complete! (in 4 steps) ****
    Final optimized geometry and variables:
    Molecular point group: c1

    Geometry (in Angstrom), charge = 0, multiplicity = 1:

    H           -2.806761242180    -0.937260573937     0.042512146201
    N           -1.875281493740    -0.795497643845     0.370006839678
    C           -1.347310564204     0.475245261074    -0.090710439862
    H           -1.315769105882    -1.545593435972     0.022810249434
    C            0.076743839833     0.663996261294     0.382570162781
    H           -1.362312994761     0.583057197627    -1.174741792952
    H           -1.953028575164     1.273333947672     0.325266448840
    O            0.886699133673    -0.320685932270    -0.192862507556
    H            0.418906619868     1.652643753724     0.084741900737
    H            0.125992588610     0.598865807089     1.465944553283
    C            2.208510413635     0.046276402766    -0.411088926693
    H            2.718082673628    -0.798862526050    -0.851176459678
    H            2.278220020446     0.890835056654    -1.092426853981
    H            2.711994405072     0.309663299564     0.516574831168

  Mulliken Charges: (a.u.)
   Center  Symbol    Alpha    Beta     Spin     Total
       1     H     0.43059  0.43059  0.00000  0.13881
       2     N     3.69344  3.69344  0.00000 -0.38688
       3     C     3.02002  3.02002  0.00000 -0.04004
       4     H     0.42217  0.42217  0.00000  0.15566
       5     C     2.96798  2.96798  0.00000  0.06404
       6     H     0.46768  0.46768  0.00000  0.06464
       7     H     0.46014  0.46014  0.00000  0.07972
       8     O     4.18169  4.18169  0.00000 -0.36337
       9     H     0.47266  0.47266  0.00000  0.05469
      10     H     0.46303  0.46303  0.00000  0.07394
      11     C     3.03014  3.03014  0.00000 -0.06027
      12     H     0.44911  0.44911  0.00000  0.10179
      13     H     0.47125  0.47125  0.00000  0.05749
      14     H     0.47010  0.47010  0.00000  0.05979

   Total alpha = 21.00000, Total beta = 21.00000, Total charge = -0.00000

*** Psi4 exiting successfully. Buy a developer a beer!
