                              Psi4 1.0.54 Driver

  ==> Input File <==

--------------------------------------------------------------------------
set {
	reference rhf
	basis cc-pvtz
}

set_num_threads( 4 )
memory 2 gb

molecule MOL {
0 1

O	 0.918239	 -0.029706	 0.774354
C	 0.029490	 0.077183	 0.000078
C	 -1.232113	 -0.748027	 0.000015
O	 0.030153	 0.955958	 -0.988348
C	 -2.501422	 0.088592	 -0.000052
H	 -1.188777	 -1.400384	 -0.865133
H	 -1.188857	 -1.400312	 0.865225
H	 -2.548170	 0.725504	 -0.873205
H	 -3.371613	 -0.556398	 -0.000040
H	 -2.548215	 0.725571	 0.873047
C	 1.158405	 1.799033	 -1.106308
H	 1.281046	 2.398484	 -0.216447
H	 0.969589	 2.431793	 -1.958241
H	 2.054078	 1.217030	 -1.265332

	symmetry c1
}
set optking {
	frozen_dihedral = ("
		4 2 3 6
	")
}

ee,wfn = optimize('scf', return_wfn=True)
oeprop( wfn, 'DIPOLE', 'QUADRUPOLE', 'MULLIKEN_CHARGES')
f=open( 'psi4out.xyz', 'w' )
f.write( "14  " )
f.write( str(ee) + "\n" )
f.write( MOL.save_string_xyz() )
f.close()
--------------------------------------------------------------------------

    Molecular point group: c1
  Charge       = 0
  Multiplicity = 1
  Basis Set: CC-PVTZ
  Basis Set:
  @DF-RHF Final Energy:  -305.98574218600959
    Total Energy =                       -305.9857421860095883
    Molecular point group: c1
  Basis Set: CC-PVTZ
  Basis Set:
  Basis Set: CC-PVTZ
  Basis Set:
  @DF-RHF Final Energy:  -305.98591098978568
    Total Energy =                       -305.9859109897848839
  Basis Set: CC-PVTZ
  Basis Set:
  Basis Set: CC-PVTZ
  Basis Set:
  @DF-RHF Final Energy:  -305.98539567265891
    Total Energy =                       -305.9853956726589104
  Basis Set: CC-PVTZ
  Basis Set:
  Basis Set: CC-PVTZ
  Basis Set:
  @DF-RHF Final Energy:  -305.98600946023043
    Total Energy =                       -305.9860094602303207
  Basis Set: CC-PVTZ
  Basis Set:
  Charge       = 0
  Multiplicity = 1
  Basis Set: CC-PVTZ
  Basis Set:

    Orbital Energies (a.u.)
    -----------------------

    Doubly Occupied:

       1A    -20.598089     2A    -20.533414     3A    -11.364599
       4A    -11.279472     5A    -11.236693     6A    -11.223054
       7A     -1.473205     8A     -1.365519     9A     -1.068351
      10A     -0.976402    11A     -0.887052    12A     -0.776680
      13A     -0.698220    14A     -0.683379    15A     -0.676936
      16A     -0.621131    17A     -0.589007    18A     -0.569297
      19A     -0.546451    20A     -0.521668    21A     -0.515112
      22A     -0.501974    23A     -0.460590    24A     -0.437542

  @DF-RHF Final Energy:  -305.98601620477780

   => Energetics <=

    Nuclear Repulsion Energy =            248.7747422992469239
    One-Electron Energy =                -910.3138448206559588
    Two-Electron Energy =                 355.5530863166314361
    DFT Exchange-Correlation Energy =       0.0000000000000000
    Empirical Dispersion Energy =           0.0000000000000000
    PCM Polarization Energy =               0.0000000000000000
    EFP Energy =                            0.0000000000000000
    Total Energy =                       -305.9860162047776271
    Molecular point group: c1
  Basis Set: CC-PVTZ
  Basis Set:

  -Total Gradient:
     Atom            X                  Y                   Z
    ------   -----------------  -----------------  -----------------
       1        0.000065875849     0.000120340147    -0.000067805035
       2        0.000091558883    -0.000526775522    -0.000384914344
       3       -0.000352736582     0.000522751171    -0.000235287734
       4       -0.000124392183     0.000226491156     0.000376580142
       5        0.000058357928     0.000017478862    -0.000002071932
       6        0.000247935840    -0.000348687920     0.000293728627
       7       -0.000002500720     0.000017339203    -0.000022892555
       8        0.000000742089    -0.000026600560     0.000059765541
       9        0.000020969853     0.000026751610    -0.000012082285
      10       -0.000011165077    -0.000013789644    -0.000035255572
      11        0.000020365835     0.000000932202     0.000035824483
      12       -0.000006045839    -0.000017814693    -0.000023007890
      13        0.000013255364    -0.000008734053     0.000014519181
      14       -0.000022221238     0.000010318045     0.000002899377

  **** Optimization is complete! (in 5 steps) ****
    Final optimized geometry and variables:
    Molecular point group: c1

    Geometry (in Angstrom), charge = 0, multiplicity = 1:

    O            1.165059846892    -0.441528884137     0.990386348613
    C            0.272444004369    -0.301007345257     0.225186894316
    C           -0.993385020512    -1.120101388839     0.228199106697
    O            0.288951100274     0.595453742829    -0.746644960791
    C           -2.273417936599    -0.287061678400     0.212704227413
    H           -0.959290036229    -1.762768413503    -0.645574503854
    H           -0.951550815328    -1.753685860984     1.101594369504
    H           -2.338791869878     0.317497007236    -0.680707009022
    H           -3.137296514990    -0.938721298240     0.247407529330
    H           -2.320023898755     0.371916722598     1.071861045066
    C            1.438232377131     1.410906762617    -0.857285835492
    H            1.583655253836     1.987819066386     0.043750114216
    H            1.259107093151     2.065892156868    -1.694394891378
    H            2.316514452870     0.808618764663    -1.035756018945

  Mulliken Charges: (a.u.)
   Center  Symbol    Alpha    Beta     Spin     Total
       1     O     4.19889  4.19889  0.00000 -0.39778
       2     C     2.80264  2.80264  0.00000  0.39472
       3     C     3.08565  3.08565  0.00000 -0.17130
       4     O     4.14905  4.14905  0.00000 -0.29809
       5     C     3.14786  3.14786  0.00000 -0.29573
       6     H     0.44766  0.44766  0.00000  0.10469
       7     H     0.43559  0.43559  0.00000  0.12881
       8     H     0.44562  0.44562  0.00000  0.10875
       9     H     0.44812  0.44812  0.00000  0.10375
      10     H     0.45084  0.45084  0.00000  0.09832
      11     C     3.03502  3.03502  0.00000 -0.07004
      12     H     0.45403  0.45403  0.00000  0.09193
      13     H     0.44583  0.44583  0.00000  0.10835
      14     H     0.45319  0.45319  0.00000  0.09361

   Total alpha = 24.00000, Total beta = 24.00000, Total charge = -0.00000

*** Psi4 exiting successfully. Buy a developer a beer!
