                              Psi4 1.0.54 Driver

  ==> Input File <==

--------------------------------------------------------------------------
set {
	reference rhf
	basis cc-pvtz
}

set_num_threads( 4 )
memory 2 gb

molecule MOL {
0 1

H	 -3.162190	 0.493205	 -0.000107
C	 -2.363908	 -0.234727	 0.000005
O	 -1.158738	 0.454634	 -0.000087
H	 -2.464314	 -0.863616	 -0.882153
H	 -2.464327	 -0.863359	 0.882345
C	 -1.057299	 1.438833	 0.980413
C	 0.296040	 2.112230	 0.873640
H	 -1.179510	 0.995690	 1.969011
H	 -1.853323	 2.173437	 0.856532
C	 0.485731	 3.206941	 1.917659
H	 1.066969	 1.357046	 0.979907
H	 0.398483	 2.525468	 -0.123702
H	 0.411150	 2.810127	 2.924666
H	 1.459582	 3.670463	 1.818751
H	 -0.261606	 3.986495	 1.813496

	symmetry c1
}
set optking {
	frozen_dihedral = ("
		6 3 2 4
	")
}

ee,wfn = optimize('scf', return_wfn=True)
oeprop( wfn, 'DIPOLE', 'QUADRUPOLE', 'MULLIKEN_CHARGES')
f=open( 'psi4out.xyz', 'w' )
f.write( "15  " )
f.write( str(ee) + "\n" )
f.write( MOL.save_string_xyz() )
f.close()
--------------------------------------------------------------------------

    Molecular point group: c1
  Charge       = 0
  Multiplicity = 1
  Basis Set: CC-PVTZ
  Basis Set:
  @DF-RHF Final Energy:  -232.22697220443533
    Total Energy =                       -232.2269722044351283
    Molecular point group: c1
  Basis Set: CC-PVTZ
  Basis Set:
  Basis Set: CC-PVTZ
  Basis Set:
  @DF-RHF Final Energy:  -232.22776899345303
    Total Energy =                       -232.2277689934531963
  Basis Set: CC-PVTZ
  Basis Set:
  Basis Set: CC-PVTZ
  Basis Set:
  @DF-RHF Final Energy:  -232.22798761518303
    Total Energy =                       -232.2279876151829399
  Basis Set: CC-PVTZ
  Basis Set:
  Charge       = 0
  Multiplicity = 1
  Basis Set: CC-PVTZ
  Basis Set:

    Orbital Energies (a.u.)
    -----------------------

    Doubly Occupied:

       1A    -20.547367     2A    -11.264447     3A    -11.261741
       4A    -11.212748     5A    -11.210717     6A     -1.381675
       7A     -1.058469     8A     -0.956165     9A     -0.877348
      10A     -0.809564    11A     -0.677057    12A     -0.655846
      13A     -0.632238    14A     -0.608622    15A     -0.565081
      16A     -0.541308    17A     -0.503698    18A     -0.490171
      19A     -0.478448    20A     -0.462898    21A     -0.416538

  @DF-RHF Final Energy:  -232.22798850472884

   => Energetics <=

    Nuclear Repulsion Energy =            189.9982754387249315
    One-Electron Energy =                -691.2282376801593955
    Two-Electron Energy =                 269.0019737367057360
    DFT Exchange-Correlation Energy =       0.0000000000000000
    Empirical Dispersion Energy =           0.0000000000000000
    PCM Polarization Energy =               0.0000000000000000
    EFP Energy =                            0.0000000000000000
    Total Energy =                       -232.2279885047287280
    Molecular point group: c1
  Basis Set: CC-PVTZ
  Basis Set:

  -Total Gradient:
     Atom            X                  Y                   Z
    ------   -----------------  -----------------  -----------------
       1        0.000020123013     0.000016289679     0.000006188125
       2        0.000582438849    -0.000902380590     0.000536461974
       3        0.000504518514    -0.000799595661     0.000788332594
       4       -0.000577804425     0.001053153483    -0.000631003806
       5        0.000034077169     0.000017633402     0.000004817936
       6       -0.000532687448     0.000727055639    -0.000553312209
       7        0.000021148845    -0.000049506211    -0.000082651439
       8       -0.000007205835    -0.000011649755     0.000002950695
       9       -0.000003552824    -0.000017333811    -0.000035720509
      10       -0.000061929834    -0.000030131109    -0.000002600292
      11        0.000007602409    -0.000003884151    -0.000002992701
      12        0.000023843347     0.000016637518    -0.000011572070
      13        0.000000045441    -0.000002183628     0.000000483350
      14       -0.000007855497    -0.000023873652    -0.000023711013
      15       -0.000002761726     0.000009768844     0.000004329367

  **** Optimization is complete! (in 4 steps) ****
    Final optimized geometry and variables:
    Molecular point group: c1

    Geometry (in Angstrom), charge = 0, multiplicity = 1:

    H           -2.414135464152    -0.969335673007    -0.754816301141
    C           -1.549078342490    -1.629152619076    -0.770173721495
    O           -0.361416771193    -0.909877839851    -0.767483276640
    H           -1.583413009951    -2.211572641499    -1.679642196837
    H           -1.613592482883    -2.298413570487     0.084926201902
    C           -0.270458397543     0.054127394607     0.233748560138
    C            1.070463203898     0.752801648806     0.132634581115
    H           -0.378313609784    -0.410678255333     1.214325143825
    H           -1.079970428646     0.776618880791     0.129362205093
    C            1.245580170219     1.832326098666     1.194881803776
    H            1.855328445312     0.009833583140     0.222224601495
    H            1.160805209573     1.185173477014    -0.857836274215
    H            1.182855728313     1.416695033080     2.195131202689
    H            2.210608686434     2.314850619867     1.099756008817
    H            0.483953925957     2.600132452576     1.107698285742

  Mulliken Charges: (a.u.)
   Center  Symbol    Alpha    Beta     Spin     Total
       1     H     0.47400  0.47400  0.00000  0.05200
       2     C     3.03318  3.03318  0.00000 -0.06635
       3     O     4.17178  4.17178  0.00000 -0.34355
       4     H     0.44736  0.44736  0.00000  0.10528
       5     H     0.46974  0.46974  0.00000  0.06051
       6     C     2.95610  2.95610  0.00000  0.08779
       7     C     3.08029  3.08029  0.00000 -0.16058
       8     H     0.47667  0.47667  0.00000  0.04666
       9     H     0.47490  0.47490  0.00000  0.05021
      10     C     3.15582  3.15582  0.00000 -0.31164
      11     H     0.45104  0.45104  0.00000  0.09792
      12     H     0.45115  0.45115  0.00000  0.09770
      13     H     0.45583  0.45583  0.00000  0.08834
      14     H     0.44627  0.44627  0.00000  0.10746
      15     H     0.45587  0.45587  0.00000  0.08826

   Total alpha = 21.00000, Total beta = 21.00000, Total charge = -0.00000

*** Psi4 exiting successfully. Buy a developer a beer!
