  ==> Input File <==

--------------------------------------------------------------------------
set {
	reference rhf
	basis 6-31G*
}

set_num_threads( 4 )
memory 2 gb

molecule MOL {
0 1

O	 -1.276010	 1.052711	 -0.768302
C	 -1.204840	 0.067374	 -0.106123
C	 -2.388195	 -0.672128	 0.458071
O	 -0.067104	 -0.527208	 0.221609
H	 -2.388023	 -1.694060	 0.097175
H	 -3.300579	 -0.174919	 0.164318
H	 -2.315377	 -0.706351	 1.539059
C	 1.170111	 0.034140	 -0.238951
C	 2.215200	 -0.359814	 0.789726
C	 1.024894	 1.539979	 -0.393886
H	 1.400628	 -0.411027	 -1.195610
H	 2.275511	 -1.438404	 0.880576
H	 3.189937	 0.014396	 0.494450
H	 1.969843	 0.052085	 1.762758
H	 1.964729	 1.973858	 -0.720191
H	 0.268815	 1.778981	 -1.130907
H	 0.749327	 1.993701	 0.552796

	symmetry c1
}
set optking {
	frozen_dihedral = ("
		11 8 4 2
	")
}

ee = optimize('scf')
oeprop('DIPOLE', 'QUADRUPOLE', 'MULLIKEN_CHARGES')
f=open( 'psi4out.xyz', 'w' )
f.write( "17  " )
f.write( str(ee) + "\n" )
f.write( MOL.save_string_xyz() )
f.close()
--------------------------------------------------------------------------

    Molecular point group: c1
  Charge       = 0
  Multiplicity = 1
  Basis Set: 6-31G*
  Basis Set:
  @DF-RHF Final Energy:  -344.88314832705817
    Total Energy =                       -344.8831483270579383
    Molecular point group: c1
  Basis Set: 6-31G*
  Basis Set:
  Basis Set: 6-31G*
  Basis Set:
  @DF-RHF Final Energy:  -344.90155440526161
    Total Energy =                       -344.9015544052610949
  Basis Set: 6-31G*
  Basis Set:
  Basis Set: 6-31G*
  Basis Set:
  @DF-RHF Final Energy:  -344.90503681295263
    Total Energy =                       -344.9050368129524031
  Basis Set: 6-31G*
  Basis Set:
  Basis Set: 6-31G*
  Basis Set:
  @DF-RHF Final Energy:  -344.90195436212304
    Total Energy =                       -344.9019543621229786
  Basis Set: 6-31G*
  Basis Set:
  @DF-RHF Final Energy:  -344.90627493766721
    Total Energy =                       -344.9062749376671491
  Basis Set: 6-31G*
  Basis Set:
  @DF-RHF Final Energy:  -344.90640858797093
    Total Energy =                       -344.9064085879708728
  Basis Set: 6-31G*
  Basis Set:
  Basis Set: 6-31G*
  Basis Set:
  @DF-RHF Final Energy:  -344.90642406638381
    Total Energy =                       -344.9064240663837495
  Basis Set: 6-31G*
  Basis Set:
  Basis Set: 6-31G*
  Basis Set:
  @DF-RHF Final Energy:  -344.90642669086526
    Total Energy =                       -344.9064266908651462
  Basis Set: 6-31G*
  Basis Set:
  Charge       = 0
  Multiplicity = 1
  Basis Set: 6-31G*
  Basis Set:

    Orbital Energies (a.u.)
    -----------------------

    Doubly Occupied:

       1A    -20.597065     2A    -20.541048     3A    -11.374739
       4A    -11.296182     5A    -11.230571     6A    -11.219359
       7A    -11.213473     8A     -1.460646     9A     -1.361583
      10A     -1.079972    11A     -1.003371    12A     -0.946357
      13A     -0.857729    14A     -0.749707    15A     -0.689404
      16A     -0.678233    17A     -0.656623    18A     -0.614589
      19A     -0.585470    20A     -0.578869    21A     -0.552575
      22A     -0.547424    23A     -0.543698    24A     -0.516944
      25A     -0.501278    26A     -0.485707    27A     -0.444296
      28A     -0.428859

  @DF-RHF Final Energy:  -344.90642699563620

   => Energetics <=

    Nuclear Repulsion Energy =            323.6092547763524294
    One-Electron Energy =               -1111.5198225630126672
    Two-Electron Energy =                 443.0041407910239855
    DFT Exchange-Correlation Energy =       0.0000000000000000
    Empirical Dispersion Energy =           0.0000000000000000
    PCM Polarization Energy =               0.0000000000000000
    EFP Energy =                            0.0000000000000000
    Total Energy =                       -344.9064269956363091
    Molecular point group: c1
  Basis Set: 6-31G*
  Basis Set:

  -Total Gradient:
     Atom            X                  Y                   Z
    ------   -----------------  -----------------  -----------------
       1       -0.000019140250    -0.000021760597    -0.000005328818
       2       -0.000046735458     0.003228574372     0.004856094634
       3        0.000020458174     0.000036984281     0.000040695960
       4        0.000721555819    -0.005864372565    -0.006799403154
       5       -0.000003204603    -0.000010108233    -0.000020374695
       6        0.000004577814    -0.000000305352    -0.000009213545
       7        0.000003735228    -0.000018617988    -0.000005966457
       8       -0.003663679455     0.007072983693    -0.000979622587
       9       -0.000021557289    -0.000014782426     0.000001490379
      10       -0.000027887582     0.000032468614    -0.000000202770
      11        0.003008274293    -0.004436174695     0.002920805478
      12        0.000008486958    -0.000006009552     0.000012823841
      13       -0.000012084054    -0.000005178346    -0.000004707118
      14        0.000002722671    -0.000000374635     0.000005569561
      15        0.000006738539     0.000001460314    -0.000000277812
      16        0.000008137889     0.000006877181     0.000008204882
      17        0.000009601309    -0.000001664067    -0.000020587779

  **** Optimization is complete! (in 9 steps) ****
    Final optimized geometry and variables:
    Molecular point group: c1

    Geometry (in Angstrom), charge = 0, multiplicity = 1:

    O           -1.384377429303     0.705239590708    -0.950948467507
    C           -1.175944754092    -0.151938573902    -0.155123419868
    C           -2.253120985820    -0.877404247000     0.609143938134
    O            0.018868973031    -0.626500584709     0.163402357448
    H           -2.187899022942    -1.941328772821     0.413049109638
    H           -3.221811088063    -0.504521651961     0.311452828330
    H           -2.109323016912    -0.731102576153     1.673514609930
    C            1.268748946024    -0.029057101328    -0.223687053091
    C            2.256354511362    -0.535765733570     0.819944607129
    C            1.270408810662     1.491322543990    -0.298478031124
    H            1.542240940587    -0.471533958544    -1.174350267993
    H            2.219743866026    -1.616819878322     0.885116349985
    H            3.266395932850    -0.241052007724     0.555419485906
    H            2.022345934478    -0.126461035231     1.797159169820
    H            2.296532792375     1.822115702943    -0.425022051263
    H            0.678289846873     1.868166742524    -1.115657186279
    H            0.895049224865     1.917427584210     0.626691931975

  Mulliken Charges: (a.u.)
   Center  Symbol    Alpha    Beta     Spin     Total
       1     O     4.28382  4.28382  0.00000 -0.56763
       2     C     2.61539  2.61539  0.00000  0.76921
       3     C     3.28052  3.28052  0.00000 -0.56104
       4     O     4.32125  4.32125  0.00000 -0.64250
       5     H     0.40079  0.40079  0.00000  0.19841
       6     H     0.39806  0.39806  0.00000  0.20388
       7     H     0.40262  0.40262  0.00000  0.19475
       8     C     2.91389  2.91389  0.00000  0.17221
       9     C     3.24235  3.24235  0.00000 -0.48469
      10     C     3.25822  3.25822  0.00000 -0.51645
      11     H     0.41284  0.41284  0.00000  0.17432
      12     H     0.41041  0.41041  0.00000  0.17918
      13     H     0.41864  0.41864  0.00000  0.16272
      14     H     0.41597  0.41597  0.00000  0.16807
      15     H     0.41925  0.41925  0.00000  0.16150
      16     H     0.38819  0.38819  0.00000  0.22363
      17     H     0.41778  0.41778  0.00000  0.16445

   Total alpha = 28.00000, Total beta = 28.00000, Total charge = -0.00000
