  ==> Input File <==

--------------------------------------------------------------------------
set {
	reference rhf
	basis 6-31G*
}

set_num_threads( 4 )
memory 2 gb

molecule MOL {
0 1

O	 3.139681	 0.769770	 -0.943548
C	 2.655070	 -0.049185	 -0.231139
C	 1.205183	 -0.106779	 0.185153
O	 3.347903	 -1.046386	 0.304773
C	 0.362969	 1.015480	 -0.417612
H	 0.833407	 -1.087862	 -0.091342
H	 1.179482	 -0.074918	 1.271441
C	 -1.087142	 1.033067	 0.077730
H	 0.380858	 0.935344	 -1.500375
H	 0.830968	 1.964683	 -0.180099
C	 -1.930001	 -0.171696	 -0.350341
H	 -1.559868	 1.938222	 -0.296366
H	 -1.098354	 1.114014	 1.163700
C	 -3.395095	 -0.053964	 0.074674
H	 -1.877185	 -0.278701	 -1.432736
H	 -1.515653	 -1.086344	 0.067637
C	 -4.245800	 -1.254715	 -0.343216
H	 -3.821380	 0.852891	 -0.350918
H	 -3.448034	 0.063841	 1.155886
C	 -5.708339	 -1.127534	 0.081641
H	 -4.193213	 -1.374487	 -1.423277
H	 -3.823778	 -2.161617	 0.084811
H	 -6.285215	 -1.993325	 -0.228565
H	 -6.169412	 -0.247944	 -0.358732
H	 -5.796977	 -1.040527	 1.160921
C	 4.728119	 -1.109107	 -0.004993
H	 4.882018	 -1.033965	 -1.071845
H	 5.068212	 -2.067527	 0.355250
H	 5.265056	 -0.311663	 0.488280

	symmetry c1
}
set optking {
	frozen_dihedral = ("
		2 4 26 27
	")
}

ee = optimize('scf')
oeprop('DIPOLE', 'QUADRUPOLE', 'MULLIKEN_CHARGES')
f=open( 'psi4out.xyz', 'w' )
f.write( "29  " )
f.write( str(ee) + "\n" )
f.write( MOL.save_string_xyz() )
f.close()
--------------------------------------------------------------------------

    Molecular point group: c1
  Charge       = 0
  Multiplicity = 1
  Basis Set: 6-31G*
  Basis Set:
  @DF-RHF Final Energy:  -501.04391186399062
    Total Energy =                       -501.0439118639901608
    Molecular point group: c1
  Basis Set: 6-31G*
  Basis Set:
  Basis Set: 6-31G*
  Basis Set:
  @DF-RHF Final Energy:  -501.04392230115207
    Total Energy =                       -501.0439223011510421
  Basis Set: 6-31G*
  Basis Set:
  Basis Set: 6-31G*
  Basis Set:
  @DF-RHF Final Energy:  -501.04383747890654
    Total Energy =                       -501.0438374789060845
  Basis Set: 6-31G*
  Basis Set:
  Basis Set: 6-31G*
  Basis Set:
  @DF-RHF Final Energy:  -501.04393375155621
    Total Energy =                       -501.0439337515563238
  Basis Set: 6-31G*
  Basis Set:
  Basis Set: 6-31G*
  Basis Set:
  @DF-RHF Final Energy:  -501.04393554637863
    Total Energy =                       -501.0439355463790889
  Basis Set: 6-31G*
  Basis Set:
  Charge       = 0
  Multiplicity = 1
  Basis Set: 6-31G*
  Basis Set:

    Orbital Energies (a.u.)
    -----------------------

    Doubly Occupied:

       1A    -20.603285     2A    -20.545133     3A    -11.372119
       4A    -11.280549     5A    -11.234681     6A    -11.219052
       7A    -11.217612     8A    -11.215991     9A    -11.215853
      10A    -11.214451    11A    -11.209067    12A     -1.468850
      13A     -1.362551    14A     -1.098060    15A     -1.066788
      16A     -1.019506    17A     -0.977279    18A     -0.928561
      19A     -0.861596    20A     -0.799249    21A     -0.790490
      22A     -0.763780    23A     -0.700875    24A     -0.682037
      25A     -0.672130    26A     -0.650869    27A     -0.628706
      28A     -0.604762    29A     -0.595182    30A     -0.580942
      31A     -0.566930    32A     -0.549254    33A     -0.532332
      34A     -0.529821    35A     -0.516147    36A     -0.511842
      37A     -0.496350    38A     -0.477821    39A     -0.470131
      40A     -0.462410    41A     -0.458909    42A     -0.455209
      43A     -0.441270    44A     -0.435311

  @DF-RHF Final Energy:  -501.04393518600352

   => Energetics <=

    Nuclear Repulsion Energy =            610.2008531894126691
    One-Electron Energy =               -1891.5220881288678356
    Two-Electron Energy =                 780.2772997534511887
    DFT Exchange-Correlation Energy =       0.0000000000000000
    Empirical Dispersion Energy =           0.0000000000000000
    PCM Polarization Energy =               0.0000000000000000
    EFP Energy =                            0.0000000000000000
    Total Energy =                       -501.0439351860040915
    Molecular point group: c1
  Basis Set: 6-31G*
  Basis Set:

  -Total Gradient:
     Atom            X                  Y                   Z
    ------   -----------------  -----------------  -----------------
       1        0.000005122142    -0.000016067160     0.000003791093
       2       -0.000168372749    -0.000473566278    -0.000653406742
       3       -0.000019697853    -0.000016029025    -0.000016533425
       4        0.000268036610     0.000927336231     0.000934259464
       5        0.000010114243     0.000019867494     0.000024122448
       6       -0.000019748278    -0.000011983274     0.000006965721
       7        0.000003125469     0.000008183906    -0.000001558807
       8       -0.000011515262     0.000017262139    -0.000026939947
       9        0.000000528496     0.000013840735    -0.000002452500
      10        0.000007573152    -0.000011684732     0.000009032343
      11        0.000011163938    -0.000002776102    -0.000003158054
      12       -0.000007656656    -0.000004817498    -0.000008910390
      13       -0.000007163092     0.000013098185    -0.000004735442
      14        0.000002597243    -0.000009555492     0.000014843495
      15       -0.000001688470     0.000000428438     0.000005365809
      16        0.000024854550    -0.000010422433     0.000001773709
      17        0.000000293796    -0.000001433348     0.000004400161
      18        0.000001366050     0.000001718659     0.000006967555
      19        0.000001442718    -0.000006377716     0.000003465176
      20       -0.000002854063     0.000005790841    -0.000011604485
      21        0.000004118759    -0.000005225618    -0.000000027939
      22       -0.000002698930     0.000002564925     0.000005392408
      23       -0.000001020778     0.000001723253    -0.000003382678
      24       -0.000002672720     0.000002257867     0.000002416560
      25        0.000002812360    -0.000002673800    -0.000001432659
      26       -0.000170554060    -0.001419794211    -0.000354790337
      27        0.000063168378     0.000972237813     0.000066040671
      28       -0.000009023050     0.000005283504     0.000001238497
      29        0.000018348053     0.000000812699    -0.000001141710

  **** Optimization is complete! (in 6 steps) ****
    Final optimized geometry and variables:
    Molecular point group: c1

    Geometry (in Angstrom), charge = 0, multiplicity = 1:

    O            3.180361426171     0.977727885841    -0.798687600175
    C            2.695896319301     0.158311651221    -0.086731321450
    C            1.245620093307     0.100262009199     0.328306387366
    O            3.387970358579    -0.838325040532     0.451284063865
    C            0.403974410813     1.223554706019    -0.273317034024
    H            0.873858717747    -0.880368420846     0.050248791746
    H            1.219243033119     0.130644609510     1.414624777496
    C           -1.046809959812     1.239634752538     0.220066477096
    H            0.423345652723     1.145632406655    -1.356213629486
    H            0.871387906804     2.172394604882    -0.033230473149
    C           -1.887098901582     0.032774005784    -0.207170041983
    H           -1.520534214637     2.143417765313    -0.156085475030
    H           -1.059588270233     1.322260432097     1.305890949089
    C           -3.352616582174     0.148029017071     0.217079823666
    H           -1.833585041480    -0.075188590263    -1.289432851530
    H           -1.471111810216    -0.880634873777     0.211890509460
    C           -4.201126306885    -1.054051625420    -0.201427153271
    H           -3.780147879147     1.054224394608    -0.208656666690
    H           -3.406342280665     0.265645872271     1.298269565988
    C           -5.664525888437    -0.928433210831     0.220940075008
    H           -4.146631643418    -1.174436529624    -1.281324836076
    H           -3.778666219461    -1.960153738021     0.227857529637
    H           -6.239870293456    -1.794999961855    -0.089952785168
    H           -6.125886772038    -0.049520923650    -0.220479432214
    H           -5.755060805077    -0.841182859165     1.300041865036
    C            4.765247853775    -0.916375992037     0.131432995280
    H            4.914273627470    -0.853200217915    -0.935936198510
    H            5.104633942421    -1.868540290623     0.508261414568
    H            5.307697808235    -0.112536530396     0.610144257929

  Mulliken Charges: (a.u.)
   Center  Symbol    Alpha    Beta     Spin     Total
       1     O     4.28597  4.28597  0.00000 -0.57193
       2     C     2.60476  2.60476  0.00000  0.79048
       3     C     3.20979  3.20979  0.00000 -0.41957
       4     O     4.30763  4.30763  0.00000 -0.61527
       5     C     3.15376  3.15376  0.00000 -0.30751
       6     H     0.39886  0.39886  0.00000  0.20229
       7     H     0.40119  0.40119  0.00000  0.19761
       8     C     3.15661  3.15661  0.00000 -0.31321
       9     H     0.41310  0.41310  0.00000  0.17380
      10     H     0.40875  0.40875  0.00000  0.18249
      11     C     3.15511  3.15511  0.00000 -0.31021
      12     H     0.41823  0.41823  0.00000  0.16354
      13     H     0.42386  0.42386  0.00000  0.15229
      14     C     3.15028  3.15028  0.00000 -0.30056
      15     H     0.42263  0.42263  0.00000  0.15475
      16     H     0.42360  0.42360  0.00000  0.15280
      17     C     3.15145  3.15145  0.00000 -0.30291
      18     H     0.42333  0.42333  0.00000  0.15334
      19     H     0.42396  0.42396  0.00000  0.15208
      20     C     3.23935  3.23935  0.00000 -0.47870
      21     H     0.42281  0.42281  0.00000  0.15438
      22     H     0.42343  0.42343  0.00000  0.15313
      23     H     0.41923  0.41923  0.00000  0.16153
      24     H     0.42154  0.42154  0.00000  0.15691
      25     H     0.42183  0.42183  0.00000  0.15635
      26     C     3.09288  3.09288  0.00000 -0.18575
      27     H     0.40621  0.40621  0.00000  0.18759
      28     H     0.40856  0.40856  0.00000  0.18287
      29     H     0.41129  0.41129  0.00000  0.17741

   Total alpha = 44.00000, Total beta = 44.00000, Total charge =  0.00000
