  ==> Input File <==

--------------------------------------------------------------------------
set {
	reference rhf
	basis 6-31G*
}

set_num_threads( 4 )
memory 2 gb

molecule MOL {
0 1

H	 -1.804138	 -1.496277	 -1.238849
N	 -1.101932	 -0.783348	 -1.284868
C	 -0.563778	 -0.502042	 0.037919
H	 -1.542138	 0.032625	 -1.665871
C	 0.575259	 0.508231	 -0.048326
H	 -0.184502	 -1.434340	 0.445555
H	 -1.317577	 -0.137215	 0.740367
C	 1.954651	 -0.143624	 0.035137
H	 0.475158	 1.060484	 -0.977307
H	 0.469181	 1.234488	 0.755973
H	 2.103292	 -0.853109	 -0.774172
H	 2.742821	 0.599562	 -0.030094
H	 2.083613	 -0.679371	 0.971560

	symmetry c1
}
set optking {
	frozen_dihedral = ("
		6 3 5 9
	")
}

ee = optimize('scf')
oeprop('DIPOLE', 'QUADRUPOLE', 'MULLIKEN_CHARGES')
f=open( 'psi4out.xyz', 'w' )
f.write( "13  " )
f.write( str(ee) + "\n" )
f.write( MOL.save_string_xyz() )
f.close()
--------------------------------------------------------------------------

    Molecular point group: c1
  Charge       = 0
  Multiplicity = 1
  Basis Set: 6-31G*
  Basis Set:
  @DF-RHF Final Energy:  -173.27728710243059
    Total Energy =                       -173.2772871024305914
    Molecular point group: c1
  Basis Set: 6-31G*
  Basis Set:
  Basis Set: 6-31G*
  Basis Set:
  @DF-RHF Final Energy:  -173.27785149779277
    Total Energy =                       -173.2778514977927671
  Basis Set: 6-31G*
  Basis Set:
  Basis Set: 6-31G*
  Basis Set:
  @DF-RHF Final Energy:  -173.27798890115741
    Total Energy =                       -173.2779889011574141
  Basis Set: 6-31G*
  Basis Set:
  Basis Set: 6-31G*
  Basis Set:
  @DF-RHF Final Energy:  -173.27799098615412
    Total Energy =                       -173.2779909861540659
  Basis Set: 6-31G*
  Basis Set:
  Basis Set: 6-31G*
  Basis Set:
  @DF-RHF Final Energy:  -173.27799277968242
    Total Energy =                       -173.2779927796825064
  Basis Set: 6-31G*
  Basis Set:
  Charge       = 0
  Multiplicity = 1
  Basis Set: 6-31G*
  Basis Set:

    Orbital Energies (a.u.)
    -----------------------

    Doubly Occupied:

       1A    -15.533132     2A    -11.240346     3A    -11.211708
       4A    -11.203121     5A     -1.176038     6A     -1.029626
       7A     -0.897105     8A     -0.797752     9A     -0.657405
      10A     -0.636059    11A     -0.595725    12A     -0.560998
      13A     -0.529436    14A     -0.485481    15A     -0.475867
      16A     -0.468822    17A     -0.380266

  @DF-RHF Final Energy:  -173.27799309901172

   => Energetics <=

    Nuclear Repulsion Energy =            132.7036590967337588
    One-Electron Energy =                -496.2055277808465235
    Two-Electron Energy =                 190.2238755851009557
    DFT Exchange-Correlation Energy =       0.0000000000000000
    Empirical Dispersion Energy =           0.0000000000000000
    PCM Polarization Energy =               0.0000000000000000
    EFP Energy =                            0.0000000000000000
    Total Energy =                       -173.2779930990118089
    Molecular point group: c1
  Basis Set: 6-31G*
  Basis Set:

  -Total Gradient:
     Atom            X                  Y                   Z
    ------   -----------------  -----------------  -----------------
       1        0.000006214058     0.000004716614     0.000000738528
       2       -0.000008899832     0.000015343950     0.000011540665
       3       -0.000687597981     0.001060758127     0.004699938399
       4       -0.000001010893    -0.000004520425    -0.000005445193
       5       -0.002916600572     0.003425049253     0.001527309115
       6        0.001025632809    -0.001426628027    -0.004171981189
       7        0.000001602674     0.000002275501    -0.000005613540
       8        0.000004839251     0.000001281010    -0.000007637112
       9        0.002581783765    -0.003079013923    -0.002046048673
      10       -0.000008782652    -0.000000729705     0.000002171109
      11        0.000000635995    -0.000003477506    -0.000003143928
      12        0.000008183987    -0.000001430341     0.000002892258
      13       -0.000006000608     0.000006375472    -0.000004720438

  **** Optimization is complete! (in 6 steps) ****
    Final optimized geometry and variables:
    Molecular point group: c1

    Geometry (in Angstrom), charge = 0, multiplicity = 1:

    H           -1.926520133790    -1.294992663298    -0.942004336735
    N           -1.251521213817    -0.554821798808    -0.963884308746
    C           -0.777395112178    -0.246309369825     0.381612043167
    H           -1.707506532070     0.241300248834    -1.367651672438
    C            0.378417509909     0.765602600354     0.317754173723
    H           -0.416792309098    -1.183619808607     0.792388964899
    H           -1.568409902003     0.118489000618     1.037866372362
    C            1.751491592521     0.091576795643     0.336242148125
    H            0.298282935362     1.321614101550    -0.611952817186
    H            0.307052053208     1.477012974839     1.135243720884
    H            1.830463845395    -0.627722597566    -0.472603195321
    H            2.549563090464     0.818497839947     0.218683461918
    H            1.918788691326    -0.435215436795     1.271764319858

  Mulliken Charges: (a.u.)
   Center  Symbol    Alpha    Beta     Spin     Total
       1     H     0.33305  0.33305  0.00000  0.33391
       2     N     3.92202  3.92202  0.00000 -0.84405
       3     C     3.06671  3.06671  0.00000 -0.13342
       4     H     0.33533  0.33533  0.00000  0.32933
       5     C     3.15104  3.15104  0.00000 -0.30207
       6     H     0.41863  0.41863  0.00000  0.16274
       7     H     0.43096  0.43096  0.00000  0.13809
       8     C     3.24250  3.24250  0.00000 -0.48501
       9     H     0.41886  0.41886  0.00000  0.16228
      10     H     0.42298  0.42298  0.00000  0.15404
      11     H     0.41203  0.41203  0.00000  0.17593
      12     H     0.42159  0.42159  0.00000  0.15682
      13     H     0.42430  0.42430  0.00000  0.15140

   Total alpha = 17.00000, Total beta = 17.00000, Total charge = -0.00000
