  ==> Input File <==

--------------------------------------------------------------------------
set {
	reference rhf
	basis 6-31G*
}

set_num_threads( 1 )
memory 2 gb

molecule MOL {
0 1

H	 -3.301617	 0.570527	 0.000000
C	 -2.250981	 0.344174	 0.000000
C	 -1.813665	 -0.976045	 0.000000
C	 -1.315303	 1.358057	 0.000000
H	 -2.528860	 -1.779366	 0.000000
C	 -0.467298	 -1.270142	 0.000000
H	 -1.635074	 2.385107	 0.000000
C	 0.047081	 1.078114	 0.000000
H	 -0.115948	 -2.285222	 0.000000
C	 0.472063	 -0.241155	 0.000000
H	 0.749976	 1.888426	 0.000000
O	 1.765256	 -0.628444	 0.000000
C	 2.128619	 -1.834562	 0.606893
H	 1.894604	 -1.832515	 1.666405
H	 3.197009	 -1.926376	 0.480708
H	 1.640710	 -2.680289	 0.133581

	symmetry c1
}
set optking {
	frozen_dihedral = ("
		10 12 13 14
	")
}

ee = energy('scf')
oeprop('DIPOLE', 'QUADRUPOLE', 'MULLIKEN_CHARGES')
f=open( 'psi4out.xyz', 'w' )
f.write( "16  " )
f.write( str(ee) + "\n" )
f.write( MOL.save_string_xyz() )
f.close()
--------------------------------------------------------------------------

    Molecular point group: c1

    Geometry (in Angstrom), charge = 0, multiplicity = 1:

       Center              X                  Y                   Z               Mass
    ------------   -----------------  -----------------  -----------------  -----------------
           H         -3.206679917158     0.887530510205    -0.088668118221     1.007825032070
           C         -2.156043917158     0.661177510205    -0.088668118221    12.000000000000
           C         -1.718727917158    -0.659041489795    -0.088668118221    12.000000000000
           C         -1.220365917158     1.675060510205    -0.088668118221    12.000000000000
           H         -2.433922917158    -1.462362489795    -0.088668118221     1.007825032070
           C         -0.372360917158    -0.953138489795    -0.088668118221    12.000000000000
           H         -1.540136917158     2.702110510205    -0.088668118221     1.007825032070
           C          0.142018082842     1.395117510205    -0.088668118221    12.000000000000
           H         -0.021010917158    -1.968218489795    -0.088668118221     1.007825032070
           C          0.567000082842     0.075848510205    -0.088668118221    12.000000000000
           H          0.844913082842     2.205429510205    -0.088668118221     1.007825032070
           O          1.860193082842    -0.311440489795    -0.088668118221    15.994914619560
           C          2.223556082842    -1.517558489795     0.518224881779    12.000000000000
           H          1.989541082842    -1.515511489795     1.577736881779     1.007825032070
           H          3.291946082842    -1.609372489795     0.392039881779     1.007825032070
           H          1.735647082842    -2.363285489795     0.044912881779     1.007825032070

  Charge       = 0
  Multiplicity = 1
  Basis Set: 6-31G*
  Basis Set:

    Orbital Energies (a.u.)
    -----------------------

    Doubly Occupied:

       1A    -20.579674     2A    -11.293202     3A    -11.279862
       4A    -11.233017     5A    -11.232465     6A    -11.224108
       7A    -11.220795     8A    -11.219919     9A     -1.412042
      10A     -1.145917    11A     -1.019997    12A     -1.013286
      13A     -0.942963    14A     -0.834221    15A     -0.803921
      16A     -0.722876    17A     -0.669154    18A     -0.658434
      19A     -0.651184    20A     -0.617796    21A     -0.593913
      22A     -0.573857    23A     -0.527389    24A     -0.519938
      25A     -0.508906    26A     -0.474333    27A     -0.450701
      28A     -0.334891    29A     -0.307955

  @DF-RHF Final Energy:  -344.57294204520650

   => Energetics <=

    Nuclear Repulsion Energy =            349.0915979769889077
    One-Electron Energy =               -1159.1955302142846449
    Two-Electron Energy =                 465.5309901920898028
    DFT Exchange-Correlation Energy =       0.0000000000000000
    Empirical Dispersion Energy =           0.0000000000000000
    PCM Polarization Energy =               0.0000000000000000
    EFP Energy =                            0.0000000000000000
    Total Energy =                       -344.5729420452059912

  Mulliken Charges: (a.u.)
   Center  Symbol    Alpha    Beta     Spin     Total
       1     H     0.40090  0.40090  0.00000  0.19821
       2     C     3.11093  3.11093  0.00000 -0.22186
       3     C     3.09248  3.09248  0.00000 -0.18496
       4     C     3.09267  3.09267  0.00000 -0.18535
       5     H     0.39992  0.39992  0.00000  0.20015
       6     C     3.14442  3.14442  0.00000 -0.28883
       7     H     0.39839  0.39839  0.00000  0.20322
       8     C     3.12750  3.12750  0.00000 -0.25501
       9     H     0.39695  0.39695  0.00000  0.20610
      10     C     2.77631  2.77631  0.00000  0.44737
      11     H     0.39392  0.39392  0.00000  0.21215
      12     O     4.33146  4.33146  0.00000 -0.66292
      13     C     3.08859  3.08859  0.00000 -0.17717
      14     H     0.41772  0.41772  0.00000  0.16456
      15     H     0.40540  0.40540  0.00000  0.18920
      16     H     0.42243  0.42243  0.00000  0.15514

   Total alpha = 29.00000, Total beta = 29.00000, Total charge =  0.00000
