  ==> Input File <==

--------------------------------------------------------------------------
set {
	reference rhf
	basis 6-31G*
}

set_num_threads( 4 )
memory 2 gb

molecule MOL {
0 1

H	 1.538666	 -1.550036	 -0.292371
O	 1.654024	 -0.625927	 -0.460906
C	 1.135793	 0.118896	 0.612333
C	 0.031547	 1.023609	 0.088541
H	 1.915668	 0.729681	 1.063582
H	 0.754543	 -0.542641	 1.387006
C	 -1.134819	 0.293262	 -0.585751
H	 0.474374	 1.714721	 -0.623187
H	 -0.338529	 1.620940	 0.920081
C	 -1.917817	 -0.639439	 0.339494
H	 -0.758119	 -0.268455	 -1.433105
H	 -1.813832	 1.041889	 -0.986690
H	 -2.777680	 -1.057197	 -0.174994
H	 -1.310268	 -1.471279	 0.680599
H	 -2.283753	 -0.111424	 1.216626

	symmetry c1
}
set optking {
	frozen_dihedral = ("
		1 2 3 4
	")
}

ee = optimize('scf')
oeprop('DIPOLE', 'QUADRUPOLE', 'MULLIKEN_CHARGES')
f=open( 'psi4out.xyz', 'w' )
f.write( "15  " )
f.write( str(ee) + "\n" )
f.write( MOL.save_string_xyz() )
f.close()
--------------------------------------------------------------------------

    Molecular point group: c1
  Charge       = 0
  Multiplicity = 1
  Basis Set: 6-31G*
  Basis Set:
  @DF-RHF Final Energy:  -232.14147771583509
    Total Energy =                       -232.1414777158350375
    Molecular point group: c1
  Basis Set: 6-31G*
  Basis Set:
  Basis Set: 6-31G*
  Basis Set:
  @DF-RHF Final Energy:  -232.14186328913135
    Total Energy =                       -232.1418632891312654
  Basis Set: 6-31G*
  Basis Set:
  Basis Set: 6-31G*
  Basis Set:
  @DF-RHF Final Energy:  -232.14198786016976
    Total Energy =                       -232.1419878601695928
  Basis Set: 6-31G*
  Basis Set:
  Basis Set: 6-31G*
  Basis Set:
  @DF-RHF Final Energy:  -232.14198985576036
    Total Energy =                       -232.1419898557603574
  Basis Set: 6-31G*
  Basis Set:
  Basis Set: 6-31G*
  Basis Set:
  @DF-RHF Final Energy:  -232.14199935022529
    Total Energy =                       -232.1419993502255466
  Basis Set: 6-31G*
  Basis Set:
  Charge       = 0
  Multiplicity = 1
  Basis Set: 6-31G*
  Basis Set:

    Orbital Energies (a.u.)
    -----------------------

    Doubly Occupied:

       1A    -20.552211     2A    -11.267805     3A    -11.213412
       4A    -11.212121     5A    -11.211135     6A     -1.358231
       7A     -1.066234     8A     -0.973062     9A     -0.873098
      10A     -0.778547    11A     -0.703670    12A     -0.645426
      13A     -0.609581    14A     -0.580541    15A     -0.562872
      16A     -0.539272    17A     -0.505391    18A     -0.484420
      19A     -0.470722    20A     -0.456038    21A     -0.425770

  @DF-RHF Final Energy:  -232.14200001332952

   => Energetics <=

    Nuclear Repulsion Energy =            191.4118403777859783
    One-Electron Energy =                -694.1285614815241161
    Two-Electron Energy =                 270.5747210904086160
    DFT Exchange-Correlation Energy =       0.0000000000000000
    Empirical Dispersion Energy =           0.0000000000000000
    PCM Polarization Energy =               0.0000000000000000
    EFP Energy =                            0.0000000000000000
    Total Energy =                       -232.1420000133294934
    Molecular point group: c1
  Basis Set: 6-31G*
  Basis Set:

  -Total Gradient:
     Atom            X                  Y                   Z
    ------   -----------------  -----------------  -----------------
       1       -0.000046876636     0.000003111403    -0.000019210432
       2        0.000043391928     0.000014884874     0.000037855613
       3        0.000019707943     0.000011688808    -0.000011145681
       4       -0.000029913329    -0.000044269846    -0.000000930292
       5       -0.000007683507     0.000002597711     0.000010015672
       6       -0.000002483839    -0.000016485919    -0.000003894393
       7        0.000006327505    -0.000002124894     0.000022763691
       8        0.000007408646    -0.000021782657    -0.000019985868
       9        0.000005981421     0.000024401419    -0.000017053152
      10        0.000018394784    -0.000014113621    -0.000000776782
      11       -0.000015573856     0.000022847654    -0.000025327028
      12       -0.000002795690     0.000017469772     0.000029604054
      13        0.000012892692    -0.000014042428    -0.000009548210
      14        0.000004645778     0.000008320001     0.000022949863
      15       -0.000013423847     0.000007497725    -0.000015317055

  **** Optimization is complete! (in 6 steps) ****
    Final optimized geometry and variables:
    Molecular point group: c1

    Geometry (in Angstrom), charge = 0, multiplicity = 1:

    H            1.641463108234    -1.527895756407    -0.337829486256
    O            1.731791381806    -0.596879628405    -0.467732746463
    C            1.142571975944     0.107775796020     0.601276952654
    C            0.026001842556     1.013570878273     0.098203441577
    H            1.910152635910     0.711311996796     1.075208165195
    H            0.770748718308    -0.580240082870     1.354943399113
    C           -1.139226209182     0.284773730178    -0.578185019458
    H            0.461358545737     1.713568329390    -0.609495582648
    H           -0.342321330435     1.603020755439     0.936823616772
    C           -1.950306758476    -0.618719834605     0.353028586093
    H           -0.755229397123    -0.296002110580    -1.410798714330
    H           -1.805074688104     1.029419090357    -1.006625963414
    H           -2.795145731272    -1.053666360238    -0.171881540683
    H           -1.357923790567    -1.440426295010     0.744477735213
    H           -2.340282532585    -0.061620410060     1.200742340103

  Mulliken Charges: (a.u.)
   Center  Symbol    Alpha    Beta     Spin     Total
       1     H     0.27928  0.27928  0.00000  0.44144
       2     O     4.37216  4.37216  0.00000 -0.74431
       3     C     3.00111  3.00111  0.00000 -0.00222
       4     C     3.15818  3.15818  0.00000 -0.31636
       5     H     0.42018  0.42018  0.00000  0.15964
       6     H     0.43021  0.43021  0.00000  0.13958
       7     C     3.15753  3.15753  0.00000 -0.31505
       8     H     0.41382  0.41382  0.00000  0.17235
       9     H     0.42631  0.42631  0.00000  0.14739
      10     C     3.24188  3.24188  0.00000 -0.48377
      11     H     0.41279  0.41279  0.00000  0.17441
      12     H     0.42028  0.42028  0.00000  0.15943
      13     H     0.41781  0.41781  0.00000  0.16438
      14     H     0.42646  0.42646  0.00000  0.14707
      15     H     0.42199  0.42199  0.00000  0.15602

   Total alpha = 21.00000, Total beta = 21.00000, Total charge = -0.00000
