  ==> Input File <==

--------------------------------------------------------------------------
set {
	reference rhf
	basis 6-31G*
}

set_num_threads( 4 )
memory 2 gb

molecule MOL {
0 1

H	 -1.397324	 2.058777	 2.773782
O	 -1.125422	 1.423180	 2.127427
C	 -0.375545	 2.060199	 1.123904
C	 0.031547	 1.023609	 0.088541
H	 0.518615	 2.514330	 1.547144
H	 -0.954901	 2.856579	 0.662138
C	 -1.134819	 0.293262	 -0.585751
H	 0.669495	 0.293489	 0.578680
H	 0.640927	 1.519972	 -0.664785
C	 -1.917817	 -0.639439	 0.339494
H	 -0.758119	 -0.268455	 -1.433105
H	 -1.813832	 1.041889	 -0.986690
H	 -2.777680	 -1.057197	 -0.174994
H	 -1.310268	 -1.471279	 0.680599
H	 -2.283753	 -0.111424	 1.216626

	symmetry c1
}
set optking {
	frozen_dihedral = ("
		8 4 7 11
	")
}

ee = optimize('scf')
oeprop('DIPOLE', 'QUADRUPOLE', 'MULLIKEN_CHARGES')
f=open( 'psi4out.xyz', 'w' )
f.write( "15  " )
f.write( str(ee) + "\n" )
f.write( MOL.save_string_xyz() )
f.close()
--------------------------------------------------------------------------

    Molecular point group: c1
  Charge       = 0
  Multiplicity = 1
  Basis Set: 6-31G*
  Basis Set:
  @DF-RHF Final Energy:  -232.13903539530889
    Total Energy =                       -232.1390353953091221
    Molecular point group: c1
  Basis Set: 6-31G*
  Basis Set:
  Basis Set: 6-31G*
  Basis Set:
  @DF-RHF Final Energy:  -232.14200322390093
    Total Energy =                       -232.1420032239010425
  Basis Set: 6-31G*
  Basis Set:
  Basis Set: 6-31G*
  Basis Set:
  @DF-RHF Final Energy:  -232.14239046264407
    Total Energy =                       -232.1423904626442436
  Basis Set: 6-31G*
  Basis Set:
  Basis Set: 6-31G*
  Basis Set:
  @DF-RHF Final Energy:  -232.14244572434671
    Total Energy =                       -232.1424457243469988
  Basis Set: 6-31G*
  Basis Set:
  Basis Set: 6-31G*
  Basis Set:
  @DF-RHF Final Energy:  -232.14245889244444
    Total Energy =                       -232.1424588924446653
  Basis Set: 6-31G*
  Basis Set:
  Charge       = 0
  Multiplicity = 1
  Basis Set: 6-31G*
  Basis Set:

    Orbital Energies (a.u.)
    -----------------------

    Doubly Occupied:

       1A    -20.554168     2A    -11.269045     3A    -11.213446
       4A    -11.211390     5A    -11.194361     6A     -1.360860
       7A     -1.061855     8A     -0.970005     9A     -0.861523
      10A     -0.778405    11A     -0.703829    12A     -0.646150
      13A     -0.603292    14A     -0.577850    15A     -0.549348
      16A     -0.537707    17A     -0.507761    18A     -0.469317
      19A     -0.467331    20A     -0.451624    21A     -0.427554

  @DF-RHF Final Energy:  -232.14245974962475

   => Energetics <=

    Nuclear Repulsion Energy =            192.2787278542081424
    One-Electron Energy =                -696.0087316474989620
    Two-Electron Energy =                 271.5875440436662416
    DFT Exchange-Correlation Energy =       0.0000000000000000
    Empirical Dispersion Energy =           0.0000000000000000
    PCM Polarization Energy =               0.0000000000000000
    EFP Energy =                            0.0000000000000000
    Total Energy =                       -232.1424597496246065
    Molecular point group: c1
  Basis Set: 6-31G*
  Basis Set:

  -Total Gradient:
     Atom            X                  Y                   Z
    ------   -----------------  -----------------  -----------------
       1        0.000005092597     0.000001200623    -0.000008723717
       2       -0.000049241289    -0.000046054317     0.000006899364
       3        0.000024640999     0.000045687673     0.000067887019
       4       -0.000098844947    -0.000036908335     0.000171823654
       5        0.000029049621     0.000007984377    -0.000063503270
       6       -0.000009054448    -0.000003930919    -0.000007519901
       7       -0.000006048379     0.000139290034    -0.000179853532
       8        0.000083195313    -0.000012110787    -0.000127422228
       9       -0.000013217203     0.000004239440     0.000014640867
      10       -0.000012485226    -0.000001171331     0.000013786587
      11        0.000031440582    -0.000114301707     0.000108344420
      12       -0.000003876048     0.000002297229     0.000012366256
      13        0.000010788270     0.000015144582     0.000015581930
      14       -0.000000654865     0.000011727562    -0.000000179000
      15        0.000009215024    -0.000013094125    -0.000024128448

  **** Optimization is complete! (in 6 steps) ****
    Final optimized geometry and variables:
    Molecular point group: c1

    Geometry (in Angstrom), charge = 0, multiplicity = 1:

    H           -0.295272310435     1.300068953714     2.191948041244
    O           -0.055371784015     0.625774890711     1.572340857976
    C            0.521866936065     1.216776287676     0.435233125884
    C            0.911478814789     0.141158656332    -0.567480540611
    H            1.411076736017     1.777849009114     0.717345982354
    H           -0.173131685786     1.917472560691    -0.026301655900
    C           -0.248087072709    -0.561270853260    -1.286080013912
    H            1.535151786521    -0.591018594280    -0.061049373273
    H            1.538955232586     0.619563049302    -1.316872290658
    C           -1.066547202432    -1.527094956211    -0.427330604667
    H            0.167484558706    -1.112972457383    -2.126133426691
    H           -0.906522418974     0.190882321252    -1.717221969629
    H           -1.816277666367    -2.028308546874    -1.033113055689
    H           -0.429086059771    -2.290877308435     0.008955993045
    H           -1.567064981973    -1.017045435986     0.384185330732

  Mulliken Charges: (a.u.)
   Center  Symbol    Alpha    Beta     Spin     Total
       1     H     0.28080  0.28080  0.00000  0.43840
       2     O     4.36826  4.36826  0.00000 -0.73653
       3     C     2.99578  2.99578  0.00000  0.00845
       4     C     3.16133  3.16133  0.00000 -0.32266
       5     H     0.42986  0.42986  0.00000  0.14028
       6     H     0.43271  0.43271  0.00000  0.13459
       7     C     3.15331  3.15331  0.00000 -0.30662
       8     H     0.41430  0.41430  0.00000  0.17139
       9     H     0.42260  0.42260  0.00000  0.15480
      10     C     3.23672  3.23672  0.00000 -0.47344
      11     H     0.42223  0.42223  0.00000  0.15553
      12     H     0.42592  0.42592  0.00000  0.14816
      13     H     0.42638  0.42638  0.00000  0.14724
      14     H     0.42335  0.42335  0.00000  0.15329
      15     H     0.40645  0.40645  0.00000  0.18710

   Total alpha = 21.00000, Total beta = 21.00000, Total charge =  0.00000
