                              Psi4 1.0.54 Driver

  ==> Input File <==

--------------------------------------------------------------------------
set {
	reference rhf
	basis cc-pvtz
}

set_num_threads( 4 )
memory 2 gb

molecule MOL {
0 1

H	 2.828711	 -0.346904	 0.001083
C	 1.876752	 0.015931	 -0.363450
C	 0.776285	 -0.474665	 0.563092
H	 1.728113	 -0.357244	 -1.367440
H	 1.906171	 1.096574	 -0.386153
N	 -0.540022	 0.017605	 0.071630
H	 0.707111	 -1.548969	 0.573035
H	 0.886169	 -0.084184	 1.560432
O	 -1.474474	 -0.128070	 0.785614
O	 -0.569065	 0.495995	 -1.012204

	symmetry c1
}
set optking {
	frozen_dihedral = ("
		9 6 3 2
	")
}

ee,wfn = optimize('scf', return_wfn=True)
oeprop( wfn, 'DIPOLE', 'QUADRUPOLE', 'MULLIKEN_CHARGES')
f=open( 'psi4out.xyz', 'w' )
f.write( "10  " )
f.write( str(ee) + "\n" )
f.write( MOL.save_string_xyz() )
f.close()
--------------------------------------------------------------------------

    Molecular point group: c1
  Charge       = 0
  Multiplicity = 1
  Basis Set: CC-PVTZ
  Basis Set:
  @DF-RHF Final Energy:  -282.81112833926034
    Total Energy =                       -282.8111283392602218
    Molecular point group: c1
  Basis Set: CC-PVTZ
  Basis Set:
  Basis Set: CC-PVTZ
  Basis Set:
  @DF-RHF Final Energy:  -282.51515853966544
    Total Energy =                       -282.5151585396653786
  Basis Set: CC-PVTZ
  Basis Set:
  Basis Set: CC-PVTZ
  Basis Set:
  @DF-RHF Final Energy:  -282.67603313567304
    Total Energy =                       -282.6760331356729807
  Basis Set: CC-PVTZ
  Basis Set:
  Basis Set: CC-PVTZ
  Basis Set:
  @DF-RHF Final Energy:  -282.79081297860677
    Total Energy =                       -282.7908129786067661
  Basis Set: CC-PVTZ
  Basis Set:
  @DF-RHF Final Energy:  -282.60331073329792
    Total Energy =                       -282.6033107332978034
  @DF-RHF Final Energy:  -282.78066019384215
    Total Energy =                       -282.7806601938420954
  @DF-RHF Final Energy:  -282.80866830151251
    Total Energy =                       -282.8086683015126255
  @DF-RHF Final Energy:  -282.81204765356119
    Total Energy =                       -282.8120476535611942
  @DF-RHF Final Energy:  -282.57184727818651
    Total Energy =                       -282.5718472781863966
  @DF-RHF Final Energy:  -282.76327427130866
    Total Energy =                       -282.7632742713087737
  @DF-RHF Final Energy:  -282.79663394418333
    Total Energy =                       -282.7966339441833270
  @DF-RHF Final Energy:  -282.81083129725346
    Total Energy =                       -282.8108312972535714
  @DF-RHF Final Energy:  -282.81012282174328
    Total Energy =                       -282.8101228217433345
  @DF-RHF Final Energy:  -282.81268905065212
    Total Energy =                       -282.8126890506521249
  Basis Set: CC-PVTZ
  Basis Set:
  @DF-RHF Final Energy:  -282.81284831505297
    Total Energy =                       -282.8128483150530315
  Basis Set: CC-PVTZ
  Basis Set:
  Basis Set: CC-PVTZ
  Basis Set:
  @DF-RHF Final Energy:  -282.81288533294719
    Total Energy =                       -282.8128853329471326
  Basis Set: CC-PVTZ
  Basis Set:
  Basis Set: CC-PVTZ
  Basis Set:
  @DF-RHF Final Energy:  -282.81288892630613
    Total Energy =                       -282.8128889263060728
  Basis Set: CC-PVTZ
  Basis Set:
  Charge       = 0
  Multiplicity = 1
  Basis Set: CC-PVTZ
  Basis Set:

    Orbital Energies (a.u.)
    -----------------------

    Doubly Occupied:

       1A    -20.594941     2A    -20.588861     3A    -15.839659
       4A    -11.303256     5A    -11.243595     6A     -1.638664
       7A     -1.422946     8A     -1.123954     9A     -0.966930
      10A     -0.834891    11A     -0.762726    12A     -0.753605
      13A     -0.732233    14A     -0.638596    15A     -0.594978
      16A     -0.564106    17A     -0.538753    18A     -0.490394
      19A     -0.479937    20A     -0.455233

  @DF-RHF Final Energy:  -282.81288923728755

   => Energetics <=

    Nuclear Repulsion Energy =            186.5809625133700820
    One-Electron Energy =                -755.6511950194976635
    Two-Electron Energy =                 286.2573432688400317
    DFT Exchange-Correlation Energy =       0.0000000000000000
    Empirical Dispersion Energy =           0.0000000000000000
    PCM Polarization Energy =               0.0000000000000000
    EFP Energy =                            0.0000000000000000
    Total Energy =                       -282.8128892372875498
    Molecular point group: c1
  Basis Set: CC-PVTZ
  Basis Set:

  -Total Gradient:
     Atom            X                  Y                   Z
    ------   -----------------  -----------------  -----------------
       1       -0.000001515037    -0.000013940444     0.000022842205
       2        0.000043646560    -0.000026348545    -0.000018863606
       3       -0.000048395526     0.000002092416     0.000050115803
       4       -0.000004373772     0.000003316404     0.000003644971
       5        0.000010134732    -0.000009989435    -0.000002140985
       6       -0.000072864143     0.000047628179     0.000033089440
       7       -0.000006815781     0.000008448050     0.000010335807
       8        0.000005990742    -0.000000149249    -0.000002976279
       9        0.000034978086    -0.000041812455    -0.000061809085
      10        0.000039214137     0.000030755079    -0.000034238270

  **** Optimization is complete! (in 18 steps) ****
    Final optimized geometry and variables:
    Molecular point group: c1

    Geometry (in Angstrom), charge = 0, multiplicity = 1:

    H           -0.550905192742     1.125576718995    -2.593076169551
    C           -0.801988348805     0.558668187058    -1.704869372988
    C            0.399690280388     0.561854845036    -0.789039416646
    H           -1.073059048298    -0.443983082958    -1.998764291236
    H           -1.657516211498     1.020619748668    -1.233015263143
    N            0.178515972281    -0.177572621038     0.491337932528
    H            1.258534322412     0.077375561548    -1.230040694838
    H            0.696482578813     1.552229601293    -0.483763159692
    O            1.020230890385    -0.048642302815     1.315993560534
    O           -0.791117593539    -0.846492451361     0.599884992454

  Mulliken Charges: (a.u.)
   Center  Symbol    Alpha    Beta     Spin     Total
       1     H     0.44933  0.44933  0.00000  0.10134
       2     C     3.13844  3.13844  0.00000 -0.27687
       3     C     3.04368  3.04368  0.00000 -0.08736
       4     H     0.44015  0.44015  0.00000  0.11970
       5     H     0.44308  0.44308  0.00000  0.11385
       6     N     3.27615  3.27615  0.00000  0.44770
       7     H     0.43415  0.43415  0.00000  0.13169
       8     H     0.43217  0.43217  0.00000  0.13565
       9     O     4.17345  4.17345  0.00000 -0.34690
      10     O     4.16940  4.16940  0.00000 -0.33881

   Total alpha = 20.00000, Total beta = 20.00000, Total charge = -0.00000

*** Psi4 exiting successfully. Buy a developer a beer!
