                              Psi4 1.0.54 Driver

  ==> Input File <==

--------------------------------------------------------------------------
set {
	reference rhf
	basis cc-pvtz
}

set_num_threads( 4 )
memory 2 gb

molecule MOL {
0 1

H	 0.388156	 -3.094444	 1.803373
O	 0.818361	 -2.454814	 1.256113
C	 0.010928	 -1.406402	 1.120778
C	 0.626018	 -0.337582	 0.258241
O	 -1.053172	 -1.362748	 1.634224
C	 -0.267326	 0.883135	 0.076490
H	 1.578243	 -0.083084	 0.708083
H	 0.861992	 -0.796912	 -0.696623
C	 -1.726822	 0.642622	 0.463839
H	 -0.210803	 1.217591	 -0.953497
H	 0.129920	 1.693110	 0.675679
C	 -2.480891	 -0.340606	 -0.429852
H	 -2.243098	 1.597649	 0.438609
H	 -1.776542	 0.301208	 1.495542
C	 -3.955933	 -0.460128	 -0.060472
H	 -2.393755	 -0.020485	 -1.464726
H	 -2.024244	 -1.323637	 -0.374360
H	 -4.467673	 -1.160944	 -0.709827
H	 -4.458917	 0.497287	 -0.144505
H	 -4.076458	 -0.806900	 0.960497

	symmetry c1
}
set optking {
	frozen_dihedral = ("
		7 4 6 10
	")
}

ee,wfn = optimize('scf', return_wfn=True)
oeprop( wfn, 'DIPOLE', 'QUADRUPOLE', 'MULLIKEN_CHARGES')
f=open( 'psi4out.xyz', 'w' )
f.write( "20  " )
f.write( str(ee) + "\n" )
f.write( MOL.save_string_xyz() )
f.close()
--------------------------------------------------------------------------

    Molecular point group: c1
  Charge       = 0
  Multiplicity = 1
  Basis Set: CC-PVTZ
  Basis Set:
  @DF-RHF Final Energy:  -384.05948635365479
    Total Energy =                       -384.0594863536548473
    Molecular point group: c1
  Basis Set: CC-PVTZ
  Basis Set:
  Basis Set: CC-PVTZ
  Basis Set:
  @DF-RHF Final Energy:  -384.07269014060262
    Total Energy =                       -384.0726901406022762
  Basis Set: CC-PVTZ
  Basis Set:
  Basis Set: CC-PVTZ
  Basis Set:
  @DF-RHF Final Energy:  -384.08006494773485
    Total Energy =                       -384.0800649477353090
  Basis Set: CC-PVTZ
  Basis Set:
  Basis Set: CC-PVTZ
  Basis Set:
  @DF-RHF Final Energy:  -384.08013170888324
    Total Energy =                       -384.0801317088833002
  Basis Set: CC-PVTZ
  Basis Set:
  @DF-RHF Final Energy:  -384.08297828133726
    Total Energy =                       -384.0829782813369775
  @DF-RHF Final Energy:  -384.08367689693051
    Total Energy =                       -384.0836768969302284
  @DF-RHF Final Energy:  -384.08403844625093
    Total Energy =                       -384.0840384462513839
  @DF-RHF Final Energy:  -384.08442035356967
    Total Energy =                       -384.0844203535692714
  @DF-RHF Final Energy:  -384.08502003520238
    Total Energy =                       -384.0850200352019783
  @DF-RHF Final Energy:  -384.08553330921893
    Total Energy =                       -384.0855333092184765
  @DF-RHF Final Energy:  -384.08599760398727
    Total Energy =                       -384.0859976039871526
  @DF-RHF Final Energy:  -384.08639159458920
    Total Energy =                       -384.0863915945892586
  @DF-RHF Final Energy:  -384.08643065566173
    Total Energy =                       -384.0864306556622978
  @DF-RHF Final Energy:  -384.08649207474559
    Total Energy =                       -384.0864920747454789
  @DF-RHF Final Energy:  -384.08651182311189
    Total Energy =                       -384.0865118231124598
  Basis Set: CC-PVTZ
  Basis Set:
  @DF-RHF Final Energy:  -384.08652264498897
    Total Energy =                       -384.0865226449890315
  Basis Set: CC-PVTZ
  Basis Set:
  Basis Set: CC-PVTZ
  Basis Set:
  @DF-RHF Final Energy:  -384.08653019949031
    Total Energy =                       -384.0865301994901984
  Basis Set: CC-PVTZ
  Basis Set:
  Basis Set: CC-PVTZ
  Basis Set:
  @DF-RHF Final Energy:  -384.08653226259997
    Total Energy =                       -384.0865322626000307
  Basis Set: CC-PVTZ
  Basis Set:
  Charge       = 0
  Multiplicity = 1
  Basis Set: CC-PVTZ
  Basis Set:

    Orbital Energies (a.u.)
    -----------------------

    Doubly Occupied:

       1A    -20.606470     2A    -20.538011     3A    -11.374320
       4A    -11.239372     5A    -11.228043     6A    -11.215213
       7A    -11.211484     8A    -11.206760     9A     -1.478629
      10A     -1.368523    11A     -1.093465    12A     -1.037936
      13A     -0.960390    14A     -0.873000    15A     -0.816378
      16A     -0.779030    17A     -0.706845    18A     -0.682858
      19A     -0.662231    20A     -0.636315    21A     -0.609908
      22A     -0.591756    23A     -0.576277    24A     -0.557521
      25A     -0.537936    26A     -0.512970    27A     -0.499221
      28A     -0.483658    29A     -0.470852    30A     -0.464137
      31A     -0.455203    32A     -0.437118

  @DF-RHF Final Energy:  -384.08653228487071

   => Energetics <=

    Nuclear Repulsion Energy =            394.1259781504638795
    One-Electron Energy =               -1304.6013536503573960
    Two-Electron Energy =                 526.3888432150226890
    DFT Exchange-Correlation Energy =       0.0000000000000000
    Empirical Dispersion Energy =           0.0000000000000000
    PCM Polarization Energy =               0.0000000000000000
    EFP Energy =                            0.0000000000000000
    Total Energy =                       -384.0865322848708274
    Molecular point group: c1
  Basis Set: CC-PVTZ
  Basis Set:

  -Total Gradient:
     Atom            X                  Y                   Z
    ------   -----------------  -----------------  -----------------
       1        0.000000241411    -0.000008129849     0.000008642879
       2       -0.000011743027     0.000044540506     0.000016628022
       3       -0.000078344681    -0.000066684573    -0.000059227924
       4        0.002000872393    -0.000487122003    -0.007411472692
       5        0.000009292236    -0.000022756610    -0.000022529242
       6        0.006105405288     0.003720581038     0.002799805458
       7       -0.002519576644    -0.000066049879     0.005851092891
       8        0.000003560855    -0.000012271854     0.000008918111
       9        0.000007317392    -0.000014067037     0.000017645884
      10       -0.005511682684    -0.003106898612    -0.001266536404
      11       -0.000043626868     0.000026116700     0.000053702606
      12        0.000029387960    -0.000017816603     0.000021162456
      13        0.000002372287     0.000012049943     0.000003468032
      14        0.000002917975     0.000009155529    -0.000014334250
      15        0.000011814383    -0.000006543296     0.000009681921
      16       -0.000001873648    -0.000005276651    -0.000002819092
      17       -0.000015589656     0.000004885850    -0.000007643361
      18       -0.000000574632    -0.000000880771    -0.000002044678
      19        0.000006024289    -0.000003256595     0.000000483955
      20        0.000003805373     0.000000424762    -0.000004624569

  **** Optimization is complete! (in 19 steps) ****
    Final optimized geometry and variables:
    Molecular point group: c1

    Geometry (in Angstrom), charge = 0, multiplicity = 1:

    H            0.484193693747    -2.658277621751     1.086888564443
    O            0.847151228601    -2.161706126044     0.368351472233
    C            0.970080069435    -0.896344970363     0.756233034769
    C            1.616702323522    -0.024139368664    -0.291005285659
    O            0.642908318829    -0.539777294643     1.836442552209
    C            0.928147299194     1.337250029731    -0.556654223093
    H            2.597143377784     0.159945194670     0.136113862463
    H            1.739291194761    -0.596252214233    -1.196723698197
    C           -0.574923143505     1.433205814356    -0.273053433039
    H            1.050407459560     1.545878533360    -1.614161763842
    H            1.438239125925     2.112903401866    -0.002581603705
    C           -1.437661490561     0.519242074795    -1.142018022803
    H           -0.871146564465     2.462280690684    -0.456576461170
    H           -0.771957910317     1.239859146799     0.773012467477
    C           -2.928460110170     0.674838476834    -0.859862677213
    H           -1.245025725284     0.734843346204    -2.190080732416
    H           -1.158207849382    -0.519262474826    -0.992389363321
    H           -3.518507716371     0.022148857134    -1.492968724099
    H           -3.255510047547     1.693715677525    -1.038525727303
    H           -3.156737757271     0.431713423844     0.172162384031

  Mulliken Charges: (a.u.)
   Center  Symbol    Alpha    Beta     Spin     Total
       1     H     0.38042  0.38042  0.00000  0.23917
       2     O     4.16320  4.16320  0.00000 -0.32641
       3     C     2.79368  2.79368  0.00000  0.41265
       4     C     3.11638  3.11638  0.00000 -0.23276
       5     O     4.20037  4.20037  0.00000 -0.40074
       6     C     3.09623  3.09623  0.00000 -0.19246
       7     H     0.43429  0.43429  0.00000  0.13142
       8     H     0.43198  0.43198  0.00000  0.13604
       9     C     3.11134  3.11134  0.00000 -0.22268
      10     H     0.44912  0.44912  0.00000  0.10177
      11     H     0.44040  0.44040  0.00000  0.11921
      12     C     3.08571  3.08571  0.00000 -0.17141
      13     H     0.44554  0.44554  0.00000  0.10891
      14     H     0.43715  0.43715  0.00000  0.12570
      15     C     3.15119  3.15119  0.00000 -0.30238
      16     H     0.45368  0.45368  0.00000  0.09264
      17     H     0.45395  0.45395  0.00000  0.09209
      18     H     0.44858  0.44858  0.00000  0.10284
      19     H     0.45470  0.45470  0.00000  0.09060
      20     H     0.45209  0.45209  0.00000  0.09581

   Total alpha = 32.00000, Total beta = 32.00000, Total charge =  0.00000

*** Psi4 exiting successfully. Buy a developer a beer!
