  ==> Input File <==

--------------------------------------------------------------------------
set {
	reference rhf
	basis 6-31G*
}

set_num_threads( 4 )
memory 2 gb

molecule MOL {
0 1

H	 -1.064435	 0.936952	 -0.129350
N	 -0.712432	 0.000013	 -0.096310
C	 0.734192	 -0.000004	 0.040609
H	 -0.986702	 -0.443752	 -0.951124
H	 1.139899	 -0.873598	 -0.456463
H	 1.139939	 0.873831	 -0.456100
H	 1.096456	 -0.000300	 1.069655

	symmetry c1
}
set optking {
	frozen_dihedral = ("
		1 2 3 7
	")
}

ee = optimize('scf')
oeprop('DIPOLE', 'QUADRUPOLE', 'MULLIKEN_CHARGES')
f=open( 'psi4out.xyz', 'w' )
f.write( "7  " )
f.write( str(ee) + "\n" )
f.write( MOL.save_string_xyz() )
f.close()
--------------------------------------------------------------------------

    Molecular point group: c1
  Charge       = 0
  Multiplicity = 1
  Basis Set: 6-31G*
  Basis Set:
  @DF-RHF Final Energy:   -95.20631545281799
    Total Energy =                        -95.2063154528181030
    Molecular point group: c1
  Basis Set: 6-31G*
  Basis Set:
  Basis Set: 6-31G*
  Basis Set:
  @DF-RHF Final Energy:   -95.20795257424547
    Total Energy =                        -95.2079525742454109
  Basis Set: 6-31G*
  Basis Set:
  Basis Set: 6-31G*
  Basis Set:
  @DF-RHF Final Energy:   -95.20815901880781
    Total Energy =                        -95.2081590188077769
  Basis Set: 6-31G*
  Basis Set:
  Basis Set: 6-31G*
  Basis Set:
  @DF-RHF Final Energy:   -95.20816168283655
    Total Energy =                        -95.2081616828365185
  Basis Set: 6-31G*
  Basis Set:
  Charge       = 0
  Multiplicity = 1
  Basis Set: 6-31G*
  Basis Set:

    Orbital Energies (a.u.)
    -----------------------

    Doubly Occupied:

       1A    -15.534888     2A    -11.237595     3A     -1.170265
       4A     -0.897341     5A     -0.662386     6A     -0.603044
       7A     -0.557986     8A     -0.515643     9A     -0.384981

  @DF-RHF Final Energy:   -95.20816184536268

   => Energetics <=

    Nuclear Repulsion Energy =             42.2823200284410490
    One-Electron Energy =                -211.8527065692786095
    Two-Electron Energy =                  74.3622246954748789
    DFT Exchange-Correlation Energy =       0.0000000000000000
    Empirical Dispersion Energy =           0.0000000000000000
    PCM Polarization Energy =               0.0000000000000000
    EFP Energy =                            0.0000000000000000
    Total Energy =                        -95.2081618453626675
    Molecular point group: c1
  Basis Set: 6-31G*
  Basis Set:

  -Total Gradient:
     Atom            X                  Y                   Z
    ------   -----------------  -----------------  -----------------
       1        0.000204824334     0.000082218926    -0.003295411037
       2       -0.000218506620    -0.000878213660     0.004088764305
       3       -0.000064163152     0.003851763131    -0.000714918413
       4       -0.000030150904    -0.000005537644    -0.000024399532
       5        0.000002993102    -0.000002544852     0.000004979151
       6        0.000015331873    -0.000007557595    -0.000002338785
       7        0.000089671364    -0.003040128307    -0.000056675690

  **** Optimization is complete! (in 5 steps) ****
    Final optimized geometry and variables:
    Molecular point group: c1

    Geometry (in Angstrom), charge = 0, multiplicity = 1:

    H           -1.097148383286     0.897267376898    -0.029253008343
    N           -0.720565735909    -0.030644301796    -0.022218250996
    C            0.733364831747     0.001950059002     0.075592555845
    H           -0.998105329661    -0.443473083935    -0.891164922938
    H            1.140310319048    -0.897079320697    -0.373648930825
    H            1.199328227749     0.855472176614    -0.414333635982
    H            1.035358477970    -0.009623504461     1.117041047569

  Mulliken Charges: (a.u.)
   Center  Symbol    Alpha    Beta     Spin     Total
       1     H     0.33345  0.33345  0.00000  0.33310
       2     N     3.91779  3.91779  0.00000 -0.83559
       3     C     3.14831  3.14831  0.00000 -0.29662
       4     H     0.33373  0.33373  0.00000  0.33254
       5     H     0.42014  0.42014  0.00000  0.15973
       6     H     0.43079  0.43079  0.00000  0.13842
       7     H     0.41579  0.41579  0.00000  0.16841

   Total alpha =  9.00000, Total beta =  9.00000, Total charge = -0.00000
