  ==> Input File <==

--------------------------------------------------------------------------
set {
	reference rhf
	basis 6-31G*
}

set_num_threads( 1 )
memory 2 gb

molecule MOL {
0 1

H	 -1.324020	 1.127159	 0.648870
C	 -0.790252	 0.431209	 0.000000
N	 0.538815	 0.649616	 0.000000
O	 -1.359360	 -0.415312	 -0.623479
C	 1.521968	 -0.411503	 0.000000
H	 0.852804	 1.592852	 0.000000
H	 2.150599	 -0.357004	 -0.881901
H	 0.999455	 -1.354525	 0.000000
H	 2.150599	 -0.357004	 0.881901

	symmetry c1
}
set optking {
	frozen_dihedral = ("
		6 3 5 7
	")
}

ee = energy('scf')
oeprop('DIPOLE', 'QUADRUPOLE', 'MULLIKEN_CHARGES')
f=open( 'psi4out.xyz', 'w' )
f.write( "9  " )
f.write( str(ee) + "\n" )
f.write( MOL.save_string_xyz() )
f.close()
--------------------------------------------------------------------------

    Molecular point group: c1

    Geometry (in Angstrom), charge = 0, multiplicity = 1:

       Center              X                  Y                   Z               Mass
    ------------   -----------------  -----------------  -----------------  -----------------
           H         -1.314704481630     1.070469426884     0.806712166497     1.007825032070
           C         -0.780936481630     0.374519426884     0.157842166497    12.000000000000
           N          0.548130518370     0.592926426884     0.157842166497    14.003074004780
           O         -1.350044481630    -0.472001573116    -0.465636833503    15.994914619560
           C          1.531283518370    -0.468192573116     0.157842166497    12.000000000000
           H          0.862119518370     1.536162426884     0.157842166497     1.007825032070
           H          2.159914518370    -0.413693573116    -0.724058833503     1.007825032070
           H          1.008770518370    -1.411214573116     0.157842166497     1.007825032070
           H          2.159914518370    -0.413693573116     1.039743166497     1.007825032070

  Charge       = 0
  Multiplicity = 1
  Basis Set: 6-31G*
  Basis Set:

    Orbital Energies (a.u.)
    -----------------------

    Doubly Occupied:

       1A    -20.537192     2A    -15.577613     3A    -11.345669
       4A    -11.262337     5A     -1.393876     6A     -1.232930
       7A     -0.965705     8A     -0.810151     9A     -0.740022
      10A     -0.642240    11A     -0.637445    12A     -0.595755
      13A     -0.557735    14A     -0.524369    15A     -0.429205
      16A     -0.385261

  @DF-RHF Final Energy:  -207.94410255424799

   => Energetics <=

    Nuclear Repulsion Energy =            122.0488577913093167
    One-Electron Energy =                -524.7109511799146730
    Two-Electron Energy =                 194.7179908343575221
    DFT Exchange-Correlation Energy =       0.0000000000000000
    Empirical Dispersion Energy =           0.0000000000000000
    PCM Polarization Energy =               0.0000000000000000
    EFP Energy =                            0.0000000000000000
    Total Energy =                       -207.9441025542478201

  Mulliken Charges: (a.u.)
   Center  Symbol    Alpha    Beta     Spin     Total
       1     H     0.42891  0.42891  0.00000  0.14219
       2     C     2.75285  2.75285  0.00000  0.49430
       3     N     3.88106  3.88106  0.00000 -0.76211
       4     O     4.26445  4.26445  0.00000 -0.52889
       5     C     3.13860  3.13860  0.00000 -0.27719
       6     H     0.30946  0.30946  0.00000  0.38108
       7     H     0.41384  0.41384  0.00000  0.17232
       8     H     0.39523  0.39523  0.00000  0.20955
       9     H     0.41561  0.41561  0.00000  0.16877

   Total alpha = 16.00000, Total beta = 16.00000, Total charge =  0.00000
