                              Psi4 1.0.54 Driver

  ==> Input File <==

--------------------------------------------------------------------------
set {
	reference rhf
	basis cc-pvtz
}

set_num_threads( 4 )
memory 2 gb

molecule MOL {
0 1

H	 -3.144994	 -1.202467	 -0.018751
O	 -2.321472	 -0.864941	 -0.318626
C	 -2.021813	 0.336996	 0.342658
C	 -0.669613	 0.837286	 -0.127252
H	 -2.780861	 1.084746	 0.127159
H	 -2.006390	 0.184138	 1.420053
C	 0.490865	 -0.082543	 0.241244
H	 -0.708709	 0.967192	 -1.204587
H	 -0.507562	 1.822272	 0.303070
C	 0.081325	 -1.214041	 1.179645
H	 1.277927	 0.503719	 0.701557
H	 0.913249	 -0.506542	 -0.667567
C	 1.238882	 -2.138351	 1.542273
H	 -0.338708	 -0.791035	 2.088127
H	 -0.713209	 -1.796221	 0.719785
H	 2.035060	 -1.591374	 2.036067
H	 0.916806	 -2.929082	 2.210343
H	 1.659775	 -2.604354	 0.657324

	symmetry c1
}
set optking {
	frozen_dihedral = ("
		10 7 4 8
	")
}

ee,wfn = optimize('scf', return_wfn=True)
oeprop( wfn, 'DIPOLE', 'QUADRUPOLE', 'MULLIKEN_CHARGES')
f=open( 'psi4out.xyz', 'w' )
f.write( "18  " )
f.write( str(ee) + "\n" )
f.write( MOL.save_string_xyz() )
f.close()
--------------------------------------------------------------------------

    Molecular point group: c1
  Charge       = 0
  Multiplicity = 1
  Basis Set: CC-PVTZ
  Basis Set:
  @DF-RHF Final Energy:  -271.27125980144581
    Total Energy =                       -271.2712598014455239
    Molecular point group: c1
  Basis Set: CC-PVTZ
  Basis Set:
  Basis Set: CC-PVTZ
  Basis Set:
  @DF-RHF Final Energy:  -271.27593704226865
    Total Energy =                       -271.2759370422687653
  Basis Set: CC-PVTZ
  Basis Set:
  Basis Set: CC-PVTZ
  Basis Set:
  @DF-RHF Final Energy:  -271.27725445858380
    Total Energy =                       -271.2772544585839682
  Basis Set: CC-PVTZ
  Basis Set:
  Basis Set: CC-PVTZ
  Basis Set:
  @DF-RHF Final Energy:  -271.27755040317754
    Total Energy =                       -271.2775504031773153
  Basis Set: CC-PVTZ
  Basis Set:
  Basis Set: CC-PVTZ
  Basis Set:
  @DF-RHF Final Energy:  -271.27757606528246
    Total Energy =                       -271.2775760652822896
  Basis Set: CC-PVTZ
  Basis Set:
  Basis Set: CC-PVTZ
  Basis Set:
  @DF-RHF Final Energy:  -271.27757998559360
    Total Energy =                       -271.2775799855936611
  Basis Set: CC-PVTZ
  Basis Set:
  Basis Set: CC-PVTZ
  Basis Set:
  @DF-RHF Final Energy:  -271.27758272115153
    Total Energy =                       -271.2775827211512478
  Basis Set: CC-PVTZ
  Basis Set:
  Charge       = 0
  Multiplicity = 1
  Basis Set: CC-PVTZ
  Basis Set:

    Orbital Energies (a.u.)
    -----------------------

    Doubly Occupied:

       1A    -20.546937     2A    -11.265784     3A    -11.211567
       4A    -11.207804     5A    -11.204950     6A    -11.201273
       7A     -1.364445     8A     -1.071892     9A     -1.007205
      10A     -0.913950    11A     -0.834242    12A     -0.766006
      13A     -0.708927    14A     -0.644626    15A     -0.628315
      16A     -0.583562    17A     -0.563790    18A     -0.554688
      19A     -0.536115    20A     -0.496023    21A     -0.493271
      22A     -0.468154    23A     -0.452726    24A     -0.445126
      25A     -0.429402

  @DF-RHF Final Energy:  -271.27758307501483

   => Energetics <=

    Nuclear Repulsion Energy =            255.0708556601319685
    One-Electron Energy =                -873.4953168586164338
    Two-Electron Energy =                 347.1468781234696621
    DFT Exchange-Correlation Energy =       0.0000000000000000
    Empirical Dispersion Energy =           0.0000000000000000
    PCM Polarization Energy =               0.0000000000000000
    EFP Energy =                            0.0000000000000000
    Total Energy =                       -271.2775830750147747
    Molecular point group: c1
  Basis Set: CC-PVTZ
  Basis Set:

  -Total Gradient:
     Atom            X                  Y                   Z
    ------   -----------------  -----------------  -----------------
       1        0.000000231497    -0.000005017353    -0.000004791580
       2        0.000005730246     0.000008798873     0.000021494834
       3       -0.000003932060    -0.000022084551    -0.000026617596
       4        0.002904261859     0.003068093621    -0.000994237513
       5       -0.000008041361     0.000022466858    -0.000001599406
       6       -0.000008428120    -0.000012697767     0.000016189315
       7        0.000472141627     0.002083384492     0.003429733947
       8       -0.002635521359    -0.003205708064    -0.000087164686
       9        0.000007837749    -0.000011534278     0.000003727384
      10       -0.000754404960    -0.001961111592    -0.002357774182
      11        0.000008746965     0.000006366326     0.000000903153
      12       -0.000005354406     0.000003296947     0.000000914433
      13       -0.000002709543     0.000017587074    -0.000004330837
      14        0.000000476828     0.000004534085     0.000001165140
      15        0.000000106479     0.000010055380     0.000000811084
      16        0.000018449877    -0.000002465812     0.000003085286
      17       -0.000007075257     0.000002651175     0.000002808900
      18        0.000007483936    -0.000006615414    -0.000004317676

  **** Optimization is complete! (in 8 steps) ****
    Final optimized geometry and variables:
    Molecular point group: c1

    Geometry (in Angstrom), charge = 0, multiplicity = 1:

    H           -2.771709731923    -0.442417348104    -0.628642280227
    O           -1.903456695504    -0.196572807682    -0.889615269290
    C           -1.492317177022     0.947673820272    -0.184289625903
    C           -0.082520912929     1.317733289526    -0.614151897190
    H           -2.151524207236     1.781169920790    -0.413552523566
    H           -1.546598523999     0.776016817052     0.886381992049
    C            1.068239502963     0.369122341818    -0.191428454776
    H           -0.117254312828     1.373109731859    -1.695927152832
    H            0.113749781148     2.318577108606    -0.245227667767
    C            0.744873423710    -0.731596933571     0.819414771281
    H            1.885317706311     0.968178861388     0.198344182029
    H            1.458347582883    -0.112960648512    -1.081610996317
    C            1.960918238991    -1.602209751604     1.120981580811
    H            0.390554072755    -0.293128071137     1.748527823264
    H           -0.057570948462    -1.349802556129     0.439880038625
    H            2.776279843653    -1.014118837729     1.529765656668
    H            1.719131816279    -2.376197226274     1.840656099868
    H            2.325100788666    -2.089329105809     0.222490032523

  Mulliken Charges: (a.u.)
   Center  Symbol    Alpha    Beta     Spin     Total
       1     H     0.39439  0.39439  0.00000  0.21123
       2     O     4.20280  4.20280  0.00000 -0.40560
       3     C     2.98309  2.98309  0.00000  0.03382
       4     C     3.09831  3.09831  0.00000 -0.19662
       5     H     0.45783  0.45783  0.00000  0.08434
       6     H     0.46601  0.46601  0.00000  0.06797
       7     C     3.08639  3.08639  0.00000 -0.17277
       8     H     0.44980  0.44980  0.00000  0.10040
       9     H     0.45075  0.45075  0.00000  0.09850
      10     C     3.09026  3.09026  0.00000 -0.18052
      11     H     0.45311  0.45311  0.00000  0.09378
      12     H     0.45281  0.45281  0.00000  0.09438
      13     C     3.15154  3.15154  0.00000 -0.30308
      14     H     0.45763  0.45763  0.00000  0.08473
      15     H     0.44400  0.44400  0.00000  0.11201
      16     H     0.45698  0.45698  0.00000  0.08603
      17     H     0.44951  0.44951  0.00000  0.10099
      18     H     0.45479  0.45479  0.00000  0.09042

   Total alpha = 25.00000, Total beta = 25.00000, Total charge = -0.00000

*** Psi4 exiting successfully. Buy a developer a beer!
