  ==> Input File <==

--------------------------------------------------------------------------
set {
	reference rhf
	basis 6-31G*
}

set_num_threads( 4 )
memory 2 gb

molecule MOL {
0 1

H	 -1.888381	 -1.413988	 -0.288845
C	 -1.890875	 -0.341999	 -0.120990
N	 -0.528168	 0.128977	 -0.000000
H	 -2.424908	 -0.153887	 0.803379
H	 -2.448013	 0.121407	 -0.939597
C	 0.248044	 -0.037491	 -1.209632
H	 -0.525974	 1.091379	 0.273508
H	 0.998722	 0.743888	 -1.266824
H	 -0.398417	 0.061950	 -2.074060
H	 0.763621	 -0.999315	 -1.275517

	symmetry c1
}
set optking {
	frozen_dihedral = ("
		2 3 6 8
	")
}

ee = optimize('scf')
oeprop('DIPOLE', 'QUADRUPOLE', 'MULLIKEN_CHARGES')
f=open( 'psi4out.xyz', 'w' )
f.write( "10  " )
f.write( str(ee) + "\n" )
f.write( MOL.save_string_xyz() )
f.close()
--------------------------------------------------------------------------

    Molecular point group: c1
  Charge       = 0
  Multiplicity = 1
  Basis Set: 6-31G*
  Basis Set:
  @DF-RHF Final Energy:  -134.23568732060335
    Total Energy =                       -134.2356873206033470
    Molecular point group: c1
  Basis Set: 6-31G*
  Basis Set:
  Basis Set: 6-31G*
  Basis Set:
  @DF-RHF Final Energy:  -134.23642565291624
    Total Energy =                       -134.2364256529162390
  Basis Set: 6-31G*
  Basis Set:
  Basis Set: 6-31G*
  Basis Set:
  @DF-RHF Final Energy:  -134.23653890882292
    Total Energy =                       -134.2365389088230074
  Basis Set: 6-31G*
  Basis Set:
  Charge       = 0
  Multiplicity = 1
  Basis Set: 6-31G*
  Basis Set:

    Orbital Energies (a.u.)
    -----------------------

    Doubly Occupied:

       1A    -15.537636     2A    -11.236066     3A    -11.236043
       4A     -1.198301     5A     -0.947987     6A     -0.853973
       7A     -0.661034     8A     -0.612588     9A     -0.590099
      10A     -0.543790    11A     -0.508731    12A     -0.504144
      13A     -0.361550

  @DF-RHF Final Energy:  -134.23654013456218

   => Energetics <=

    Nuclear Repulsion Energy =             84.5497590575405269
    One-Electron Energy =                -347.9887197904820368
    Two-Electron Energy =                 129.2024205983793763
    DFT Exchange-Correlation Energy =       0.0000000000000000
    Empirical Dispersion Energy =           0.0000000000000000
    PCM Polarization Energy =               0.0000000000000000
    EFP Energy =                            0.0000000000000000
    Total Energy =                       -134.2365401345621194
    Molecular point group: c1
  Basis Set: 6-31G*
  Basis Set:

  -Total Gradient:
     Atom            X                  Y                   Z
    ------   -----------------  -----------------  -----------------
       1       -0.000020599568    -0.000008595756    -0.000002535944
       2       -0.000749500399     0.002829543091    -0.000910849740
       3        0.000559301025    -0.003366720286     0.000664828273
       4       -0.000008273137     0.000011027441     0.000009424600
       5        0.000006737480     0.000004027930    -0.000012213114
       6        0.002804917278    -0.001804636605     0.002170558710
       7        0.000041152994    -0.000033871923    -0.000006410529
       8       -0.002627387887     0.002375902905    -0.001917687185
       9       -0.000009523258    -0.000005422224    -0.000026660232
      10        0.000003175471    -0.000001254574     0.000031545161

  **** Optimization is complete! (in 4 steps) ****
    Final optimized geometry and variables:
    Molecular point group: c1

    Geometry (in Angstrom), charge = 0, multiplicity = 1:

    H           -1.163451222225    -1.340942709062     0.166433868396
    C           -1.158082094562    -0.270871370723     0.347303118049
    N            0.206765762135     0.196538787128     0.461213215977
    H           -1.682938925648    -0.092805271507     1.278970735803
    H           -1.718362640178     0.204901806841    -0.461428591869
    C            0.982303927412     0.044780871179    -0.756673689504
    H            0.200058431459     1.157861202125     0.735206594631
    H            1.734826876047     0.822806217422    -0.814232945941
    H            0.373434903283     0.130161539697    -1.659298303003
    H            1.476517177249    -0.920740690093    -0.779604066720

  Mulliken Charges: (a.u.)
   Center  Symbol    Alpha    Beta     Spin     Total
       1     H     0.41788  0.41788  0.00000  0.16424
       2     C     3.14563  3.14563  0.00000 -0.29125
       3     N     3.83931  3.83931  0.00000 -0.67863
       4     H     0.41712  0.41712  0.00000  0.16575
       5     H     0.43419  0.43419  0.00000  0.13162
       6     C     3.14476  3.14476  0.00000 -0.28951
       7     H     0.33202  0.33202  0.00000  0.33597
       8     H     0.42036  0.42036  0.00000  0.15928
       9     H     0.43235  0.43235  0.00000  0.13529
      10     H     0.41638  0.41638  0.00000  0.16724

   Total alpha = 13.00000, Total beta = 13.00000, Total charge = -0.00000
