  ==> Input File <==

--------------------------------------------------------------------------
set {
	reference rhf
	basis 6-31G*
}

set_num_threads( 1 )
memory 2 gb

molecule MOL {
0 1

H	 -3.781446	 0.748000	 -1.649034
O	 -3.245075	 0.099833	 -1.215338
C	 -2.009873	 0.667988	 -0.863106
C	 -1.177863	 -0.397191	 -0.171080
H	 -1.489135	 1.031480	 -1.747985
H	 -2.154975	 1.518199	 -0.197954
C	 0.198102	 0.111031	 0.262842
H	 -1.069262	 -1.239820	 -0.848509
H	 -1.732965	 -0.758636	 0.690138
C	 1.331804	 -0.827780	 -0.158768
H	 0.361943	 1.100838	 -0.156218
H	 0.217265	 0.229072	 1.345532
C	 2.723619	 -0.410569	 0.329459
H	 1.342964	 -0.912588	 -1.244120
H	 1.116806	 -1.824343	 0.220779
C	 3.243875	 0.895854	 -0.272975
H	 3.424222	 -1.207124	 0.091250
H	 2.714788	 -0.329854	 1.414619
H	 3.251977	 0.848779	 -1.358681
H	 2.637085	 1.747371	 0.016682
H	 4.259473	 1.094070	 0.055697

	symmetry c1
}
set optking {
	frozen_dihedral = ("
		2 3 4 8,
		4 7 10 14,
		16 13 10 14,
		1 2 3 5
	")
}

ee = energy('scf')
oeprop('DIPOLE', 'QUADRUPOLE', 'MULLIKEN_CHARGES')
f=open( 'psi4out.xyz', 'w' )
f.write( "21  " )
f.write( str(ee) + "\n" )
f.write( MOL.save_string_xyz() )
f.close()
--------------------------------------------------------------------------

    Molecular point group: c1

    Geometry (in Angstrom), charge = 0, multiplicity = 1:

       Center              X                  Y                   Z               Mass
    ------------   -----------------  -----------------  -----------------  -----------------
           H         -3.869406975724     0.707548625289    -1.322731710518     1.007825032070
           O         -3.333035975724     0.059381625289    -0.889035710518    15.994914619560
           C         -2.097833975724     0.627536625289    -0.536803710518    12.000000000000
           C         -1.265823975724    -0.437642374711     0.155222289482    12.000000000000
           H         -1.577095975724     0.991028625289    -1.421682710518     1.007825032070
           H         -2.242935975724     1.477747625289     0.128348289482     1.007825032070
           C          0.110141024276     0.070579625289     0.589144289482    12.000000000000
           H         -1.157222975724    -1.280271374711    -0.522206710518     1.007825032070
           H         -1.820925975724    -0.799087374711     1.016440289482     1.007825032070
           C          1.243843024276    -0.868231374711     0.167534289482    12.000000000000
           H          0.273982024276     1.060386625289     0.170084289482     1.007825032070
           H          0.129304024276     0.188620625289     1.671834289482     1.007825032070
           C          2.635658024276    -0.451020374711     0.655761289482    12.000000000000
           H          1.255003024276    -0.953039374711    -0.917817710518     1.007825032070
           H          1.028845024276    -1.864794374711     0.547081289482     1.007825032070
           C          3.155914024276     0.855402625289     0.053327289482    12.000000000000
           H          3.336261024276    -1.247575374711     0.417552289482     1.007825032070
           H          2.626827024276    -0.370305374711     1.740921289482     1.007825032070
           H          3.164016024276     0.808327625289    -1.032378710518     1.007825032070
           H          2.549124024276     1.706919625289     0.342984289482     1.007825032070
           H          4.171512024276     1.053618625289     0.381999289482     1.007825032070

  Charge       = 0
  Multiplicity = 1
  Basis Set: 6-31G*
  Basis Set:

    Orbital Energies (a.u.)
    -----------------------

    Doubly Occupied:

       1A    -20.551684     2A    -11.267527     3A    -11.214896
       4A    -11.214604     5A    -11.213816     6A    -11.209196
       7A    -11.208495     8A     -1.358599     9A     -1.086514
      10A     -1.033007    11A     -0.953903    12A     -0.876295
      13A     -0.808425    14A     -0.779184    15A     -0.693234
      16A     -0.652490    17A     -0.630134    18A     -0.607354
      19A     -0.583137    20A     -0.573108    21A     -0.532223
      22A     -0.524617    23A     -0.510984    24A     -0.487155
      25A     -0.477536    26A     -0.459075    27A     -0.455444
      28A     -0.443786    29A     -0.432204

  @DF-RHF Final Energy:  -310.20814759323719

   => Energetics <=

    Nuclear Repulsion Energy =            313.8397048392647548
    One-Electron Energy =               -1042.4186883358211162
    Two-Electron Energy =                 418.3708359033190618
    DFT Exchange-Correlation Energy =       0.0000000000000000
    Empirical Dispersion Energy =           0.0000000000000000
    PCM Polarization Energy =               0.0000000000000000
    EFP Energy =                            0.0000000000000000
    Total Energy =                       -310.2081475932372996

  Mulliken Charges: (a.u.)
   Center  Symbol    Alpha    Beta     Spin     Total
       1     H     0.28130  0.28130  0.00000  0.43740
       2     O     4.37165  4.37165  0.00000 -0.74331
       3     C     2.99400  2.99400  0.00000  0.01199
       4     C     3.15979  3.15979  0.00000 -0.31958
       5     H     0.43262  0.43262  0.00000  0.13475
       6     H     0.43240  0.43240  0.00000  0.13521
       7     C     3.16409  3.16409  0.00000 -0.32817
       8     H     0.41221  0.41221  0.00000  0.17558
       9     H     0.41261  0.41261  0.00000  0.17478
      10     C     3.15446  3.15446  0.00000 -0.30893
      11     H     0.42119  0.42119  0.00000  0.15763
      12     H     0.41970  0.41970  0.00000  0.16060
      13     C     3.15312  3.15312  0.00000 -0.30624
      14     H     0.42349  0.42349  0.00000  0.15302
      15     H     0.41998  0.41998  0.00000  0.16004
      16     C     3.24118  3.24118  0.00000 -0.48236
      17     H     0.42080  0.42080  0.00000  0.15840
      18     H     0.42327  0.42327  0.00000  0.15347
      19     H     0.42245  0.42245  0.00000  0.15510
      20     H     0.42059  0.42059  0.00000  0.15882
      21     H     0.41909  0.41909  0.00000  0.16182

   Total alpha = 29.00000, Total beta = 29.00000, Total charge =  0.00000
