  ==> Input File <==

--------------------------------------------------------------------------
set {
	reference rhf
	basis cc-pvtz
}

set_num_threads( 4 )
memory 2 gb

molecule MOL {
0 1

H	 -0.000342	 -0.223902	 -3.352295
C	 -0.027146	 0.371068	 -2.446756
C	 0.024493	 -0.518541	 -1.216015
H	 -0.932586	 0.964979	 -2.449855
H	 0.819708	 1.049865	 -2.473332
N	 -0.042516	 0.263377	 -0.000000
H	 -0.822211	 -1.197105	 -1.225584
H	 0.921114	 -1.142847	 -1.255206
C	 0.024493	 -0.518541	 1.216015
H	 0.682568	 0.950412	 -0.000000
C	 -1.309775	 -0.522275	 1.943001
H	 0.291476	 -1.535243	 0.946785
H	 0.806559	 -0.162492	 1.891903
H	 -2.090583	 -0.915857	 1.304258
H	 -1.257182	 -1.129147	 2.839466
H	 -1.594404	 0.482050	 2.241248

	symmetry c1
}
set optking {
	frozen_dihedral = ("
		12 9 6 3
	")
}

ee = optimize('scf')
oeprop('DIPOLE', 'QUADRUPOLE', 'MULLIKEN_CHARGES')
f=open( 'psi4out.xyz', 'w' )
f.write( "16  " )
f.write( str(ee) + "\n" )
f.write( MOL.save_string_xyz() )
f.close()
--------------------------------------------------------------------------

    Molecular point group: c1
  Charge       = 0
  Multiplicity = 1
  Basis Set: CC-PVTZ
  Basis Set:
  @DF-RHF Final Energy:  -212.38973395088968
    Total Energy =                       -212.3897339508895357
    Molecular point group: c1
  Basis Set: CC-PVTZ
  Basis Set:
  Basis Set: CC-PVTZ
  Basis Set:
  @DF-RHF Final Energy:  -212.39032505682243
    Total Energy =                       -212.3903250568222916
  Basis Set: CC-PVTZ
  Basis Set:
  Basis Set: CC-PVTZ
  Basis Set:
  @DF-RHF Final Energy:  -212.39046582661751
    Total Energy =                       -212.3904658266174579
  Basis Set: CC-PVTZ
  Basis Set:
  Basis Set: CC-PVTZ
  Basis Set:
  @DF-RHF Final Energy:  -212.39046750704196
    Total Energy =                       -212.3904675070421035
  Basis Set: CC-PVTZ
  Basis Set:
  Charge       = 0
  Multiplicity = 1
  Basis Set: CC-PVTZ
  Basis Set:

    Orbital Energies (a.u.)
    -----------------------

    Doubly Occupied:

       1A    -15.527236     2A    -11.239968     3A    -11.239516
       4A    -11.206450     5A    -11.199612     6A     -1.203498
       7A     -1.025958     8A     -0.964813     9A     -0.838980
      10A     -0.810743    11A     -0.665381    12A     -0.626568
      13A     -0.611836    14A     -0.570746    15A     -0.550779
      16A     -0.527114    17A     -0.505085    18A     -0.493376
      19A     -0.482470    20A     -0.469028    21A     -0.358911

  @DF-RHF Final Energy:  -212.39046764057315

   => Energetics <=

    Nuclear Repulsion Energy =            189.9382788330447625
    One-Electron Energy =                -662.4213523016028375
    Two-Electron Energy =                 260.0926058279848121
    DFT Exchange-Correlation Energy =       0.0000000000000000
    Empirical Dispersion Energy =           0.0000000000000000
    PCM Polarization Energy =               0.0000000000000000
    EFP Energy =                            0.0000000000000000
    Total Energy =                       -212.3904676405732630
    Molecular point group: c1
  Basis Set: CC-PVTZ
  Basis Set:

  -Total Gradient:
     Atom            X                  Y                   Z
    ------   -----------------  -----------------  -----------------
       1        0.000000780610    -0.000000204848    -0.000004958354
       2        0.000005449836    -0.000002548633     0.000005613489
       3        0.001379212967     0.000108903555     0.000027228616
       4        0.000001666310    -0.000003786551     0.000003121802
       5       -0.000001045192    -0.000001093552     0.000000713930
       6       -0.002424245968    -0.000274022156    -0.000068722179
       7        0.000000884093    -0.000003024789    -0.000005641377
       8       -0.000001024602     0.000004728208    -0.000001898484
       9        0.002766018506     0.000572657471     0.000229557940
      10       -0.000004831942     0.000011055547     0.000001880774
      11        0.000012943174    -0.000006808104    -0.000003641405
      12       -0.001744491542    -0.000402463555    -0.000189959586
      13        0.000006198811    -0.000004432871     0.000008719926
      14       -0.000000088569     0.000000167334     0.000000287632
      15       -0.000000313815     0.000001208534    -0.000000439463
      16        0.000002887324    -0.000000335588    -0.000001863258

  **** Optimization is complete! (in 5 steps) ****
    Final optimized geometry and variables:
    Molecular point group: c1

    Geometry (in Angstrom), charge = 0, multiplicity = 1:

    H            0.269579989343    -0.010997465782    -3.261081923095
    C            0.230645361481     0.570325226476    -2.347060350166
    C            0.304458819425    -0.335197455565    -1.129495061877
    H           -0.687413206810     1.144416477996    -2.340184491790
    H            1.062354615045     1.268010265309    -2.364477094940
    N            0.230929642252     0.431508110312     0.097183255896
    H           -0.530494739419    -1.027896434808    -1.147154138708
    H            1.211340415488    -0.942504148294    -1.182225882127
    C            0.276112832140    -0.350400885008     1.326280919189
    H            0.947385969643     1.123210824288     0.099969233896
    C           -1.054500975157    -0.325330874040     2.066980371958
    H            0.535546794410    -1.383525019651     1.107613379607
    H            1.055144701664     0.032884265944     1.976925934706
    H           -1.848263497093    -0.716786239977     1.440910468151
    H           -1.008191178981    -0.925083169070     2.970674038557
    H           -1.318866741731     0.688942019838     2.340501105976

  Mulliken Charges: (a.u.)
   Center  Symbol    Alpha    Beta     Spin     Total
       1     H     0.45427  0.45427  0.00000  0.09146
       2     C     3.14399  3.14399  0.00000 -0.28798
       3     C     3.02304  3.02304  0.00000 -0.04607
       4     H     0.44956  0.44956  0.00000  0.10087
       5     H     0.45955  0.45955  0.00000  0.08090
       6     N     3.63982  3.63982  0.00000 -0.27964
       7     H     0.45859  0.45859  0.00000  0.08282
       8     H     0.47198  0.47198  0.00000  0.05604
       9     C     3.03786  3.03786  0.00000 -0.07573
      10     H     0.44373  0.44373  0.00000  0.11254
      11     C     3.12695  3.12695  0.00000 -0.25389
      12     H     0.46388  0.46388  0.00000  0.07223
      13     H     0.45540  0.45540  0.00000  0.08920
      14     H     0.45655  0.45655  0.00000  0.08690
      15     H     0.45949  0.45949  0.00000  0.08101
      16     H     0.45534  0.45534  0.00000  0.08932

   Total alpha = 21.00000, Total beta = 21.00000, Total charge = -0.00000
