                              Psi4 1.0.54 Driver

  ==> Input File <==

--------------------------------------------------------------------------
set {
	reference rhf
	basis cc-pvtz
}

set_num_threads( 4 )
memory 2 gb

molecule MOL {
0 1

H	 -2.584460	 0.725622	 0.872993
C	 -2.547022	 0.087712	 0.000130
C	 -1.286531	 -0.763156	 -0.000332
H	 -2.584474	 0.726538	 -0.872059
H	 -3.427034	 -0.544334	 -0.000190
C	 -0.000000	 0.040003	 0.000014
H	 -1.264278	 -1.420165	 -0.865631
H	 -1.264255	 -1.421117	 0.864239
C	 1.286532	 -0.763156	 0.000268
O	 -0.000002	 1.227597	 0.000038
C	 2.547023	 0.087713	 -0.000114
H	 1.264245	 -1.421016	 -0.864380
H	 1.264290	 -1.420266	 0.865489
H	 2.584452	 0.725717	 -0.872909
H	 3.427035	 -0.544335	 0.000125
H	 2.584484	 0.726443	 0.872143

	symmetry c1
}
ee,wfn = energy('scf', return_wfn=True)
oeprop( wfn, 'DIPOLE', 'QUADRUPOLE', 'MULLIKEN_CHARGES')
oeprop( wfn, 'GRID_ESP')
f=open( 'psi4out.xyz', 'w' )
f.write( "16  " )
f.write( str(ee) + "\n" )
f.write( MOL.save_string_xyz() )
f.close()
--------------------------------------------------------------------------

    Molecular point group: c1

    Geometry (in Angstrom), charge = 0, multiplicity = 1:

       Center              X                  Y                   Z               Mass
    ------------   -----------------  -----------------  -----------------  -----------------
           H         -2.584459965719     0.725534522283     0.872992786249     1.007825032070
           C         -2.547021965719     0.087624522283     0.000129786249    12.000000000000
           C         -1.286530965719    -0.763243477717    -0.000332213751    12.000000000000
           H         -2.584473965719     0.726450522283    -0.872059213751     1.007825032070
           H         -3.427033965719    -0.544421477717    -0.000190213751     1.007825032070
           C          0.000000034281     0.039915522283     0.000013786249    12.000000000000
           H         -1.264277965719    -1.420252477717    -0.865631213751     1.007825032070
           H         -1.264254965719    -1.421204477717     0.864238786249     1.007825032070
           C          1.286532034281    -0.763243477717     0.000267786249    12.000000000000
           O         -0.000001965719     1.227509522283     0.000037786249    15.994914619560
           C          2.547023034281     0.087625522283    -0.000114213751    12.000000000000
           H          1.264245034281    -1.421103477717    -0.864380213751     1.007825032070
           H          1.264290034281    -1.420353477717     0.865488786249     1.007825032070
           H          2.584452034281     0.725629522283    -0.872909213751     1.007825032070
           H          3.427035034281    -0.544422477717     0.000124786249     1.007825032070
           H          2.584484034281     0.726355522283     0.872142786249     1.007825032070

  Charge       = 0
  Multiplicity = 1
  Basis Set: CC-PVTZ
  Basis Set:

    Orbital Energies (a.u.)
    -----------------------

    Doubly Occupied:

       1A    -20.539276     2A    -11.317902     3A    -11.232203
       4A    -11.232180     5A    -11.211759     6A    -11.211758
       7A     -1.399484     8A     -1.069361     9A     -1.037215
      10A     -0.917055    11A     -0.845945    12A     -0.725977
      13A     -0.669731    14A     -0.649371    15A     -0.619743
      16A     -0.608133    17A     -0.561199    18A     -0.527438
      19A     -0.525606    20A     -0.510864    21A     -0.505350
      22A     -0.492116    23A     -0.488358    24A     -0.401354

  @DF-RHF Final Energy:  -270.13186529393255

   => Energetics <=

    Nuclear Repulsion Energy =            240.3623186437690151
    One-Electron Energy =                -842.3894588623167010
    Two-Electron Energy =                 331.8952749246151370
    DFT Exchange-Correlation Energy =       0.0000000000000000
    Empirical Dispersion Energy =           0.0000000000000000
    PCM Polarization Energy =               0.0000000000000000
    EFP Energy =                            0.0000000000000000
    Total Energy =                       -270.1318652939324920

  Mulliken Charges: (a.u.)
   Center  Symbol    Alpha    Beta     Spin     Total
       1     H     0.44788  0.44788  0.00000  0.10423
       2     C     3.14070  3.14070  0.00000 -0.28140
       3     C     3.09776  3.09776  0.00000 -0.19552
       4     H     0.44787  0.44787  0.00000  0.10426
       5     H     0.45076  0.45076  0.00000  0.09848
       6     C     2.87468  2.87468  0.00000  0.25064
       7     H     0.44605  0.44605  0.00000  0.10790
       8     H     0.44605  0.44605  0.00000  0.10789
       9     C     3.09776  3.09776  0.00000 -0.19552
      10     O     4.17116  4.17116  0.00000 -0.34233
      11     C     3.14070  3.14070  0.00000 -0.28140
      12     H     0.44605  0.44605  0.00000  0.10789
      13     H     0.44605  0.44605  0.00000  0.10791
      14     H     0.44788  0.44788  0.00000  0.10423
      15     H     0.45076  0.45076  0.00000  0.09848
      16     H     0.44787  0.44787  0.00000  0.10426

   Total alpha = 24.00000, Total beta = 24.00000, Total charge = -0.00000

*** Psi4 exiting successfully. Buy a developer a beer!
