  ==> Input File <==

--------------------------------------------------------------------------
set {
	reference rhf
	basis 6-31G*
}

set_num_threads( 1 )
memory 2 gb

molecule MOL {
0 1

H	 0.960631	 2.461740	 -0.610078
O	 1.255120	 1.918537	 0.108295
C	 0.709265	 0.639550	 -0.033818
C	 -0.793441	 0.596080	 0.058728
H	 1.140408	 0.037111	 0.757628
H	 1.022358	 0.187479	 -0.974366
C	 -1.530462	 -0.493172	 -0.025500
H	 -1.268471	 1.554324	 0.202247
H	 -1.092586	 -1.461565	 -0.186463
H	 -2.602122	 -0.450675	 0.050101

	symmetry c1
}
set optking {
	frozen_dihedral = ("
		5 3 2 1,
		3 4 7 9
	")
}

ee = energy('scf')
oeprop('DIPOLE', 'QUADRUPOLE', 'MULLIKEN_CHARGES')
f=open( 'psi4out.xyz', 'w' )
f.write( "10  " )
f.write( str(ee) + "\n" )
f.write( MOL.save_string_xyz() )
f.close()
--------------------------------------------------------------------------

    Molecular point group: c1

    Geometry (in Angstrom), charge = 0, multiplicity = 1:

       Center              X                  Y                   Z               Mass
    ------------   -----------------  -----------------  -----------------  -----------------
           H          0.980518319603     1.739107025344    -0.626586841891     1.007825032070
           O          1.275007319603     1.195904025344     0.091786158109    15.994914619560
           C          0.729152319603    -0.083082974656    -0.050326841891    12.000000000000
           C         -0.773553680397    -0.126552974656     0.042219158109    12.000000000000
           H          1.160295319603    -0.685521974656     0.741119158109     1.007825032070
           H          1.042245319603    -0.535153974656    -0.990874841891     1.007825032070
           C         -1.510574680397    -1.215804974656    -0.042008841891    12.000000000000
           H         -1.248583680397     0.831691025344     0.185738158109     1.007825032070
           H         -1.072698680397    -2.184197974656    -0.202971841891     1.007825032070
           H         -2.582234680397    -1.173307974656     0.033592158109     1.007825032070

  Charge       = 0
  Multiplicity = 1
  Basis Set: 6-31G*
  Basis Set:

    Orbital Energies (a.u.)
    -----------------------

    Doubly Occupied:

       1A    -20.561778     2A    -11.276872     3A    -11.231703
       4A    -11.221290     5A     -1.370322     6A     -1.062616
       7A     -0.920392     8A     -0.777935     9A     -0.699266
      10A     -0.635736    11A     -0.623146    12A     -0.585419
      13A     -0.528224    14A     -0.500873    15A     -0.447007
      16A     -0.363118

  @DF-RHF Final Energy:  -191.91289734909793

   => Energetics <=

    Nuclear Repulsion Energy =            116.9559881938507289
    One-Electron Energy =                -492.1263802823632432
    Two-Electron Energy =                 183.2574947394146534
    DFT Exchange-Correlation Energy =       0.0000000000000000
    Empirical Dispersion Energy =           0.0000000000000000
    PCM Polarization Energy =               0.0000000000000000
    EFP Energy =                            0.0000000000000000
    Total Energy =                       -191.9128973490978751

  Mulliken Charges: (a.u.)
   Center  Symbol    Alpha    Beta     Spin     Total
       1     H     0.28176  0.28176  0.00000  0.43647
       2     O     4.36851  4.36851  0.00000 -0.73702
       3     C     3.00175  3.00175  0.00000 -0.00350
       4     C     3.09333  3.09333  0.00000 -0.18667
       5     H     0.40589  0.40589  0.00000  0.18822
       6     H     0.42198  0.42198  0.00000  0.15604
       7     C     3.19847  3.19847  0.00000 -0.39693
       8     H     0.40607  0.40607  0.00000  0.18786
       9     H     0.41363  0.41363  0.00000  0.17275
      10     H     0.40861  0.40861  0.00000  0.18278

   Total alpha = 16.00000, Total beta = 16.00000, Total charge =  0.00000
