  ==> Input File <==

--------------------------------------------------------------------------
set {
	reference rhf
	basis 6-31G*
}

set_num_threads( 4 )
memory 2 gb

molecule MOL {
0 1

H	 1.165808	 1.664142	 0.703447
O	 0.348652	 1.176607	 0.739455
C	 0.489431	 0.077273	 0.000046
C	 -0.764129	 -0.759190	 0.000191
O	 1.498107	 -0.175380	 -0.573804
C	 -2.038368	 0.075731	 -0.000248
H	 -0.717284	 -1.412404	 -0.866059
H	 -0.717458	 -1.411724	 0.866967
H	 -2.086483	 0.712501	 -0.875098
H	 -2.908485	 -0.571682	 -0.000042
H	 -2.086576	 0.713280	 0.874068

	symmetry c1
}
set optking {
	frozen_dihedral = ("
		2 3 4 7
	")
}

ee = optimize('scf')
oeprop('DIPOLE', 'QUADRUPOLE', 'MULLIKEN_CHARGES')
f=open( 'psi4out.xyz', 'w' )
f.write( "11  " )
f.write( str(ee) + "\n" )
f.write( MOL.save_string_xyz() )
f.close()
--------------------------------------------------------------------------

    Molecular point group: c1
  Charge       = 0
  Multiplicity = 1
  Basis Set: 6-31G*
  Basis Set:
  @DF-RHF Final Energy:  -266.84352933923515
    Total Energy =                       -266.8435293392350331
    Molecular point group: c1
  Basis Set: 6-31G*
  Basis Set:
  Basis Set: 6-31G*
  Basis Set:
  @DF-RHF Final Energy:  -266.84372012906715
    Total Energy =                       -266.8437201290670941
  Basis Set: 6-31G*
  Basis Set:
  Basis Set: 6-31G*
  Basis Set:
  @DF-RHF Final Energy:  -266.84399275430047
    Total Energy =                       -266.8439927543005297
  Basis Set: 6-31G*
  Basis Set:
  Basis Set: 6-31G*
  Basis Set:
  @DF-RHF Final Energy:  -266.84406620902621
    Total Energy =                       -266.8440662090263800
  Basis Set: 6-31G*
  Basis Set:
  Basis Set: 6-31G*
  Basis Set:
  @DF-RHF Final Energy:  -266.84406705920298
    Total Energy =                       -266.8440670592028710
  Basis Set: 6-31G*
  Basis Set:
  Charge       = 0
  Multiplicity = 1
  Basis Set: 6-31G*
  Basis Set:

    Orbital Energies (a.u.)
    -----------------------

    Doubly Occupied:

       1A    -20.615226     2A    -20.549929     3A    -11.381873
       4A    -11.244094     5A    -11.226345     6A     -1.476102
       7A     -1.365558     8A     -1.066867     9A     -0.910012
      10A     -0.821536    11A     -0.701658    12A     -0.679859
      13A     -0.652270    14A     -0.603823    15A     -0.588641
      16A     -0.550384    17A     -0.525408    18A     -0.512165
      19A     -0.474868    20A     -0.440457

  @DF-RHF Final Energy:  -266.84406812626094

   => Energetics <=

    Nuclear Repulsion Energy =            180.0444206326661742
    One-Electron Energy =                -721.0028292234453602
    Two-Electron Energy =                 274.1143404645181363
    DFT Exchange-Correlation Energy =       0.0000000000000000
    Empirical Dispersion Energy =           0.0000000000000000
    PCM Polarization Energy =               0.0000000000000000
    EFP Energy =                            0.0000000000000000
    Total Energy =                       -266.8440681262610497
    Molecular point group: c1
  Basis Set: 6-31G*
  Basis Set:

  -Total Gradient:
     Atom            X                  Y                   Z
    ------   -----------------  -----------------  -----------------
       1       -0.000004363404    -0.000013636368    -0.000004963439
       2       -0.000265627524     0.000386307310    -0.000566176812
       3        0.000284770062    -0.000407399732     0.000659988523
       4        0.000387152068    -0.000564187626     0.000379437388
       5       -0.000005775583     0.000002231729     0.000003586449
       6        0.000002019156    -0.000009474863     0.000001950023
       7       -0.000381254286     0.000597738444    -0.000472893955
       8        0.000006481884    -0.000005412303    -0.000002834581
       9       -0.000005237108     0.000001374122     0.000004695635
      10       -0.000011445709     0.000008556854     0.000000649738
      11       -0.000006719552     0.000003902431    -0.000003438968

  **** Optimization is complete! (in 6 steps) ****
    Final optimized geometry and variables:
    Molecular point group: c1

    Geometry (in Angstrom), charge = 0, multiplicity = 1:

    H            1.301835883495     1.533309598773     0.650988840265
    O            0.462706208732     1.083963220540     0.682416438739
    C            0.565589630138    -0.026435486194    -0.045323783813
    C           -0.695626811611    -0.854698136388    -0.047528249701
    O            1.571199302449    -0.321015606106    -0.605482992533
    C           -1.995913437395    -0.050138781673    -0.045502199318
    H           -0.636775558332    -1.502133321055    -0.912419063067
    H           -0.649885261357    -1.490660259758     0.833087640930
    H           -2.055619570681     0.602527312625    -0.909938352297
    H           -2.844474074789    -0.724484920902    -0.078547745410
    H           -2.081308040786     0.561410267132     0.843199207053

  Mulliken Charges: (a.u.)
   Center  Symbol    Alpha    Beta     Spin     Total
       1     H     0.26719  0.26719  0.00000  0.46561
       2     O     4.34734  4.34734  0.00000 -0.69468
       3     C     2.62591  2.62591  0.00000  0.74818
       4     C     3.20710  3.20710  0.00000 -0.41419
       5     O     4.28079  4.28079  0.00000 -0.56159
       6     C     3.24476  3.24476  0.00000 -0.48952
       7     H     0.39523  0.39523  0.00000  0.20954
       8     H     0.39857  0.39857  0.00000  0.20286
       9     H     0.41380  0.41380  0.00000  0.17240
      10     H     0.41390  0.41390  0.00000  0.17220
      11     H     0.40541  0.40541  0.00000  0.18918

   Total alpha = 20.00000, Total beta = 20.00000, Total charge = -0.00000
