  ==> Input File <==

--------------------------------------------------------------------------
set {
	reference rhf
	basis 6-31G*
}

set_num_threads( 1 )
memory 2 gb

molecule MOL {
0 1

O	 0.074228	 1.262779	 -0.000085
C	 0.028650	 0.075053	 -0.000277
C	 -1.233602	 -0.752807	 0.000328
O	 1.109162	 -0.694619	 -0.000298
C	 -2.501530	 0.091881	 0.000126
H	 -1.193807	 -1.406641	 -0.865785
H	 -1.193516	 -1.405779	 0.867015
H	 -2.545121	 0.729328	 -0.874513
H	 -3.377167	 -0.548497	 0.000561
H	 -2.544818	 0.730135	 0.874258
C	 2.193234	 -0.280310	 -0.811917
H	 1.894266	 -0.231796	 -1.849066
H	 2.962707	 -1.024669	 -0.678856
H	 2.552416	 0.689784	 -0.499866

	symmetry c1
}
set optking {
	frozen_dihedral = ("
		4 2 3 6
	")
}

ee = energy('scf')
oeprop('DIPOLE', 'QUADRUPOLE', 'MULLIKEN_CHARGES')
f=open( 'psi4out.xyz', 'w' )
f.write( "14  " )
f.write( str(ee) + "\n" )
f.write( MOL.save_string_xyz() )
f.close()
--------------------------------------------------------------------------

    Molecular point group: c1

    Geometry (in Angstrom), charge = 0, multiplicity = 1:

       Center              X                  Y                   Z               Mass
    ------------   -----------------  -----------------  -----------------  -----------------
           O          0.104922798001     1.305866664554     0.145248168483    15.994914619560
           C          0.059344798001     0.118140664554     0.145056168483    12.000000000000
           C         -1.202907201999    -0.709719335446     0.145661168483    12.000000000000
           O          1.139856798001    -0.651531335446     0.145035168483    15.994914619560
           C         -2.470835201999     0.134968664554     0.145459168483    12.000000000000
           H         -1.163112201999    -1.363553335446    -0.720451831517     1.007825032070
           H         -1.162821201999    -1.362691335446     1.012348168483     1.007825032070
           H         -2.514426201999     0.772415664554    -0.729179831517     1.007825032070
           H         -3.346472201999    -0.505409335446     0.145894168483     1.007825032070
           H         -2.514123201999     0.773222664554     1.019591168483     1.007825032070
           C          2.223928798001    -0.237222335446    -0.666583831517    12.000000000000
           H          1.924960798001    -0.188708335446    -1.703732831517     1.007825032070
           H          2.993401798001    -0.981581335446    -0.533522831517     1.007825032070
           H          2.583110798001     0.732871664554    -0.354532831517     1.007825032070

  Charge       = 0
  Multiplicity = 1
  Basis Set: 6-31G*
  Basis Set:

    Orbital Energies (a.u.)
    -----------------------

    Doubly Occupied:

       1A    -20.596976     2A    -20.549452     3A    -11.373554
       4A    -11.285699     5A    -11.238984     6A    -11.216565
       7A     -1.467955     8A     -1.364607     9A     -1.063546
      10A     -0.980869    11A     -0.881495    12A     -0.769069
      13A     -0.700446    14A     -0.680919    15A     -0.672032
      16A     -0.620805    17A     -0.607429    18A     -0.550622
      19A     -0.539284    20A     -0.521908    21A     -0.510754
      22A     -0.495488    23A     -0.455634    24A     -0.437131

  @DF-RHF Final Energy:  -305.86366462598596

   => Energetics <=

    Nuclear Repulsion Energy =            247.0919983478874258
    One-Electron Energy =                -906.7488459666542440
    Two-Electron Energy =                 353.7931829927809986
    DFT Exchange-Correlation Energy =       0.0000000000000000
    Empirical Dispersion Energy =           0.0000000000000000
    PCM Polarization Energy =               0.0000000000000000
    EFP Energy =                            0.0000000000000000
    Total Energy =                       -305.8636646259858480

  Mulliken Charges: (a.u.)
   Center  Symbol    Alpha    Beta     Spin     Total
       1     O     4.27655  4.27655  0.00000 -0.55309
       2     C     2.60865  2.60865  0.00000  0.78270
       3     C     3.20648  3.20648  0.00000 -0.41296
       4     O     4.30814  4.30814  0.00000 -0.61629
       5     C     3.23961  3.23961  0.00000 -0.47922
       6     H     0.40322  0.40322  0.00000  0.19355
       7     H     0.39897  0.39897  0.00000  0.20205
       8     H     0.41073  0.41073  0.00000  0.17855
       9     H     0.41812  0.41812  0.00000  0.16376
      10     H     0.40916  0.40916  0.00000  0.18169
      11     C     3.09491  3.09491  0.00000 -0.18982
      12     H     0.41678  0.41678  0.00000  0.16644
      13     H     0.40635  0.40635  0.00000  0.18730
      14     H     0.40233  0.40233  0.00000  0.19533

   Total alpha = 24.00000, Total beta = 24.00000, Total charge =  0.00000
