  ==> Input File <==

--------------------------------------------------------------------------
set {
	reference rhf
	basis 6-31G*
}

set_num_threads( 4 )
memory 2 gb

molecule MOL {
0 1

H	 -0.490650	 1.875408	 0.353001
O	 0.055946	 1.300438	 -0.164479
C	 0.004957	 -0.004114	 0.366649
C	 1.201664	 -0.828089	 -0.095740
C	 -1.317755	 -0.601827	 -0.081511
H	 0.013527	 0.048298	 1.454924
H	 1.216388	 -0.895289	 -1.178704
H	 2.135132	 -0.372895	 0.226467
H	 1.166770	 -1.832878	 0.313827
H	 -1.355732	 -0.658248	 -1.164429
H	 -2.141614	 0.017037	 0.254547
H	 -1.447303	 -1.600817	 0.322594

	symmetry c1
}
set optking {
	frozen_dihedral = ("
		1 2 3 4
	")
}

ee = optimize('scf')
oeprop('DIPOLE', 'QUADRUPOLE', 'MULLIKEN_CHARGES')
f=open( 'psi4out.xyz', 'w' )
f.write( "12  " )
f.write( str(ee) + "\n" )
f.write( MOL.save_string_xyz() )
f.close()
--------------------------------------------------------------------------

    Molecular point group: c1
  Charge       = 0
  Multiplicity = 1
  Basis Set: 6-31G*
  Basis Set:
  @DF-RHF Final Energy:  -193.11308189089175
    Total Energy =                       -193.1130818908918627
    Molecular point group: c1
  Basis Set: 6-31G*
  Basis Set:
  Basis Set: 6-31G*
  Basis Set:
  @DF-RHF Final Energy:  -193.11458991624542
    Total Energy =                       -193.1145899162454214
  Basis Set: 6-31G*
  Basis Set:
  Basis Set: 6-31G*
  Basis Set:
  @DF-RHF Final Energy:  -193.11489030623605
    Total Energy =                       -193.1148903062360773
  Basis Set: 6-31G*
  Basis Set:
  Basis Set: 6-31G*
  Basis Set:
  @DF-RHF Final Energy:  -193.11489372470254
    Total Energy =                       -193.1148937247025117
  Basis Set: 6-31G*
  Basis Set:
  Basis Set: 6-31G*
  Basis Set:
  @DF-RHF Final Energy:  -193.11489479979221
    Total Energy =                       -193.1148947997921823
  Basis Set: 6-31G*
  Basis Set:
  Charge       = 0
  Multiplicity = 1
  Basis Set: 6-31G*
  Basis Set:

    Orbital Energies (a.u.)
    -----------------------

    Doubly Occupied:

       1A    -20.550804     2A    -11.275837     3A    -11.209947
       4A    -11.206370     5A     -1.359802     6A     -1.041094
       7A     -0.937842     8A     -0.799780     9A     -0.705466
      10A     -0.617738    11A     -0.601622    12A     -0.548516
      13A     -0.537659    14A     -0.525149    15A     -0.508166
      16A     -0.465628    17A     -0.429829

  @DF-RHF Final Energy:  -193.11489486702476

   => Energetics <=

    Nuclear Repulsion Energy =            135.4296821173066974
    One-Electron Energy =                -530.4466546355138235
    Two-Electron Energy =                 201.9020776511822817
    DFT Exchange-Correlation Energy =       0.0000000000000000
    Empirical Dispersion Energy =           0.0000000000000000
    PCM Polarization Energy =               0.0000000000000000
    EFP Energy =                            0.0000000000000000
    Total Energy =                       -193.1148948670248444
    Molecular point group: c1
  Basis Set: 6-31G*
  Basis Set:

  -Total Gradient:
     Atom            X                  Y                   Z
    ------   -----------------  -----------------  -----------------
       1        0.001216361497     0.000279981625     0.000986301617
       2       -0.001345301703    -0.000232327778    -0.000958064929
       3       -0.000364298956    -0.000288067017    -0.000842688973
       4        0.000489017804     0.000249991521     0.000809475172
       5        0.000004365893    -0.000004076244     0.000001774692
       6       -0.000002499537    -0.000005800992     0.000006330202
       7       -0.000004885766     0.000001806742    -0.000001786154
       8       -0.000001708104     0.000001133431    -0.000000549988
       9        0.000008641008    -0.000000220603    -0.000001925126
      10       -0.000000756515     0.000000315964     0.000001153234
      11        0.000005368682    -0.000000329652    -0.000000915447
      12       -0.000004304304    -0.000002406999     0.000000895701

  **** Optimization is complete! (in 6 steps) ****
    Final optimized geometry and variables:
    Molecular point group: c1

    Geometry (in Angstrom), charge = 0, multiplicity = 1:

    H           -0.392930609274     1.898878682467     0.324440600840
    O            0.142565898366     1.292882430837    -0.167527477975
    C           -0.001784243233    -0.006940077393     0.361983625565
    C            1.204292499115    -0.806895703868    -0.100915253584
    C           -1.322742315516    -0.624289252862    -0.082140582086
    H            0.015241648501     0.042990229038     1.450066619114
    H            1.231205206611    -0.850601671892    -1.184945161944
    H            2.119123381070    -0.337448480199     0.241506145417
    H            1.168091931060    -1.821051977057     0.284329086654
    H           -1.362325957769    -0.685266789836    -1.164711599938
    H           -2.162441932531    -0.020338665642     0.250984434232
    H           -1.446981582250    -1.622635318885     0.326649981761

  Mulliken Charges: (a.u.)
   Center  Symbol    Alpha    Beta     Spin     Total
       1     H     0.28191  0.28191  0.00000  0.43619
       2     O     4.37174  4.37174  0.00000 -0.74348
       3     C     2.92229  2.92229  0.00000  0.15541
       4     C     3.23856  3.23856  0.00000 -0.47713
       5     C     3.24235  3.24235  0.00000 -0.48471
       6     H     0.43109  0.43109  0.00000  0.13782
       7     H     0.41480  0.41480  0.00000  0.17041
       8     H     0.41275  0.41275  0.00000  0.17450
       9     H     0.42349  0.42349  0.00000  0.15302
      10     H     0.41401  0.41401  0.00000  0.17198
      11     H     0.42440  0.42440  0.00000  0.15120
      12     H     0.42261  0.42261  0.00000  0.15478

   Total alpha = 17.00000, Total beta = 17.00000, Total charge =  0.00000
