  ==> Input File <==

--------------------------------------------------------------------------
set {
	reference rhf
	basis 6-31G*
}

set_num_threads( 1 )
memory 2 gb

molecule MOL {
0 1

O	 0.915421	 4.411924	 -0.442951
C	 -0.157415	 4.872914	 -0.686406
C	 -1.420760	 4.030978	 -0.679983
C	 -0.328156	 6.340725	 -1.020370
C	 -1.187391	 2.562202	 -0.338709
H	 -2.119014	 4.483309	 0.023030
H	 -1.891577	 4.129051	 -1.657283
C	 -2.481556	 1.746794	 -0.341757
H	 -0.710561	 2.494424	 0.634003
H	 -0.483060	 2.139650	 -1.048298
C	 -2.259874	 0.272531	 0.000494
H	 -3.184600	 2.178049	 0.369436
H	 -2.955365	 1.820447	 -1.319586
C	 -3.549786	 -0.549746	 -0.000374
H	 -1.786914	 0.197673	 0.978106
H	 -1.557896	 -0.159841	 -0.710334
C	 -4.809590	 0.315458	 -0.000369
H	 -3.560515	 -1.202009	 -0.871156
H	 -3.561123	 -1.202955	 0.869711
H	 -4.844746	 0.956611	 -0.876632
H	 -5.706986	 -0.295590	 -0.001609
H	 -4.845960	 0.954827	 0.877144
H	 -1.000759	 6.814931	 -0.311601
H	 0.632773	 6.835372	 -0.992548
H	 -0.766696	 6.455988	 -2.007301

	symmetry c1
}
set optking {
	frozen_dihedral = ("
		9 5 8 12,
		15 11 8 12,
		1 2 3 6,
		9 5 3 6
	")
}

ee = energy('scf')
oeprop('DIPOLE', 'QUADRUPOLE', 'MULLIKEN_CHARGES')
f=open( 'psi4out.xyz', 'w' )
f.write( "25  " )
f.write( str(ee) + "\n" )
f.write( MOL.save_string_xyz() )
f.close()
--------------------------------------------------------------------------

    Molecular point group: c1

    Geometry (in Angstrom), charge = 0, multiplicity = 1:

       Center              X                  Y                   Z               Mass
    ------------   -----------------  -----------------  -----------------  -----------------
           O          2.619566279879     1.738206824410    -0.052794691983    15.994914619560
           C          1.546730279879     2.199196824410    -0.296249691983    12.000000000000
           C          0.283385279879     1.357260824410    -0.289826691983    12.000000000000
           C          1.375989279879     3.667007824410    -0.630213691983    12.000000000000
           C          0.516754279879    -0.111515175590     0.051447308017    12.000000000000
           H         -0.414868720121     1.809591824410     0.413186308017     1.007825032070
           H         -0.187431720121     1.455333824410    -1.267126691983     1.007825032070
           C         -0.777410720121    -0.926923175590     0.048399308017    12.000000000000
           H          0.993584279879    -0.179293175590     1.024159308017     1.007825032070
           H          1.221085279879    -0.534067175590    -0.658141691983     1.007825032070
           C         -0.555728720121    -2.401186175590     0.390650308017    12.000000000000
           H         -1.480454720121    -0.495668175590     0.759592308017     1.007825032070
           H         -1.251219720121    -0.853270175590    -0.929429691983     1.007825032070
           C         -1.845640720121    -3.223463175590     0.389782308017    12.000000000000
           H         -0.082768720121    -2.476044175590     1.368262308017     1.007825032070
           H          0.146249279879    -2.833558175590    -0.320177691983     1.007825032070
           C         -3.105444720121    -2.358259175590     0.389787308017    12.000000000000
           H         -1.856369720121    -3.875726175590    -0.480999691983     1.007825032070
           H         -1.856977720121    -3.876672175590     1.259867308017     1.007825032070
           H         -3.140600720121    -1.717106175590    -0.486475691983     1.007825032070
           H         -4.002840720121    -2.969307175590     0.388547308017     1.007825032070
           H         -3.141814720121    -1.718890175590     1.267300308017     1.007825032070
           H          0.703386279879     4.141213824410     0.078555308017     1.007825032070
           H          2.336918279879     4.161654824410    -0.602391691983     1.007825032070
           H          0.937449279879     3.782270824410    -1.617144691983     1.007825032070

  Charge       = 0
  Multiplicity = 1
  Basis Set: 6-31G*
  Basis Set:

    Orbital Energies (a.u.)
    -----------------------

    Doubly Occupied:

       1A    -20.550129     2A    -11.325966     3A    -11.231394
       4A    -11.228133     5A    -11.215750     6A    -11.215047
       7A    -11.214152     8A    -11.212179     9A    -11.208027
      10A     -1.395429    11A     -1.095674    12A     -1.056864
      13A     -1.011985    14A     -0.963234    15A     -0.899437
      16A     -0.829678    17A     -0.768242    18A     -0.728848
      19A     -0.661917    20A     -0.652149    21A     -0.631445
      22A     -0.624334    23A     -0.602220    24A     -0.592916
      25A     -0.557681    26A     -0.555448    27A     -0.551083
      28A     -0.525325    29A     -0.510936    30A     -0.491978
      31A     -0.490116    32A     -0.478333    33A     -0.459461
      34A     -0.452110    35A     -0.444499    36A     -0.399192

  @DF-RHF Final Energy:  -387.12385325108750

   => Energetics <=

    Nuclear Repulsion Energy =            446.6428159463071665
    One-Electron Energy =               -1409.8706720829700316
    Two-Electron Energy =                 576.1040028855761648
    DFT Exchange-Correlation Energy =       0.0000000000000000
    Empirical Dispersion Energy =           0.0000000000000000
    PCM Polarization Energy =               0.0000000000000000
    EFP Energy =                            0.0000000000000000
    Total Energy =                       -387.1238532510867572

  Mulliken Charges: (a.u.)
   Center  Symbol    Alpha    Beta     Spin     Total
       1     O     4.26122  4.26122  0.00000 -0.52245
       2     C     2.73568  2.73568  0.00000  0.52864
       3     C     3.21073  3.21073  0.00000 -0.42146
       4     C     3.28659  3.28659  0.00000 -0.57319
       5     C     3.14558  3.14558  0.00000 -0.29117
       6     H     0.41027  0.41027  0.00000  0.17947
       7     H     0.41034  0.41034  0.00000  0.17932
       8     C     3.16085  3.16085  0.00000 -0.32170
       9     H     0.41264  0.41264  0.00000  0.17472
      10     H     0.41271  0.41271  0.00000  0.17457
      11     C     3.15450  3.15450  0.00000 -0.30901
      12     H     0.42150  0.42150  0.00000  0.15701
      13     H     0.42383  0.42383  0.00000  0.15235
      14     C     3.15414  3.15414  0.00000 -0.30828
      15     H     0.42042  0.42042  0.00000  0.15916
      16     H     0.41941  0.41941  0.00000  0.16118
      17     C     3.24588  3.24588  0.00000 -0.49176
      18     H     0.42079  0.42079  0.00000  0.15842
      19     H     0.41962  0.41962  0.00000  0.16076
      20     H     0.41993  0.41993  0.00000  0.16014
      21     H     0.41807  0.41807  0.00000  0.16387
      22     H     0.42124  0.42124  0.00000  0.15752
      23     H     0.40879  0.40879  0.00000  0.18241
      24     H     0.39652  0.39652  0.00000  0.20697
      25     H     0.40876  0.40876  0.00000  0.18249

   Total alpha = 36.00000, Total beta = 36.00000, Total charge =  0.00000
