  ==> Input File <==

--------------------------------------------------------------------------
set {
	reference rhf
	basis 6-31G*
}

set_num_threads( 1 )
memory 2 gb

molecule MOL {
0 1

O	 3.225979	 0.970355	 -0.599647
C	 2.701189	 0.057885	 -0.047330
C	 1.245376	 -0.013843	 0.345420
O	 3.347903	 -1.046386	 0.304773
C	 0.455112	 1.231400	 -0.050772
H	 0.838542	 -0.913825	 -0.103701
H	 1.208210	 -0.175333	 1.419774
C	 -0.998893	 1.219485	 0.433193
H	 0.482531	 1.345121	 -1.130325
H	 0.957290	 2.103070	 0.354729
C	 -1.883438	 0.145884	 -0.207175
H	 -1.431207	 2.195402	 0.224832
H	 -1.019646	 1.105716	 1.516076
C	 -3.347647	 0.245583	 0.225435
H	 -1.822183	 0.231698	 -1.291012
H	 -1.510341	 -0.844814	 0.042401
C	 -4.076721	 1.448575	 -0.375725
H	 -3.398892	 0.301369	 1.311481
H	 -3.869504	 -0.667482	 -0.056839
C	 -5.537262	 1.543009	 0.064278
H	 -3.555979	 2.361770	 -0.095466
H	 -4.030338	 1.392295	 -1.461294
H	 -6.026815	 2.405148	 -0.378057
H	 -5.616250	 1.635672	 1.143801
H	 -6.094016	 0.658426	 -0.232052
C	 4.728119	 -1.109107	 -0.004993
H	 4.882018	 -1.033965	 -1.071845
H	 5.068212	 -2.067527	 0.355250
H	 5.265056	 -0.311663	 0.488280

	symmetry c1
}
set optking {
	frozen_dihedral = ("
		21 17 14 11,
		15 11 8 5,
		6 3 5 9,
		11 8 5 9,
		2 4 26 27,
		1 2 4 26,
		6 3 2 1
	")
}

ee = energy('scf')
oeprop('DIPOLE', 'QUADRUPOLE', 'MULLIKEN_CHARGES')
f=open( 'psi4out.xyz', 'w' )
f.write( "29  " )
f.write( str(ee) + "\n" )
f.write( MOL.save_string_xyz() )
f.close()
--------------------------------------------------------------------------

    Molecular point group: c1

    Geometry (in Angstrom), charge = 0, multiplicity = 1:

       Center              X                  Y                   Z               Mass
    ------------   -----------------  -----------------  -----------------  -----------------
           O          3.195931415197     0.554196108695    -0.605437321897    15.994914619560
           C          2.671141415197    -0.358273891305    -0.053120321897    12.000000000000
           C          1.215328415197    -0.430001891305     0.339629678103    12.000000000000
           O          3.317855415197    -1.462544891305     0.298982678103    15.994914619560
           C          0.425064415197     0.815241108695    -0.056562321897    12.000000000000
           H          0.808494415197    -1.329983891305    -0.109491321897     1.007825032070
           H          1.178162415197    -0.591491891305     1.413983678103     1.007825032070
           C         -1.028940584803     0.803326108695     0.427402678103    12.000000000000
           H          0.452483415197     0.928962108695    -1.136115321897     1.007825032070
           H          0.927242415197     1.686911108695     0.348938678103     1.007825032070
           C         -1.913485584803    -0.270274891305    -0.212965321897    12.000000000000
           H         -1.461254584803     1.779243108695     0.219041678103     1.007825032070
           H         -1.049693584803     0.689557108695     1.510285678103     1.007825032070
           C         -3.377694584803    -0.170575891305     0.219644678103    12.000000000000
           H         -1.852230584803    -0.184460891305    -1.296802321897     1.007825032070
           H         -1.540388584803    -1.260972891305     0.036610678103     1.007825032070
           C         -4.106768584803     1.032416108695    -0.381515321897    12.000000000000
           H         -3.428939584803    -0.114789891305     1.305690678103     1.007825032070
           H         -3.899551584803    -1.083640891305    -0.062629321897     1.007825032070
           C         -5.567309584803     1.126850108695     0.058487678103    12.000000000000
           H         -3.586026584803     1.945611108695    -0.101256321897     1.007825032070
           H         -4.060385584803     0.976136108695    -1.467084321897     1.007825032070
           H         -6.056862584803     1.988989108695    -0.383847321897     1.007825032070
           H         -5.646297584803     1.219513108695     1.138010678103     1.007825032070
           H         -6.124063584803     0.242267108695    -0.237842321897     1.007825032070
           C          4.698071415197    -1.525265891305    -0.010783321897    12.000000000000
           H          4.851970415197    -1.450123891305    -1.077635321897     1.007825032070
           H          5.038164415197    -2.483685891305     0.349459678103     1.007825032070
           H          5.235008415197    -0.727821891305     0.482489678103     1.007825032070

  Charge       = 0
  Multiplicity = 1
  Basis Set: 6-31G*
  Basis Set:

    Orbital Energies (a.u.)
    -----------------------

    Doubly Occupied:

       1A    -20.603301     2A    -20.545159     3A    -11.371943
       4A    -11.280583     5A    -11.234632     6A    -11.218961
       7A    -11.217041     8A    -11.215739     9A    -11.215024
      10A    -11.214193    11A    -11.208717    12A     -1.469008
      13A     -1.362454    14A     -1.099054    15A     -1.066353
      16A     -1.017570    17A     -0.977112    18A     -0.928650
      19A     -0.861742    20A     -0.812347    21A     -0.779339
      22A     -0.763100    23A     -0.700932    24A     -0.682119
      25A     -0.671901    26A     -0.634888    27A     -0.630424
      28A     -0.617559    29A     -0.594717    30A     -0.580439
      31A     -0.563781    32A     -0.556393    33A     -0.538458
      34A     -0.526480    35A     -0.522839    36A     -0.498858
      37A     -0.493686    38A     -0.486950    39A     -0.471512
      40A     -0.462072    41A     -0.455972    42A     -0.447165
      43A     -0.441913    44A     -0.437040

  @DF-RHF Final Energy:  -501.04179243557212

   => Energetics <=

    Nuclear Repulsion Energy =            614.0677941172813235
    One-Electron Energy =               -1899.2631395056953352
    Two-Electron Energy =                 784.1535529528422330
    DFT Exchange-Correlation Energy =       0.0000000000000000
    Empirical Dispersion Energy =           0.0000000000000000
    PCM Polarization Energy =               0.0000000000000000
    EFP Energy =                            0.0000000000000000
    Total Energy =                       -501.0417924355716650

  Mulliken Charges: (a.u.)
   Center  Symbol    Alpha    Beta     Spin     Total
       1     O     4.28600  4.28600  0.00000 -0.57199
       2     C     2.60478  2.60478  0.00000  0.79043
       3     C     3.20979  3.20979  0.00000 -0.41958
       4     O     4.30747  4.30747  0.00000 -0.61493
       5     C     3.15303  3.15303  0.00000 -0.30606
       6     H     0.39890  0.39890  0.00000  0.20221
       7     H     0.40126  0.40126  0.00000  0.19748
       8     C     3.15931  3.15931  0.00000 -0.31862
       9     H     0.41311  0.41311  0.00000  0.17379
      10     H     0.40895  0.40895  0.00000  0.18211
      11     C     3.15700  3.15700  0.00000 -0.31400
      12     H     0.41613  0.41613  0.00000  0.16775
      13     H     0.42396  0.42396  0.00000  0.15208
      14     C     3.15228  3.15228  0.00000 -0.30456
      15     H     0.42266  0.42266  0.00000  0.15468
      16     H     0.42132  0.42132  0.00000  0.15736
      17     C     3.15403  3.15403  0.00000 -0.30805
      18     H     0.42394  0.42394  0.00000  0.15212
      19     H     0.42135  0.42135  0.00000  0.15730
      20     C     3.23873  3.23873  0.00000 -0.47747
      21     H     0.42114  0.42114  0.00000  0.15771
      22     H     0.42275  0.42275  0.00000  0.15450
      23     H     0.41921  0.41921  0.00000  0.16158
      24     H     0.42187  0.42187  0.00000  0.15627
      25     H     0.42188  0.42188  0.00000  0.15623
      26     C     3.09240  3.09240  0.00000 -0.18479
      27     H     0.40910  0.40910  0.00000  0.18180
      28     H     0.40853  0.40853  0.00000  0.18294
      29     H     0.40915  0.40915  0.00000  0.18171

   Total alpha = 44.00000, Total beta = 44.00000, Total charge =  0.00000
