                              Psi4 1.0.54 Driver

  ==> Input File <==

--------------------------------------------------------------------------
set {
	reference rhf
	basis cc-pvtz
}

set_num_threads( 4 )
memory 2 gb

molecule MOL {
0 1

H	 -4.230259	 0.539112	 0.036360
O	 -3.515113	 -0.019339	 -0.206321
C	 -2.302264	 0.528872	 0.237390
C	 -1.175688	 -0.398187	 -0.171891
H	 -2.148018	 1.514076	 -0.197759
H	 -2.310727	 0.646384	 1.319032
C	 0.196029	 0.106276	 0.266738
H	 -1.201873	 -0.515469	 -1.250677
H	 -1.365975	 -1.378728	 0.252664
C	 1.330220	 -0.826136	 -0.155230
H	 0.359542	 1.097229	 -0.145561
H	 0.212134	 0.218135	 1.348778
C	 2.719700	 -0.407669	 0.328325
H	 1.339388	 -0.911200	 -1.239363
H	 1.119001	 -1.821953	 0.224128
C	 2.862926	 1.077648	 0.651865
H	 3.441774	 -0.666880	 -0.439872
H	 2.986394	 -0.994405	 1.203568
H	 2.595861	 1.689905	 -0.203634
H	 2.232412	 1.375436	 1.480998
H	 3.885940	 1.315497	 0.920271

	symmetry c1
}
set optking {
	frozen_dihedral = ("
		16 13 10 14
	")
}

ee,wfn = optimize('scf', return_wfn=True)
oeprop( wfn, 'DIPOLE', 'QUADRUPOLE', 'MULLIKEN_CHARGES')
f=open( 'psi4out.xyz', 'w' )
f.write( "21  " )
f.write( str(ee) + "\n" )
f.write( MOL.save_string_xyz() )
f.close()
--------------------------------------------------------------------------

    Molecular point group: c1
  Charge       = 0
  Multiplicity = 1
  Basis Set: CC-PVTZ
  Basis Set:
  @DF-RHF Final Energy:  -310.32608515322488
    Total Energy =                       -310.3260851532245397
    Molecular point group: c1
  Basis Set: CC-PVTZ
  Basis Set:
  Basis Set: CC-PVTZ
  Basis Set:
  @DF-RHF Final Energy:  -310.32648872058758
    Total Energy =                       -310.3264887205876335
  Basis Set: CC-PVTZ
  Basis Set:
  Basis Set: CC-PVTZ
  Basis Set:
  @DF-RHF Final Energy:  -310.32738304680464
    Total Energy =                       -310.3273830468044707
  Basis Set: CC-PVTZ
  Basis Set:
  Basis Set: CC-PVTZ
  Basis Set:
  @DF-RHF Final Energy:  -310.32741094460403
    Total Energy =                       -310.3274109446042530
  Basis Set: CC-PVTZ
  Basis Set:
  Basis Set: CC-PVTZ
  Basis Set:
  @DF-RHF Final Energy:  -310.32741360388451
    Total Energy =                       -310.3274136038845086
  Basis Set: CC-PVTZ
  Basis Set:
  Basis Set: CC-PVTZ
  Basis Set:
  @DF-RHF Final Energy:  -310.32741569263766
    Total Energy =                       -310.3274156926377145
  Basis Set: CC-PVTZ
  Basis Set:
  Charge       = 0
  Multiplicity = 1
  Basis Set: CC-PVTZ
  Basis Set:

    Orbital Energies (a.u.)
    -----------------------

    Doubly Occupied:

       1A    -20.545401     2A    -11.264966     3A    -11.213587
       4A    -11.213305     5A    -11.211214     6A    -11.208896
       7A    -11.206070     8A     -1.363239     9A     -1.085808
      10A     -1.032797    11A     -0.955050    12A     -0.879995
      13A     -0.809744    14A     -0.772930    15A     -0.695784
      16A     -0.663854    17A     -0.628716    18A     -0.599526
      19A     -0.586029    20A     -0.576224    21A     -0.534691
      22A     -0.526032    23A     -0.508070    24A     -0.486800
      25A     -0.485604    26A     -0.458344    27A     -0.447753
      28A     -0.445754    29A     -0.437182

  @DF-RHF Final Energy:  -310.32741569103450

   => Energetics <=

    Nuclear Repulsion Energy =            313.6211610920131534
    One-Electron Energy =               -1042.2104260234837056
    Two-Electron Energy =                 418.2618492404361632
    DFT Exchange-Correlation Energy =       0.0000000000000000
    Empirical Dispersion Energy =           0.0000000000000000
    PCM Polarization Energy =               0.0000000000000000
    EFP Energy =                            0.0000000000000000
    Total Energy =                       -310.3274156910343891
    Molecular point group: c1
  Basis Set: CC-PVTZ
  Basis Set:

  -Total Gradient:
     Atom            X                  Y                   Z
    ------   -----------------  -----------------  -----------------
       1        0.000000741504     0.000002240906     0.000001374465
       2        0.000005578988    -0.000006105721    -0.000004099028
       3        0.000007169959     0.000007506230    -0.000002984570
       4       -0.000000047743     0.000006808480    -0.000012197207
       5       -0.000002045898     0.000003012603    -0.000000361675
       6        0.000002182222    -0.000001643535     0.000000222883
       7       -0.000011819171    -0.000011001935     0.000040265283
       8       -0.000006302510    -0.000004648889    -0.000008309823
       9        0.000002364570     0.000000938584     0.000003944119
      10       -0.002249461071     0.006924039143     0.001060310682
      11        0.000012205614     0.000015825999     0.000003307566
      12       -0.000012183724    -0.000007091011    -0.000001139576
      13        0.002153132918    -0.000487385668    -0.006059170201
      14        0.001366003632    -0.005833432294     0.000663320497
      15        0.000016010691     0.000004274874     0.000010746202
      16       -0.001293896413    -0.000603793493     0.004298340110
      17        0.000006335066    -0.000010759876    -0.000002277646
      18       -0.000003957575     0.000010432834     0.000001870165
      19       -0.000005052635    -0.000022290714     0.000015925307
      20        0.000014278471     0.000014678516    -0.000002331121
      21       -0.000001236896    -0.000001605031    -0.000006756433

  **** Optimization is complete! (in 7 steps) ****
    Final optimized geometry and variables:
    Molecular point group: c1

    Geometry (in Angstrom), charge = 0, multiplicity = 1:

    H           -4.207872241888     0.463813095429    -0.129717325323
    O           -3.480519916361    -0.078892539951    -0.371690069591
    C           -2.282928235053     0.480535652532     0.098628497878
    C           -1.135981727598    -0.420958629613    -0.311345627958
    H           -2.138817165448     1.475744038102    -0.316730730317
    H           -2.308224610022     0.578409648564     1.181967140117
    C            0.220837446672     0.098680768488     0.154946845698
    H           -1.145527698732    -0.519357344077    -1.392222212532
    H           -1.316024254674    -1.411745918525     0.093254321624
    C            1.366814560820    -0.815200192224    -0.269316908833
    H            0.375451602611     1.098046431275    -0.239239999062
    H            0.215552098868     0.193926828724     1.238103569891
    C            2.784296659792    -0.429292414013     0.206014595967
    H            1.366827366107    -0.938911617260    -1.348625721117
    H            1.155840042059    -1.812098008084     0.108410420100
    C            3.030087835676     1.051381427523     0.491390025293
    H            3.504852080519    -0.778166363748    -0.525189063464
    H            3.002422628583    -0.974890804665     1.119376496421
    H            2.850136573365     1.668893328200    -0.382630943029
    H            2.397492194659     1.416774682694     1.290356208015
    H            4.059862866776     1.206637175011     0.792572797611

  Mulliken Charges: (a.u.)
   Center  Symbol    Alpha    Beta     Spin     Total
       1     H     0.39766  0.39766  0.00000  0.20467
       2     O     4.19405  4.19405  0.00000 -0.38809
       3     C     2.96325  2.96325  0.00000  0.07350
       4     C     3.08480  3.08480  0.00000 -0.16960
       5     H     0.47497  0.47497  0.00000  0.05007
       6     H     0.47514  0.47514  0.00000  0.04973
       7     C     3.10401  3.10401  0.00000 -0.20802
       8     H     0.45096  0.45096  0.00000  0.09807
       9     H     0.45044  0.45044  0.00000  0.09912
      10     C     3.09562  3.09562  0.00000 -0.19123
      11     H     0.45166  0.45166  0.00000  0.09668
      12     H     0.45404  0.45404  0.00000  0.09193
      13     C     3.08775  3.08775  0.00000 -0.17550
      14     H     0.45141  0.45141  0.00000  0.09718
      15     H     0.45206  0.45206  0.00000  0.09588
      16     C     3.15721  3.15721  0.00000 -0.31441
      17     H     0.44965  0.44965  0.00000  0.10071
      18     H     0.45403  0.45403  0.00000  0.09195
      19     H     0.45395  0.45395  0.00000  0.09210
      20     H     0.45236  0.45236  0.00000  0.09528
      21     H     0.44499  0.44499  0.00000  0.11001

   Total alpha = 29.00000, Total beta = 29.00000, Total charge = -0.00000

*** Psi4 exiting successfully. Buy a developer a beer!
