  ==> Input File <==

--------------------------------------------------------------------------
set {
	reference rhf
	basis 6-31G*
}

set_num_threads( 1 )
memory 2 gb

molecule MOL {
0 1

H	 -3.420663	 1.227371	 -1.044276
O	 -3.452007	 0.283848	 -0.965577
C	 -3.181085	 -0.079926	 0.364119
C	 -1.765924	 0.277073	 0.805136
H	 -3.327791	 -1.152017	 0.410903
H	 -3.905698	 0.375695	 1.036898
C	 -0.677594	 -0.417312	 -0.014550
H	 -1.637766	 1.358238	 0.744969
H	 -1.659588	 0.017670	 1.857098
C	 0.738335	 -0.034840	 0.421385
H	 -0.814977	 -0.178223	 -1.064632
H	 -0.802730	 -1.495410	 0.071702
C	 1.822265	 -0.738362	 -0.399735
H	 0.853533	 1.043532	 0.342250
H	 0.871597	 -0.279636	 1.474438
C	 2.493592	 0.139641	 -1.462084
H	 1.395940	 -1.618183	 -0.879170
H	 2.589276	 -1.105651	 0.278946
C	 1.568871	 0.583806	 -2.596992
H	 3.327315	 -0.412907	 -1.888565
H	 2.924971	 1.016651	 -0.983577
H	 1.112831	 -0.272772	 -3.086320
H	 2.121251	 1.137711	 -3.349921
H	 0.769831	 1.226440	 -2.242424

	symmetry c1
}
set optking {
	frozen_dihedral = ("
		20 16 13 17,
		13 10 7 11,
		11 7 4 3,
		1 2 3 5,
		7 4 3 2
	")
}

ee = energy('scf')
oeprop('DIPOLE', 'QUADRUPOLE', 'MULLIKEN_CHARGES')
f=open( 'psi4out.xyz', 'w' )
f.write( "24  " )
f.write( str(ee) + "\n" )
f.write( MOL.save_string_xyz() )
f.close()
--------------------------------------------------------------------------

    Molecular point group: c1

    Geometry (in Angstrom), charge = 0, multiplicity = 1:

       Center              X                  Y                   Z               Mass
    ------------   -----------------  -----------------  -----------------  -----------------
           H         -3.051798432078     1.208454844657    -0.541143773275     1.007825032070
           O         -3.083142432078     0.264931844657    -0.462444773275    15.994914619560
           C         -2.812220432078    -0.098842155343     0.867251226725    12.000000000000
           C         -1.397059432078     0.258156844657     1.308268226725    12.000000000000
           H         -2.958926432078    -1.170933155343     0.914035226725     1.007825032070
           H         -3.536833432078     0.356778844657     1.540030226725     1.007825032070
           C         -0.308729432078    -0.436228155343     0.488582226725    12.000000000000
           H         -1.268901432078     1.339321844657     1.248101226725     1.007825032070
           H         -1.290723432078    -0.001246155343     2.360230226725     1.007825032070
           C          1.107199567922    -0.053756155343     0.924517226725    12.000000000000
           H         -0.446112432078    -0.197139155343    -0.561499773275     1.007825032070
           H         -0.433865432078    -1.514326155343     0.574834226725     1.007825032070
           C          2.191129567922    -0.757278155343     0.103397226725    12.000000000000
           H          1.222397567922     1.024615844657     0.845382226725     1.007825032070
           H          1.240461567922    -0.298552155343     1.977570226725     1.007825032070
           C          2.862456567922     0.120724844657    -0.958951773275    12.000000000000
           H          1.764804567922    -1.637099155343    -0.376037773275     1.007825032070
           H          2.958140567922    -1.124567155343     0.782078226725     1.007825032070
           C          1.937735567922     0.564889844657    -2.093859773275    12.000000000000
           H          3.696179567922    -0.431823155343    -1.385432773275     1.007825032070
           H          3.293835567922     0.997734844657    -0.480444773275     1.007825032070
           H          1.481695567922    -0.291688155343    -2.583187773275     1.007825032070
           H          2.490115567922     1.118794844657    -2.846788773275     1.007825032070
           H          1.138695567922     1.207523844657    -1.739291773275     1.007825032070

  Charge       = 0
  Multiplicity = 1
  Basis Set: 6-31G*
  Basis Set:

    Orbital Energies (a.u.)
    -----------------------

    Doubly Occupied:

       1A    -20.553444     2A    -11.267429     3A    -11.216693
       4A    -11.213666     5A    -11.211409     6A    -11.210320
       7A    -11.210119     8A    -11.206653     9A     -1.360009
      10A     -1.089206    11A     -1.046510    12A     -0.984516
      13A     -0.916976    14A     -0.849244    15A     -0.800782
      16A     -0.775588    17A     -0.679235    18A     -0.653578
      19A     -0.624225    20A     -0.616360    21A     -0.598674
      22A     -0.582185    23A     -0.562350    24A     -0.532247
      25A     -0.525550    26A     -0.508662    27A     -0.492922
      28A     -0.478406    29A     -0.467130    30A     -0.460163
      31A     -0.454300    32A     -0.443610    33A     -0.417810

  @DF-RHF Final Energy:  -349.24260211823577

   => Energetics <=

    Nuclear Repulsion Energy =            393.4911639906512733
    One-Electron Energy =               -1253.4474743481409860
    Two-Electron Energy =                 510.7137082392540606
    DFT Exchange-Correlation Energy =       0.0000000000000000
    Empirical Dispersion Energy =           0.0000000000000000
    PCM Polarization Energy =               0.0000000000000000
    EFP Energy =                            0.0000000000000000
    Total Energy =                       -349.2426021182355953

  Mulliken Charges: (a.u.)
   Center  Symbol    Alpha    Beta     Spin     Total
       1     H     0.28343  0.28343  0.00000  0.43314
       2     O     4.36826  4.36826  0.00000 -0.73652
       3     C     2.99611  2.99611  0.00000  0.00777
       4     C     3.16930  3.16930  0.00000 -0.33859
       5     H     0.41644  0.41644  0.00000  0.16712
       6     H     0.42832  0.42832  0.00000  0.14337
       7     C     3.15601  3.15601  0.00000 -0.31202
       8     H     0.42870  0.42870  0.00000  0.14261
       9     H     0.42246  0.42246  0.00000  0.15507
      10     C     3.15567  3.15567  0.00000 -0.31134
      11     H     0.40883  0.40883  0.00000  0.18235
      12     H     0.42319  0.42319  0.00000  0.15361
      13     C     3.15586  3.15586  0.00000 -0.31171
      14     H     0.42296  0.42296  0.00000  0.15409
      15     H     0.42203  0.42203  0.00000  0.15594
      16     C     3.15217  3.15217  0.00000 -0.30434
      17     H     0.42101  0.42101  0.00000  0.15798
      18     H     0.42058  0.42058  0.00000  0.15885
      19     C     3.24112  3.24112  0.00000 -0.48223
      20     H     0.42202  0.42202  0.00000  0.15595
      21     H     0.42384  0.42384  0.00000  0.15232
      22     H     0.42036  0.42036  0.00000  0.15928
      23     H     0.41973  0.41973  0.00000  0.16055
      24     H     0.42162  0.42162  0.00000  0.15676

   Total alpha = 33.00000, Total beta = 33.00000, Total charge =  0.00000
