  ==> Input File <==

--------------------------------------------------------------------------
set {
	reference rhf
	basis 6-31G*
}

set_num_threads( 1 )
memory 2 gb

molecule MOL {
0 1

O	 -0.164370	 -2.042397	 -2.312722
C	 -0.536708	 -0.926779	 -2.109755
C	 -0.889235	 -0.467034	 -0.705952
C	 -0.645261	 0.089188	 -3.224835
C	 0.379448	 -0.143569	 0.099626
H	 -1.429515	 -1.273272	 -0.221821
H	 -1.539025	 0.402798	 -0.740472
C	 1.631333	 -0.777471	 -0.511575
H	 0.482768	 0.934507	 0.149241
H	 0.263088	 -0.495696	 1.123449
C	 2.915987	 -0.544314	 0.291766
H	 1.766672	 -0.399098	 -1.523130
H	 1.471257	 -1.849544	 -0.605828
C	 3.373361	 0.914346	 0.347591
H	 3.708709	 -1.142521	 -0.150311
H	 2.780642	 -0.921148	 1.303579
H	 3.506512	 1.320010	 -0.651625
H	 4.322697	 0.999599	 0.867103
H	 2.660624	 1.545032	 0.868198
H	 -1.688117	 0.355164	 -3.376404
H	 -0.242857	 -0.321484	 -4.140370
H	 -0.116529	 1.002024	 -2.966036

	symmetry c1
}
set optking {
	frozen_dihedral = ("
		6 3 2 1,
		3 5 8 12,
		12 8 11 15
	")
}

ee = energy('scf')
oeprop('DIPOLE', 'QUADRUPOLE', 'MULLIKEN_CHARGES')
f=open( 'psi4out.xyz', 'w' )
f.write( "22  " )
f.write( str(ee) + "\n" )
f.write( MOL.save_string_xyz() )
f.close()
--------------------------------------------------------------------------

    Molecular point group: c1

    Geometry (in Angstrom), charge = 0, multiplicity = 1:

       Center              X                  Y                   Z               Mass
    ------------   -----------------  -----------------  -----------------  -----------------
           O         -0.937255855417    -1.562328433067    -1.288287239076    15.994914619560
           C         -1.309593855417    -0.446710433067    -1.085320239076    12.000000000000
           C         -1.662120855417     0.013034566933     0.318482760924    12.000000000000
           C         -1.418146855417     0.569256566933    -2.200400239076    12.000000000000
           C         -0.393437855417     0.336499566933     1.124060760924    12.000000000000
           H         -2.202400855417    -0.793203433067     0.802613760924     1.007825032070
           H         -2.311910855417     0.882866566933     0.283962760924     1.007825032070
           C          0.858447144583    -0.297402433067     0.512859760924    12.000000000000
           H         -0.290117855417     1.414575566933     1.173675760924     1.007825032070
           H         -0.509797855417    -0.015627433067     2.147883760924     1.007825032070
           C          2.143101144583    -0.064245433067     1.316200760924    12.000000000000
           H          0.993786144583     0.080970566933    -0.498695239076     1.007825032070
           H          0.698371144583    -1.369475433067     0.418606760924     1.007825032070
           C          2.600475144583     1.394414566933     1.372025760924    12.000000000000
           H          2.935823144583    -0.662452433067     0.874123760924     1.007825032070
           H          2.007756144583    -0.441079433067     2.328013760924     1.007825032070
           H          2.733626144583     1.800078566933     0.372809760924     1.007825032070
           H          3.549811144583     1.479667566933     1.891537760924     1.007825032070
           H          1.887738144583     2.025100566933     1.892632760924     1.007825032070
           H         -2.461002855417     0.835232566933    -2.351969239076     1.007825032070
           H         -1.015742855417     0.158584566933    -3.115935239076     1.007825032070
           H         -0.889414855417     1.482092566933    -1.941601239076     1.007825032070

  Charge       = 0
  Multiplicity = 1
  Basis Set: 6-31G*
  Basis Set:

    Orbital Energies (a.u.)
    -----------------------

    Doubly Occupied:

       1A    -20.545839     2A    -11.324586     3A    -11.228751
       4A    -11.228336     5A    -11.227306     6A    -11.214522
       7A    -11.211864     8A    -11.209118     9A     -1.394159
      10A     -1.093745    11A     -1.041091    12A     -0.998842
      13A     -0.934485    14A     -0.856454    15A     -0.789344
      16A     -0.725255    17A     -0.658824    18A     -0.641996
      19A     -0.627847    20A     -0.617662    21A     -0.598067
      22A     -0.577903    23A     -0.568155    24A     -0.542063
      25A     -0.533462    26A     -0.520675    27A     -0.498901
      28A     -0.480601    29A     -0.461126    30A     -0.457618
      31A     -0.452865    32A     -0.395402

  @DF-RHF Final Energy:  -348.08649775736905

   => Energetics <=

    Nuclear Repulsion Energy =            388.0363802827475297
    One-Electron Energy =               -1240.9320125536712567
    Two-Electron Energy =                 504.8091345135546817
    DFT Exchange-Correlation Energy =       0.0000000000000000
    Empirical Dispersion Energy =           0.0000000000000000
    PCM Polarization Energy =               0.0000000000000000
    EFP Energy =                            0.0000000000000000
    Total Energy =                       -348.0864977573689885

  Mulliken Charges: (a.u.)
   Center  Symbol    Alpha    Beta     Spin     Total
       1     O     4.26370  4.26370  0.00000 -0.52740
       2     C     2.74085  2.74085  0.00000  0.51830
       3     C     3.19772  3.19772  0.00000 -0.39545
       4     C     3.28826  3.28826  0.00000 -0.57652
       5     C     3.16193  3.16193  0.00000 -0.32387
       6     H     0.39980  0.39980  0.00000  0.20039
       7     H     0.41462  0.41462  0.00000  0.17076
       8     C     3.16715  3.16715  0.00000 -0.33430
       9     H     0.41705  0.41705  0.00000  0.16590
      10     H     0.41386  0.41386  0.00000  0.17229
      11     C     3.15185  3.15185  0.00000 -0.30369
      12     H     0.42406  0.42406  0.00000  0.15188
      13     H     0.39766  0.39766  0.00000  0.20468
      14     C     3.24156  3.24156  0.00000 -0.48312
      15     H     0.41854  0.41854  0.00000  0.16292
      16     H     0.42364  0.42364  0.00000  0.15272
      17     H     0.42309  0.42309  0.00000  0.15382
      18     H     0.41861  0.41861  0.00000  0.16277
      19     H     0.42198  0.42198  0.00000  0.15603
      20     H     0.40648  0.40648  0.00000  0.18704
      21     H     0.39725  0.39725  0.00000  0.20549
      22     H     0.41031  0.41031  0.00000  0.17938

   Total alpha = 32.00000, Total beta = 32.00000, Total charge = -0.00000
