                              Psi4 1.0.54 Driver

  ==> Input File <==

--------------------------------------------------------------------------
set {
	reference rhf
	basis cc-pvtz
}

set_num_threads( 4 )
memory 2 gb

molecule MOL {
0 1

H	 -0.939693	 0.000281	 1.681345
O	 -0.046262	 -0.000157	 1.387678
C	 -0.000837	 0.000006	 -0.025491
C	 -1.401003	 0.250763	 -0.582092
C	 0.973036	 1.074313	 -0.505679
C	 0.492792	 -1.386988	 -0.413778
H	 -1.404422	 0.220679	 -1.665549
H	 -1.767538	 1.226221	 -0.276796
H	 -2.090697	 -0.498532	 -0.214204
H	 1.056564	 1.074330	 -1.586332
H	 0.639157	 2.061121	 -0.199400
H	 1.955894	 0.905266	 -0.083922
H	 0.561592	 -1.485278	 -1.490762
H	 -0.185210	 -2.144037	 -0.040413
H	 1.470943	 -1.569556	 0.012959

	symmetry c1
}
set optking {
	frozen_dihedral = ("
		4 3 2 1
	")
}

ee,wfn = optimize('scf', return_wfn=True)
oeprop( wfn, 'DIPOLE', 'QUADRUPOLE', 'MULLIKEN_CHARGES')
f=open( 'psi4out.xyz', 'w' )
f.write( "15  " )
f.write( str(ee) + "\n" )
f.write( MOL.save_string_xyz() )
f.close()
--------------------------------------------------------------------------

    Molecular point group: c1
  Charge       = 0
  Multiplicity = 1
  Basis Set: CC-PVTZ
  Basis Set:
  @DF-RHF Final Energy:  -232.24395489910560
    Total Energy =                       -232.2439548991056881
    Molecular point group: c1
  Basis Set: CC-PVTZ
  Basis Set:
  Basis Set: CC-PVTZ
  Basis Set:
  @DF-RHF Final Energy:  -232.24456916735863
    Total Energy =                       -232.2445691673586339
  Basis Set: CC-PVTZ
  Basis Set:
  Basis Set: CC-PVTZ
  Basis Set:
  @DF-RHF Final Energy:  -232.24485317353162
    Total Energy =                       -232.2448531735313964
  Basis Set: CC-PVTZ
  Basis Set:
  Basis Set: CC-PVTZ
  Basis Set:
  @DF-RHF Final Energy:  -232.24485476745917
    Total Energy =                       -232.2448547674590600
  Basis Set: CC-PVTZ
  Basis Set:
  Basis Set: CC-PVTZ
  Basis Set:
  @DF-RHF Final Energy:  -232.24485999322300
    Total Energy =                       -232.2448599932231446
  Basis Set: CC-PVTZ
  Basis Set:
  Charge       = 0
  Multiplicity = 1
  Basis Set: CC-PVTZ
  Basis Set:

    Orbital Energies (a.u.)
    -----------------------

    Doubly Occupied:

       1A    -20.540335     2A    -11.281129     3A    -11.216149
       4A    -11.203571     5A    -11.203357     6A     -1.362862
       7A     -1.065737     8A     -0.946290     9A     -0.936694
      10A     -0.778591    11A     -0.671906    12A     -0.624589
      13A     -0.622787    14A     -0.576466    15A     -0.557368
      16A     -0.534735    17A     -0.517065    18A     -0.511338
      19A     -0.503207    20A     -0.458406    21A     -0.426537

  @DF-RHF Final Energy:  -232.24486019779755

   => Energetics <=

    Nuclear Repulsion Energy =            200.5780255049601806
    One-Electron Energy =                -712.5675259364870726
    Two-Electron Energy =                 279.7446402337291147
    DFT Exchange-Correlation Energy =       0.0000000000000000
    Empirical Dispersion Energy =           0.0000000000000000
    PCM Polarization Energy =               0.0000000000000000
    EFP Energy =                            0.0000000000000000
    Total Energy =                       -232.2448601977977773
    Molecular point group: c1
  Basis Set: CC-PVTZ
  Basis Set:

  -Total Gradient:
     Atom            X                  Y                   Z
    ------   -----------------  -----------------  -----------------
       1        0.000009245943     0.000927724855    -0.000072858478
       2       -0.000041592222    -0.001347985574     0.000071526205
       3        0.000146741604     0.000960634290    -0.000078925507
       4       -0.000118291214    -0.000529881175     0.000049539006
       5        0.000000383598     0.000006025741    -0.000002139344
       6        0.000007041186    -0.000001157847     0.000031788363
       7       -0.000001033638     0.000004737523    -0.000011529273
       8       -0.000014225105    -0.000015223122     0.000003891529
       9        0.000006593619    -0.000005306912    -0.000006324958
      10       -0.000008274862     0.000008700936     0.000015100949
      11        0.000010558835     0.000004669114    -0.000001086519
      12        0.000002612359    -0.000008765625    -0.000003560516
      13       -0.000002707534     0.000004332098     0.000004336892
      14        0.000003211494     0.000002138270    -0.000000611823
      15       -0.000000264063    -0.000010642572     0.000000853470

  **** Optimization is complete! (in 6 steps) ****
    Final optimized geometry and variables:
    Molecular point group: c1

    Geometry (in Angstrom), charge = 0, multiplicity = 1:

    H           -0.963681101516     0.144247418996     1.672509361948
    O           -0.070890953120     0.100739438981     1.387175509764
    C            0.003565621046    -0.001996336055    -0.024933744636
    C           -1.372166515090     0.239491583815    -0.639323726657
    C            0.998808738141     1.053590541139    -0.493701881769
    C            0.504779010021    -1.402902126994    -0.366653403320
    H           -1.332039868209     0.175835715373    -1.719609938306
    H           -1.742561545032     1.223991854122    -0.374470828583
    H           -2.084273188473    -0.501641919726    -0.289867496008
    H            1.150409035592     1.000569103958    -1.565878773535
    H            0.643386164909     2.045677075465    -0.243261238469
    H            1.953418952560     0.905744035911    -0.004479926230
    H            0.628437912520    -1.527309691678    -1.436748058320
    H           -0.194099759132    -2.152025981490    -0.013146671838
    H            1.458828920570    -1.582517630626     0.112774480145

  Mulliken Charges: (a.u.)
   Center  Symbol    Alpha    Beta     Spin     Total
       1     H     0.39197  0.39197  0.00000  0.21606
       2     O     4.21519  4.21519  0.00000 -0.43038
       3     C     2.88034  2.88034  0.00000  0.23932
       4     C     3.16280  3.16280  0.00000 -0.32561
       5     C     3.13950  3.13950  0.00000 -0.27901
       6     C     3.14040  3.14040  0.00000 -0.28079
       7     H     0.45047  0.45047  0.00000  0.09907
       8     H     0.44703  0.44703  0.00000  0.10594
       9     H     0.45048  0.45048  0.00000  0.09905
      10     H     0.45956  0.45956  0.00000  0.08088
      11     H     0.45282  0.45282  0.00000  0.09436
      12     H     0.44762  0.44762  0.00000  0.10476
      13     H     0.45932  0.45932  0.00000  0.08136
      14     H     0.45432  0.45432  0.00000  0.09136
      15     H     0.44819  0.44819  0.00000  0.10362

   Total alpha = 21.00000, Total beta = 21.00000, Total charge = -0.00000

*** Psi4 exiting successfully. Buy a developer a beer!
