  ==> Input File <==

--------------------------------------------------------------------------
set {
	reference rhf
	basis 6-31G*
}

set_num_threads( 4 )
memory 2 gb

molecule MOL {
0 1

H	 -2.646374	 -0.642757	 1.268656
C	 -2.083525	 -0.384536	 0.393091
O	 -0.807605	 -0.127164	 0.768327
F	 -2.118945	 -1.383102	 -0.486752
F	 -2.621877	 0.670592	 -0.209486
C	 0.084052	 0.273579	 -0.209957
C	 1.353033	 -0.546803	 -0.018071
Cl	 0.433844	 2.004619	 -0.074457
H	 -0.288836	 0.092657	 -1.202930
F	 1.097868	 -1.829400	 -0.166305
F	 1.799503	 -0.357363	 1.207578
F	 2.296169	 -0.203726	 -0.861140

	symmetry c1
}
set optking {
	frozen_dihedral = ("
		10 7 6 9
	")
}

ee = optimize('scf')
oeprop('DIPOLE', 'QUADRUPOLE', 'MULLIKEN_CHARGES')
f=open( 'psi4out.xyz', 'w' )
f.write( "12  " )
f.write( str(ee) + "\n" )
f.write( MOL.save_string_xyz() )
f.close()
--------------------------------------------------------------------------

    Molecular point group: c1
  Charge       = 0
  Multiplicity = 1
  Basis Set: 6-31G*
  Basis Set:
  @DF-RHF Final Energy: -1146.31356706851807
    Total Energy =                      -1146.3135670685180685
    Molecular point group: c1
  Basis Set: 6-31G*
  Basis Set:
  Basis Set: 6-31G*
  Basis Set:
  @DF-RHF Final Energy: -1146.31415404783502
    Total Energy =                      -1146.3141540478352454
  Basis Set: 6-31G*
  Basis Set:
  Basis Set: 6-31G*
  Basis Set:
  @DF-RHF Final Energy: -1146.31437621065515
    Total Energy =                      -1146.3143762106556096
  Basis Set: 6-31G*
  Basis Set:
  Basis Set: 6-31G*
  Basis Set:
  @DF-RHF Final Energy: -1146.31438658864249
    Total Energy =                      -1146.3143865886427193
  Basis Set: 6-31G*
  Basis Set:
  Charge       = 0
  Multiplicity = 1
  Basis Set: 6-31G*
  Basis Set:

    Orbital Energies (a.u.)
    -----------------------

    Doubly Occupied:

       1A   -104.843751     2A    -26.359816     3A    -26.358350
       4A    -26.357543     5A    -26.346514     6A    -26.346032
       7A    -20.649653     8A    -11.527331     9A    -11.489608
      10A    -11.400680    11A    -10.578479    12A     -8.047840
      13A     -8.044296    14A     -8.044205    15A     -1.760919
      16A     -1.717865    17A     -1.657426    18A     -1.655950
      19A     -1.638463    20A     -1.486059    21A     -1.179906
      22A     -1.051845    23A     -0.986565    24A     -0.919521
      25A     -0.859826    26A     -0.852213    27A     -0.845217
      28A     -0.823848    29A     -0.811078    30A     -0.789677
      31A     -0.727300    32A     -0.725997    33A     -0.706033
      34A     -0.701599    35A     -0.678182    36A     -0.674831
      37A     -0.658122    38A     -0.657225    39A     -0.645602
      40A     -0.634009    41A     -0.597360    42A     -0.580885
      43A     -0.524137    44A     -0.476752    45A     -0.468835

  @DF-RHF Final Energy: -1146.31438722322628

   => Energetics <=

    Nuclear Repulsion Energy =            738.1766511140775719
    One-Electron Energy =               -3059.2073910840649660
    Two-Electron Energy =                1174.7163527467610038
    DFT Exchange-Correlation Energy =       0.0000000000000000
    Empirical Dispersion Energy =           0.0000000000000000
    PCM Polarization Energy =               0.0000000000000000
    EFP Energy =                            0.0000000000000000
    Total Energy =                      -1146.3143872232262765
    Molecular point group: c1
  Basis Set: 6-31G*
  Basis Set:

  -Total Gradient:
     Atom            X                  Y                   Z
    ------   -----------------  -----------------  -----------------
       1       -0.000006667336     0.000004634958     0.000009645971
       2       -0.000105610382    -0.000034031479     0.000154702457
       3       -0.000006829691     0.000055852626    -0.000101229428
       4        0.000050535288     0.000078040037    -0.000039905448
       5        0.000085995620    -0.000060619324    -0.000028238302
       6        0.000105966742     0.000130167814    -0.000053250718
       7       -0.000013110559    -0.000001975720     0.000193939837
       8       -0.000005893273    -0.000050230847     0.000009040362
       9       -0.000075104851    -0.000120388647     0.000017751288
      10        0.000030025180     0.000006978138    -0.000147053268
      11       -0.000025343706     0.000008936877    -0.000020607080
      12       -0.000033962994    -0.000017364479     0.000005204334

  **** Optimization is complete! (in 5 steps) ****
    Final optimized geometry and variables:
    Molecular point group: c1

    Geometry (in Angstrom), charge = 0, multiplicity = 1:

    H           -2.655898154000    -0.649623398372     1.245291121392
    C           -2.085758290147    -0.390663140878     0.374729628587
    O           -0.814194780260    -0.128417529475     0.760960634466
    F           -2.109229471572    -1.390621456048    -0.503977144000
    F           -2.621816626361     0.661585815604    -0.234784488092
    C            0.085081111413     0.273395031233    -0.209958767087
    C            1.354981314375    -0.542260047651    -0.004159371648
    CL           0.427082694222     2.005837796271    -0.075082717092
    H           -0.278612260133     0.088029020499    -1.205606203059
    F            1.068355615689    -1.819582338765    -0.157537407057
    F            1.864345600106    -0.371668328634     1.191519539625
    F            2.261236815608    -0.217213803084    -0.901233390127

  Mulliken Charges: (a.u.)
   Center  Symbol    Alpha    Beta     Spin     Total
       1     H     0.40115  0.40115  0.00000  0.19771
       2     C     2.56555  2.56555  0.00000  0.86890
       3     O     4.29833  4.29833  0.00000 -0.59665
       4     F     4.68631  4.68631  0.00000 -0.37261
       5     F     4.68428  4.68428  0.00000 -0.36856
       6     C     3.04684  3.04684  0.00000 -0.09369
       7     C     2.43349  2.43349  0.00000  1.13302
       8    CL     8.49918  8.49918  0.00000  0.00164
       9     H     0.36669  0.36669  0.00000  0.26662
      10     F     4.67589  4.67589  0.00000 -0.35178
      11     F     4.66844  4.66844  0.00000 -0.33688
      12     F     4.67386  4.67386  0.00000 -0.34772

   Total alpha = 45.00000, Total beta = 45.00000, Total charge =  0.00000
