  ==> Input File <==

--------------------------------------------------------------------------
set {
	reference rhf
	basis cc-pvtz
}

set_num_threads( 4 )
memory 2 gb

molecule MOL {
0 1

H	 -2.698799	 -0.000846	 0.036018
C	 -1.694291	 -0.000483	 0.434279
O	 -0.828718	 -0.000608	 -0.655022
H	 -1.576855	 0.881100	 1.056504
H	 -1.576401	 -0.881658	 1.057001
C	 0.332463	 -0.792071	 -0.599138
C	 1.295952	 -0.342002	 0.493290
C	 0.022024	 -2.282535	 -0.519179
H	 0.806058	 -0.604411	 -1.554706
H	 1.464566	 0.726034	 0.430626
H	 2.248682	 -0.844543	 0.372857
H	 0.927760	 -0.574271	 1.485797
H	 -0.692757	 -2.560273	 -1.284027
H	 0.928462	 -2.855645	 -0.676307
H	 -0.380065	 -2.566262	 0.446411

	symmetry c1
}
set optking {
	frozen_dihedral = ("
		6 3 2 1
	")
}

ee = optimize('scf')
oeprop('DIPOLE', 'QUADRUPOLE', 'MULLIKEN_CHARGES')
f=open( 'psi4out.xyz', 'w' )
f.write( "15  " )
f.write( str(ee) + "\n" )
f.write( MOL.save_string_xyz() )
f.close()
--------------------------------------------------------------------------

    Molecular point group: c1
  Charge       = 0
  Multiplicity = 1
  Basis Set: CC-PVTZ
  Basis Set:
  @DF-RHF Final Energy:  -232.22408811554672
    Total Energy =                       -232.2240881155465786
    Molecular point group: c1
  Basis Set: CC-PVTZ
  Basis Set:
  Basis Set: CC-PVTZ
  Basis Set:
  @DF-RHF Final Energy:  -232.22388037986286
    Total Energy =                       -232.2238803798630897
  Basis Set: CC-PVTZ
  Basis Set:
  Basis Set: CC-PVTZ
  Basis Set:
  @DF-RHF Final Energy:  -232.22447183414911
    Total Energy =                       -232.2244718341489715
  Basis Set: CC-PVTZ
  Basis Set:
  Basis Set: CC-PVTZ
  Basis Set:
  @DF-RHF Final Energy:  -232.22451469606821
    Total Energy =                       -232.2245146960681268
  Basis Set: CC-PVTZ
  Basis Set:
  Charge       = 0
  Multiplicity = 1
  Basis Set: CC-PVTZ
  Basis Set:

    Orbital Energies (a.u.)
    -----------------------

    Doubly Occupied:

       1A    -20.539996     2A    -11.273097     3A    -11.258919
       4A    -11.209075     5A    -11.208230     6A     -1.371759
       7A     -1.051077     8A     -0.940496     9A     -0.931576
      10A     -0.781784    11A     -0.676736    12A     -0.641355
      13A     -0.633859    14A     -0.570726    15A     -0.564056
      16A     -0.552301    17A     -0.537450    18A     -0.500601
      19A     -0.498490    20A     -0.443610    21A     -0.406965

  @DF-RHF Final Energy:  -232.22451558783459

   => Energetics <=

    Nuclear Repulsion Energy =            198.9349246366908517
    One-Electron Energy =                -709.1345649926124679
    Two-Electron Energy =                 277.9751247680869710
    DFT Exchange-Correlation Energy =       0.0000000000000000
    Empirical Dispersion Energy =           0.0000000000000000
    PCM Polarization Energy =               0.0000000000000000
    EFP Energy =                            0.0000000000000000
    Total Energy =                       -232.2245155878346168
    Molecular point group: c1
  Basis Set: CC-PVTZ
  Basis Set:

  -Total Gradient:
     Atom            X                  Y                   Z
    ------   -----------------  -----------------  -----------------
       1        0.000050958879    -0.001810606477     0.000089590397
       2       -0.000386051182     0.001777423995    -0.000441818519
       3        0.001092641646     0.001418519829     0.000771124349
       4       -0.000046749454    -0.000018023376     0.000014224542
       5        0.000017064124    -0.000016820158    -0.000009429382
       6       -0.000960265892    -0.001262244203    -0.000287450214
       7        0.000119269522    -0.000000596648    -0.000054604764
       8        0.000109034095    -0.000060250535    -0.000070824323
       9       -0.000011204041    -0.000033629164     0.000027300398
      10       -0.000014392864     0.000016111694     0.000045456704
      11        0.000028799130     0.000029854336     0.000012237237
      12       -0.000001149937    -0.000019560431    -0.000061304705
      13       -0.000018758325    -0.000015909403     0.000013891076
      14       -0.000010234520    -0.000045201879    -0.000014492204
      15        0.000031038821     0.000040932421    -0.000033900591

  **** Optimization is complete! (in 5 steps) ****
    Final optimized geometry and variables:
    Molecular point group: c1

    Geometry (in Angstrom), charge = 0, multiplicity = 1:

    H           -2.510838257179     0.670376112902     0.269061244158
    C           -1.484279766595     0.708634360564     0.609479068883
    O           -0.651626610223     0.651973527353    -0.507839798092
    H           -1.330659951789     1.629425878844     1.162785079710
    H           -1.335588689290    -0.122522790338     1.288279614605
    C            0.524858977121    -0.115507973569    -0.448407854619
    C            1.466122811739     0.345102221981     0.658586823375
    C            0.238047100561    -1.611882950818    -0.392278400616
    H            1.005060665638     0.089815070903    -1.397034764824
    H            1.643023733168     1.411014315404     0.582484493451
    H            2.418806839649    -0.164893697400     0.574454007877
    H            1.066749423359     0.134948292843     1.644321916129
    H           -0.445097646191    -1.890484445026    -1.184939387252
    H            1.158074626391    -2.170412143833    -0.522442656303
    H           -0.195343783558    -1.913472758566     0.554080457492

  Mulliken Charges: (a.u.)
   Center  Symbol    Alpha    Beta     Spin     Total
       1     H     0.44753  0.44753  0.00000  0.10495
       2     C     3.03906  3.03906  0.00000 -0.07812
       3     O     4.18664  4.18664  0.00000 -0.37329
       4     H     0.45983  0.45983  0.00000  0.08035
       5     H     0.47006  0.47006  0.00000  0.05988
       6     C     2.93899  2.93899  0.00000  0.12201
       7     C     3.15631  3.15631  0.00000 -0.31261
       8     C     3.15439  3.15439  0.00000 -0.30879
       9     H     0.44632  0.44632  0.00000  0.10736
      10     H     0.44476  0.44476  0.00000  0.11049
      11     H     0.44932  0.44932  0.00000  0.10136
      12     H     0.45556  0.45556  0.00000  0.08888
      13     H     0.44476  0.44476  0.00000  0.11049
      14     H     0.45097  0.45097  0.00000  0.09806
      15     H     0.45551  0.45551  0.00000  0.08898

   Total alpha = 21.00000, Total beta = 21.00000, Total charge =  0.00000
