  ==> Input File <==

--------------------------------------------------------------------------
set {
	reference rhf
	basis cc-pvtz
}

set_num_threads( 4 )
memory 2 gb

molecule MOL {
0 1

O	 0.609217	 1.326591	 -0.333134
C	 0.477297	 0.160484	 -0.176164
C	 1.600316	 -0.845509	 -0.150368
O	 -0.695554	 -0.422406	 0.000602
C	 2.973378	 -0.224097	 -0.349165
H	 1.386836	 -1.584439	 -0.914802
H	 1.538206	 -1.371669	 0.795800
H	 3.036101	 0.285535	 -1.301298
H	 3.736715	 -0.992135	 -0.321177
H	 3.188863	 0.500258	 0.424852
C	 -1.852370	 0.402254	 0.000718
C	 -3.063338	 -0.501097	 -0.000437
H	 -1.831732	 1.039442	 -0.872158
H	 -1.832493	 1.038301	 0.874430
H	 -3.071944	 -1.133732	 -0.879113
H	 -3.966302	 0.097976	 -0.000483
H	 -3.072764	 -1.134834	 0.877435

	symmetry c1
}
set optking {
	frozen_dihedral = ("
		2 4 11 13
	")
}

ee = optimize('scf')
oeprop('DIPOLE', 'QUADRUPOLE', 'MULLIKEN_CHARGES')
f=open( 'psi4out.xyz', 'w' )
f.write( "17  " )
f.write( str(ee) + "\n" )
f.write( MOL.save_string_xyz() )
f.close()
--------------------------------------------------------------------------

    Molecular point group: c1
  Charge       = 0
  Multiplicity = 1
  Basis Set: CC-PVTZ
  Basis Set:
  @DF-RHF Final Energy:  -345.04050219874711
    Total Energy =                       -345.0405021987471628
    Molecular point group: c1
  Basis Set: CC-PVTZ
  Basis Set:
  Basis Set: CC-PVTZ
  Basis Set:
  @DF-RHF Final Energy:  -345.04051156538657
    Total Energy =                       -345.0405115653865096
  Basis Set: CC-PVTZ
  Basis Set:
  Basis Set: CC-PVTZ
  Basis Set:
  @DF-RHF Final Energy:  -345.04046475532812
    Total Energy =                       -345.0404647553277186
  Basis Set: CC-PVTZ
  Basis Set:
  Basis Set: CC-PVTZ
  Basis Set:
  @DF-RHF Final Energy:  -345.04051903177265
    Total Energy =                       -345.0405190317729875
  Basis Set: CC-PVTZ
  Basis Set:
  Charge       = 0
  Multiplicity = 1
  Basis Set: CC-PVTZ
  Basis Set:

    Orbital Energies (a.u.)
    -----------------------

    Doubly Occupied:

       1A    -20.593384     2A    -20.532858     3A    -11.363558
       4A    -11.282491     5A    -11.235837     6A    -11.220430
       7A    -11.213789     8A     -1.470341     9A     -1.364906
      10A     -1.070875    11A     -1.032545    12A     -0.911972
      13A     -0.847766    14A     -0.774797    15A     -0.698504
      16A     -0.691946    17A     -0.667691    18A     -0.630277
      19A     -0.584661    20A     -0.573728    21A     -0.558644
      22A     -0.525124    23A     -0.520074    24A     -0.515163
      25A     -0.505533    26A     -0.493919    27A     -0.455763
      28A     -0.439258

  @DF-RHF Final Energy:  -345.04052054062458

   => Energetics <=

    Nuclear Repulsion Energy =            315.2108246242651148
    One-Electron Energy =               -1094.9510217219376500
    Two-Electron Energy =                 434.6996765570478374
    DFT Exchange-Correlation Energy =       0.0000000000000000
    Empirical Dispersion Energy =           0.0000000000000000
    PCM Polarization Energy =               0.0000000000000000
    EFP Energy =                            0.0000000000000000
    Total Energy =                       -345.0405205406246978
    Molecular point group: c1
  Basis Set: CC-PVTZ
  Basis Set:

  -Total Gradient:
     Atom            X                  Y                   Z
    ------   -----------------  -----------------  -----------------
       1       -0.000010697222    -0.000010077010     0.000008874637
       2       -0.000042290148    -0.000078444795    -0.000720381631
       3       -0.000004526145    -0.000003095481    -0.000013766726
       4        0.000180333580     0.000275647174     0.001127455855
       5        0.000000164613     0.000001501871     0.000005500440
       6        0.000000963990    -0.000003223614     0.000005440529
       7        0.000001042216     0.000001661146     0.000004214253
       8       -0.000000127412    -0.000000021352    -0.000001037126
       9       -0.000000784275    -0.000000428264    -0.000000564787
      10       -0.000000026542    -0.000000504674    -0.000001517048
      11       -0.000532305742    -0.000742286826    -0.000856755347
      12       -0.000006913178    -0.000012121319     0.000008605107
      13        0.000406446559     0.000564002669     0.000439206269
      14        0.000002702202     0.000002785720     0.000002365719
      15        0.000005682709    -0.000000810977    -0.000004657771
      16        0.000004102449     0.000003971659    -0.000000103895
      17       -0.000003767655     0.000001444073    -0.000002878475

  **** Optimization is complete! (in 5 steps) ****
    Final optimized geometry and variables:
    Molecular point group: c1

    Geometry (in Angstrom), charge = 0, multiplicity = 1:

    O            0.618999945698     1.338046607546    -0.177789714515
    C            0.484468419378     0.171172848449    -0.029110351235
    C            1.605560696183    -0.837173585927    -0.010251632753
    O           -0.689116549250    -0.411197659903     0.144846508291
    C            2.979878465534    -0.217111070641    -0.204575966617
    H            1.390829499967    -1.570693136565    -0.779493585993
    H            1.542268193896    -1.369388262313     0.932455826222
    H            3.043842521232     0.298757243322    -1.153262274059
    H            3.741698359235    -0.986812116405    -0.181582782313
    H            3.196570712762     0.501612543292     0.574318872462
    C           -1.848445403459     0.410038398622     0.133802591675
    C           -3.057920261149    -0.494957806369     0.145684574406
    H           -1.827444797093     1.042450506059    -0.741403948707
    H           -1.828525016875     1.053910799041     1.002910991517
    H           -3.071005384208    -1.132284689209    -0.729572159341
    H           -3.961722378392     0.102831518711     0.148228737643
    H           -3.060975911995    -1.123967954961     1.026954493130

  Mulliken Charges: (a.u.)
   Center  Symbol    Alpha    Beta     Spin     Total
       1     O     4.19703  4.19703  0.00000 -0.39406
       2     C     2.80867  2.80867  0.00000  0.38266
       3     C     3.09364  3.09364  0.00000 -0.18728
       4     O     4.15141  4.15141  0.00000 -0.30283
       5     C     3.13972  3.13972  0.00000 -0.27944
       6     H     0.44183  0.44183  0.00000  0.11633
       7     H     0.44147  0.44147  0.00000  0.11706
       8     H     0.44848  0.44848  0.00000  0.10303
       9     H     0.45058  0.45058  0.00000  0.09885
      10     H     0.44840  0.44840  0.00000  0.10319
      11     C     2.98099  2.98099  0.00000  0.03802
      12     C     3.13293  3.13293  0.00000 -0.26586
      13     H     0.45213  0.45213  0.00000  0.09573
      14     H     0.45542  0.45542  0.00000  0.08916
      15     H     0.45152  0.45152  0.00000  0.09695
      16     H     0.45444  0.45444  0.00000  0.09111
      17     H     0.45132  0.45132  0.00000  0.09736

   Total alpha = 28.00000, Total beta = 28.00000, Total charge = -0.00000
