                              Psi4 1.0.54 Driver

  ==> Input File <==

--------------------------------------------------------------------------
set {
	reference rhf
	basis cc-pvtz
}

set_num_threads( 4 )
memory 2 gb

molecule MOL {
0 1

H	 2.646708	 0.758099	 0.000000
O	 2.258158	 -0.097743	 0.000000
C	 0.911162	 -0.015915	 0.000000
C	 0.258942	 -0.189971	 -1.209593
C	 0.184457	 0.231282	 1.149441
H	 0.838816	 -0.380891	 -2.090952
C	 -1.116238	 -0.114958	 -1.257862
H	 0.690485	 0.366381	 2.088235
C	 -1.195819	 0.303931	 1.086037
H	 -1.616322	 -0.250660	 -2.198022
C	 -1.855385	 0.132207	 -0.112885
H	 -1.752534	 0.496285	 1.983475
H	 -2.925239	 0.189173	 -0.158318

	symmetry c1
}
set optking {
	frozen_dihedral = ("
		4 3 2 1
	")
}

ee,wfn = optimize('scf', return_wfn=True)
oeprop( wfn, 'DIPOLE', 'QUADRUPOLE', 'MULLIKEN_CHARGES')
f=open( 'psi4out.xyz', 'w' )
f.write( "13  " )
f.write( str(ee) + "\n" )
f.write( MOL.save_string_xyz() )
f.close()
--------------------------------------------------------------------------

    Molecular point group: c1
  Charge       = 0
  Multiplicity = 1
  Basis Set: CC-PVTZ
  Basis Set:
  @DF-RHF Final Energy:  -305.66562970985382
    Total Energy =                       -305.6656297098538175
    Molecular point group: c1
  Basis Set: CC-PVTZ
  Basis Set:
  Basis Set: CC-PVTZ
  Basis Set:
  @DF-RHF Final Energy:  -305.66628514900771
    Total Energy =                       -305.6662851490078197
  Basis Set: CC-PVTZ
  Basis Set:
  Basis Set: CC-PVTZ
  Basis Set:
  @DF-RHF Final Energy:  -305.66633791599219
    Total Energy =                       -305.6663379159922442
  Basis Set: CC-PVTZ
  Basis Set:
  Basis Set: CC-PVTZ
  Basis Set:
  @DF-RHF Final Energy:  -305.66634342546763
    Total Energy =                       -305.6663434254672893
  Basis Set: CC-PVTZ
  Basis Set:
  Charge       = 0
  Multiplicity = 1
  Basis Set: CC-PVTZ
  Basis Set:

    Orbital Energies (a.u.)
    -----------------------

    Doubly Occupied:

       1A    -20.571148     2A    -11.288877     3A    -11.233527
       4A    -11.233184     5A    -11.225916     6A    -11.225749
       7A    -11.225045     8A     -1.397955     9A     -1.153352
      10A     -1.022395    11A     -1.008346    12A     -0.839885
      13A     -0.828589    14A     -0.738120    15A     -0.684270
      16A     -0.651629    17A     -0.632533    18A     -0.596864
      19A     -0.592094    20A     -0.526281    21A     -0.517845
      22A     -0.498490    23A     -0.471677    24A     -0.341902
      25A     -0.329467

  @DF-RHF Final Energy:  -305.66634443087150

   => Energetics <=

    Nuclear Repulsion Energy =            273.3110487047563311
    One-Electron Energy =                -956.2845102789374323
    Two-Electron Energy =                 377.3071171433097106
    DFT Exchange-Correlation Energy =       0.0000000000000000
    Empirical Dispersion Energy =           0.0000000000000000
    PCM Polarization Energy =               0.0000000000000000
    EFP Energy =                            0.0000000000000000
    Total Energy =                       -305.6663444308713906
    Molecular point group: c1
  Basis Set: CC-PVTZ
  Basis Set:

  -Total Gradient:
     Atom            X                  Y                   Z
    ------   -----------------  -----------------  -----------------
       1        0.000030466734    -0.000019848133    -0.000718349795
       2        0.000171388499     0.000290294847     0.000809570307
       3       -0.000304870889    -0.000779908400     0.000176390209
       4        0.000038787737     0.000491804386    -0.000197027428
       5        0.000160350647     0.000013446198    -0.000035515919
       6       -0.000019995957    -0.000003673547     0.000024361303
       7        0.000071833714     0.000045687237    -0.000047576720
       8        0.000023754985    -0.000015290640    -0.000003859914
       9       -0.000141337183     0.000011766581    -0.000089400974
      10       -0.000035851956    -0.000005347306     0.000011267952
      11        0.000002337131    -0.000016521441     0.000121459865
      12        0.000010417750    -0.000006214962    -0.000014759103
      13       -0.000007281207    -0.000006194820    -0.000036559780

  **** Optimization is complete! (in 5 steps) ****
    Final optimized geometry and variables:
    Molecular point group: c1

    Geometry (in Angstrom), charge = 0, multiplicity = 1:

    H            2.661433845485     0.708350947200     0.077824441493
    O            2.267008723952    -0.146002092342     0.081355595234
    C            0.903900281157    -0.044730202198     0.033470525413
    C            0.250521767073    -0.225822607418    -1.169859601312
    C            0.183901229400     0.197391582699     1.187387423677
    H            0.826649894898    -0.423895964406    -2.052583314605
    C           -1.129213528461    -0.160425271123    -1.216437852475
    H            0.706501529923     0.319811792798     2.116479838600
    C           -1.195499167197     0.265594187903     1.132321963437
    H           -1.635173739165    -0.303744048811    -2.152167435133
    C           -1.857158359076     0.087735863619    -0.067965291272
    H           -1.752743015406     0.453331164110     2.030261616727
    H           -2.928105856665     0.137539288393    -0.107411511919

  Mulliken Charges: (a.u.)
   Center  Symbol    Alpha    Beta     Spin     Total
       1     H     0.38810  0.38810  0.00000  0.22380
       2     O     4.19244  4.19244  0.00000 -0.38488
       3     C     2.87213  2.87213  0.00000  0.25575
       4     C     3.10844  3.10844  0.00000 -0.21689
       5     C     3.11265  3.11265  0.00000 -0.22530
       6     H     0.41660  0.41660  0.00000  0.16680
       7     C     3.06898  3.06898  0.00000 -0.13797
       8     H     0.41801  0.41801  0.00000  0.16399
       9     C     3.06964  3.06964  0.00000 -0.13928
      10     H     0.42158  0.42158  0.00000  0.15683
      11     C     3.08674  3.08674  0.00000 -0.17349
      12     H     0.42165  0.42165  0.00000  0.15669
      13     H     0.42303  0.42303  0.00000  0.15393

   Total alpha = 25.00000, Total beta = 25.00000, Total charge =  0.00000

*** Psi4 exiting successfully. Buy a developer a beer!
