                              Psi4 1.0.54 Driver

  ==> Input File <==

--------------------------------------------------------------------------
set {
	reference rhf
	basis cc-pvtz
}

set_num_threads( 4 )
memory 2 gb

molecule MOL {
0 1

O	 0.712424	 2.100784	 0.222809
C	 -0.342784	 2.439417	 0.638652
C	 -1.598817	 1.606626	 0.621242
O	 -0.559170	 3.624106	 1.186434
C	 -1.413045	 0.229353	 0.001137
H	 -1.948650	 1.532464	 1.645741
H	 -2.354749	 2.177338	 0.091792
C	 -2.702562	 -0.586401	 0.000228
H	 -0.640439	 -0.305623	 0.541897
H	 -1.047575	 0.339771	 -1.013646
C	 -3.953810	 0.284959	 -0.000782
H	 -2.717793	 -1.238567	 -0.869075
H	 -2.719108	 -1.238472	 0.869576
H	 -3.983727	 0.924403	 -0.876454
H	 -4.852989	 -0.320147	 -0.001515
H	 -3.985140	 0.924399	 0.874841
C	 0.537799	 4.511419	 1.268015
H	 1.331146	 4.083333	 1.862633
H	 0.162475	 5.406313	 1.737231
H	 0.918707	 4.738425	 0.283332

	symmetry c1
}
set optking {
	frozen_dihedral = ("
		9 5 8 12
	")
}

ee,wfn = optimize('scf', return_wfn=True)
oeprop( wfn, 'DIPOLE', 'QUADRUPOLE', 'MULLIKEN_CHARGES')
f=open( 'psi4out.xyz', 'w' )
f.write( "20  " )
f.write( str(ee) + "\n" )
f.write( MOL.save_string_xyz() )
f.close()
--------------------------------------------------------------------------

    Molecular point group: c1
  Charge       = 0
  Multiplicity = 1
  Basis Set: CC-PVTZ
  Basis Set:
  @DF-RHF Final Energy:  -384.07328637426787
    Total Energy =                       -384.0732863742686050
    Molecular point group: c1
  Basis Set: CC-PVTZ
  Basis Set:
  Basis Set: CC-PVTZ
  Basis Set:
  @DF-RHF Final Energy:  -384.03362099380843
    Total Energy =                       -384.0336209938080856
  Basis Set: CC-PVTZ
  Basis Set:
  Basis Set: CC-PVTZ
  Basis Set:
  @DF-RHF Final Energy:  -384.07413266017829
    Total Energy =                       -384.0741326601784067
  Basis Set: CC-PVTZ
  Basis Set:
  Basis Set: CC-PVTZ
  Basis Set:
  @DF-RHF Final Energy:  -384.07635205827251
    Total Energy =                       -384.0763520582725050
  Basis Set: CC-PVTZ
  Basis Set:
  @DF-RHF Final Energy:  -384.07631060274588
    Total Energy =                       -384.0763106027460481
  @DF-RHF Final Energy:  -384.07542910011796
    Total Energy =                       -384.0754291001179581
  Basis Set: CC-PVTZ
  Basis Set:
  @DF-RHF Final Energy:  -384.07651592602531
    Total Energy =                       -384.0765159260255359
  Basis Set: CC-PVTZ
  Basis Set:
  Basis Set: CC-PVTZ
  Basis Set:
  @DF-RHF Final Energy:  -384.07653209589199
    Total Energy =                       -384.0765320958922757
  Basis Set: CC-PVTZ
  Basis Set:
  Basis Set: CC-PVTZ
  Basis Set:
  @DF-RHF Final Energy:  -384.07653705696089
    Total Energy =                       -384.0765370569611150
  Basis Set: CC-PVTZ
  Basis Set:
  Charge       = 0
  Multiplicity = 1
  Basis Set: CC-PVTZ
  Basis Set:

    Orbital Energies (a.u.)
    -----------------------

    Doubly Occupied:

       1A    -20.595961     2A    -20.533949     3A    -11.364236
       4A    -11.278268     5A    -11.232969     6A    -11.218932
       7A    -11.217772     8A    -11.211240     9A     -1.471922
      10A     -1.365531    11A     -1.087992    12A     -1.022316
      13A     -0.968093    14A     -0.897947    15A     -0.799148
      16A     -0.762790    17A     -0.703231    18A     -0.686386
      19A     -0.674784    20A     -0.643910    21A     -0.607827
      22A     -0.593720    23A     -0.566951    24A     -0.548283
      25A     -0.540967    26A     -0.523635    27A     -0.514258
      28A     -0.473794    29A     -0.468596    30A     -0.466321
      31A     -0.457709    32A     -0.440894

  @DF-RHF Final Energy:  -384.07653794276484

   => Energetics <=

    Nuclear Repulsion Energy =            386.3092779285125289
    One-Electron Energy =               -1288.8909656538530726
    Two-Electron Energy =                 518.5051497825756996
    DFT Exchange-Correlation Energy =       0.0000000000000000
    Empirical Dispersion Energy =           0.0000000000000000
    PCM Polarization Energy =               0.0000000000000000
    EFP Energy =                            0.0000000000000000
    Total Energy =                       -384.0765379427648440
    Molecular point group: c1
  Basis Set: CC-PVTZ
  Basis Set:

  -Total Gradient:
     Atom            X                  Y                   Z
    ------   -----------------  -----------------  -----------------
       1       -0.000012734170    -0.000011117273    -0.000007335118
       2        0.000016397571     0.000011560198    -0.000026083797
       3        0.000014898254    -0.000008872421     0.000032328465
       4        0.000015982774     0.000008080301     0.000030920859
       5        0.003640625581    -0.001501034903    -0.006975783321
       6       -0.000004316906     0.000004992851    -0.000013895847
       7       -0.000001215029     0.000006449409    -0.000010401972
       8        0.002659158615    -0.004903512610     0.005610100678
       9       -0.003470495694     0.001980874358     0.005045379209
      10        0.000004067642     0.000007411688     0.000002996659
      11        0.000005616628     0.000002187358     0.000011970822
      12       -0.002830721744     0.004397332081    -0.003671236399
      13        0.000001455231     0.000004591033    -0.000005120431
      14       -0.000003028432     0.000007339841    -0.000007490555
      15       -0.000004128244    -0.000005218598    -0.000007527451
      16       -0.000006284978     0.000001640581     0.000000505146
      17       -0.000024639686     0.000004835198    -0.000009668274
      18       -0.000004800778    -0.000002978071    -0.000005814021
      19        0.000004453591    -0.000000593461     0.000001155956
      20       -0.000000290222    -0.000003967560     0.000004999390

  **** Optimization is complete! (in 10 steps) ****
    Final optimized geometry and variables:
    Molecular point group: c1

    Geometry (in Angstrom), charge = 0, multiplicity = 1:

    O            1.820135561807     0.525954884464     0.212368118410
    C            0.666954170550     0.709628202015     0.406087063377
    C           -0.452567222378    -0.210348590128    -0.011063803755
    O            0.199779906600     1.778806607873     1.030642272335
    C            0.040087598363    -1.463851203536    -0.729471356798
    H           -1.007950247554    -0.460042616357     0.887048980913
    H           -1.127093308110     0.375773749844    -0.622953209300
    C           -1.064337378218    -2.476652989634    -1.091080500373
    H            0.743603363618    -1.940428248177    -0.058796034736
    H            0.587378075147    -1.168411733072    -1.614923299910
    C           -2.436449947602    -1.884959491509    -1.420725922081
    H           -0.745059215298    -3.012110580373    -1.978467297677
    H           -1.175564093228    -3.202067311984    -0.293120237582
    H           -2.373029963881    -1.161244797597    -2.226951908455
    H           -3.112381676419    -2.669350061907    -1.740934903289
    H           -2.890951106930    -1.393581676975    -0.568978459568
    C            1.141771617164     2.732459352484     1.477822065761
    H            1.827583159793     2.288957005924     2.184382940407
    H            0.571565364707     3.513971170973     1.953239130426
    H            1.702786423152     3.133333589474     0.646668160659

  Mulliken Charges: (a.u.)
   Center  Symbol    Alpha    Beta     Spin     Total
       1     O     4.19656  4.19656  0.00000 -0.39312
       2     C     2.81154  2.81154  0.00000  0.37692
       3     C     3.09960  3.09960  0.00000 -0.19920
       4     O     4.14658  4.14658  0.00000 -0.29317
       5     C     3.09005  3.09005  0.00000 -0.18010
       6     H     0.43922  0.43922  0.00000  0.12155
       7     H     0.43753  0.43753  0.00000  0.12494
       8     C     3.09060  3.09060  0.00000 -0.18120
       9     H     0.44352  0.44352  0.00000  0.11297
      10     H     0.44401  0.44401  0.00000  0.11199
      11     C     3.15933  3.15933  0.00000 -0.31867
      12     H     0.44899  0.44899  0.00000  0.10201
      13     H     0.45027  0.45027  0.00000  0.09946
      14     H     0.45328  0.45328  0.00000  0.09345
      15     H     0.44368  0.44368  0.00000  0.11263
      16     H     0.45309  0.45309  0.00000  0.09382
      17     C     3.03819  3.03819  0.00000 -0.07638
      18     H     0.45433  0.45433  0.00000  0.09133
      19     H     0.44520  0.44520  0.00000  0.10960
      20     H     0.45442  0.45442  0.00000  0.09116

   Total alpha = 32.00000, Total beta = 32.00000, Total charge =  0.00000

*** Psi4 exiting successfully. Buy a developer a beer!
