  ==> Input File <==

--------------------------------------------------------------------------
set {
	reference rhf
	basis 6-31G*
}

set_num_threads( 1 )
memory 2 gb

molecule MOL {
0 1

H	 -1.528721	 -1.220648	 0.485184
O	 -1.422729	 -0.573567	 -0.196946
C	 -0.731407	 0.539437	 0.309156
C	 0.680193	 0.672443	 -0.251532
H	 -1.319765	 1.404033	 0.030086
H	 -0.700012	 0.506517	 1.397677
C	 1.599139	 -0.492137	 0.118598
H	 0.616402	 0.758534	 -1.332349
H	 1.107032	 1.602637	 0.117369
H	 1.239738	 -1.428634	 -0.297334
H	 2.601428	 -0.335055	 -0.265730
H	 1.674954	 -0.608418	 1.197020

	symmetry c1
}
set optking {
	frozen_dihedral = ("
		8 4 3 2
	")
}

ee = energy('scf')
oeprop('DIPOLE', 'QUADRUPOLE', 'MULLIKEN_CHARGES')
f=open( 'psi4out.xyz', 'w' )
f.write( "12  " )
f.write( str(ee) + "\n" )
f.write( MOL.save_string_xyz() )
f.close()
--------------------------------------------------------------------------

    Molecular point group: c1

    Geometry (in Angstrom), charge = 0, multiplicity = 1:

       Center              X                  Y                   Z               Mass
    ------------   -----------------  -----------------  -----------------  -----------------
           H         -1.521038526772    -1.223096315376     0.480074316621     1.007825032070
           O         -1.415046526772    -0.576015315376    -0.202055683379    15.994914619560
           C         -0.723724526772     0.536988684624     0.304046316621    12.000000000000
           C          0.687875473228     0.669994684624    -0.256641683379    12.000000000000
           H         -1.312082526772     1.401584684624     0.024976316621     1.007825032070
           H         -0.692329526772     0.504068684624     1.392567316621     1.007825032070
           C          1.606821473228    -0.494585315376     0.113488316621    12.000000000000
           H          0.624084473228     0.756085684624    -1.337458683379     1.007825032070
           H          1.114714473228     1.600188684624     0.112259316621     1.007825032070
           H          1.247420473228    -1.431082315376    -0.302443683379     1.007825032070
           H          2.609110473228    -0.337503315376    -0.270839683379     1.007825032070
           H          1.682636473228    -0.610866315376     1.191910316621     1.007825032070

  Charge       = 0
  Multiplicity = 1
  Basis Set: 6-31G*
  Basis Set:

    Orbital Energies (a.u.)
    -----------------------

    Doubly Occupied:

       1A    -20.552655     2A    -11.268020     3A    -11.215664
       4A    -11.209972     5A     -1.359892     6A     -1.047472
       7A     -0.922525     8A     -0.803168     9A     -0.703721
      10A     -0.634649    11A     -0.595477    12A     -0.584886
      13A     -0.523689    14A     -0.513954    15A     -0.489124
      16A     -0.467361    17A     -0.427325

  @DF-RHF Final Energy:  -193.10860272244838

   => Energetics <=

    Nuclear Repulsion Energy =            132.7637548662596600
    One-Electron Energy =                -525.1055467927762948
    Two-Electron Energy =                 199.2331892040681396
    DFT Exchange-Correlation Energy =       0.0000000000000000
    Empirical Dispersion Energy =           0.0000000000000000
    PCM Polarization Energy =               0.0000000000000000
    EFP Energy =                            0.0000000000000000
    Total Energy =                       -193.1086027224484951

  Mulliken Charges: (a.u.)
   Center  Symbol    Alpha    Beta     Spin     Total
       1     H     0.27947  0.27947  0.00000  0.44107
       2     O     4.37083  4.37083  0.00000 -0.74167
       3     C     2.99849  2.99849  0.00000  0.00302
       4     C     3.15698  3.15698  0.00000 -0.31396
       5     H     0.41883  0.41883  0.00000  0.16234
       6     H     0.43307  0.43307  0.00000  0.13387
       7     C     3.24605  3.24605  0.00000 -0.49210
       8     H     0.41443  0.41443  0.00000  0.17114
       9     H     0.42435  0.42435  0.00000  0.15131
      10     H     0.41378  0.41378  0.00000  0.17245
      11     H     0.41754  0.41754  0.00000  0.16492
      12     H     0.42619  0.42619  0.00000  0.14762

   Total alpha = 17.00000, Total beta = 17.00000, Total charge =  0.00000
