  ==> Input File <==

--------------------------------------------------------------------------
set {
	reference rhf
	basis 6-31G*
}

set_num_threads( 4 )
memory 2 gb

molecule MOL {
0 1

O	 3.225979	 0.970355	 -0.599647
C	 2.701189	 0.057885	 -0.047330
C	 1.245376	 -0.013843	 0.345420
O	 3.347903	 -1.046386	 0.304773
C	 0.455112	 1.231400	 -0.050772
H	 0.838542	 -0.913825	 -0.103701
H	 1.208210	 -0.175333	 1.419774
C	 -0.998893	 1.219485	 0.433193
H	 0.482531	 1.345121	 -1.130325
H	 0.957290	 2.103070	 0.354729
C	 -1.883438	 0.145884	 -0.207175
H	 -1.431207	 2.195402	 0.224832
H	 -1.019646	 1.105716	 1.516076
C	 -3.347647	 0.245583	 0.225435
H	 -1.822183	 0.231698	 -1.291012
H	 -1.510341	 -0.844814	 0.042401
C	 -3.917385	 -1.075519	 0.745262
H	 -3.948468	 0.589144	 -0.614931
H	 -3.443685	 1.006241	 0.998659
C	 -5.381095	 -0.968321	 1.171600
H	 -3.821295	 -1.837003	 -0.025809
H	 -3.320764	 -1.418330	 1.588058
H	 -5.756056	 -1.920081	 1.535143
H	 -6.009877	 -0.660804	 0.340780
H	 -5.505467	 -0.238449	 1.966643
C	 4.728119	 -1.109107	 -0.004993
H	 4.882018	 -1.033965	 -1.071845
H	 5.068212	 -2.067527	 0.355250
H	 5.265056	 -0.311663	 0.488280

	symmetry c1
}
set optking {
	frozen_dihedral = ("
		17 14 11 15
	")
}

ee = optimize('scf')
oeprop('DIPOLE', 'QUADRUPOLE', 'MULLIKEN_CHARGES')
f=open( 'psi4out.xyz', 'w' )
f.write( "29  " )
f.write( str(ee) + "\n" )
f.write( MOL.save_string_xyz() )
f.close()
--------------------------------------------------------------------------

    Molecular point group: c1
  Charge       = 0
  Multiplicity = 1
  Basis Set: 6-31G*
  Basis Set:
  @DF-RHF Final Energy:  -501.03873761181842
    Total Energy =                       -501.0387376118184193
    Molecular point group: c1
  Basis Set: 6-31G*
  Basis Set:
  Basis Set: 6-31G*
  Basis Set:
  @DF-RHF Final Energy:  -501.03895861450928
    Total Energy =                       -501.0389586145087151
  Basis Set: 6-31G*
  Basis Set:
  Basis Set: 6-31G*
  Basis Set:
  @DF-RHF Final Energy:  -501.03902294828799
    Total Energy =                       -501.0390229482886753
  Basis Set: 6-31G*
  Basis Set:
  Basis Set: 6-31G*
  Basis Set:
  @DF-RHF Final Energy:  -501.03896605996886
    Total Energy =                       -501.0389660599690842
  Basis Set: 6-31G*
  Basis Set:
  Basis Set: 6-31G*
  Basis Set:
  @DF-RHF Final Energy:  -501.03903084290437
    Total Energy =                       -501.0390308429044808
  Basis Set: 6-31G*
  Basis Set:
  Basis Set: 6-31G*
  Basis Set:
  @DF-RHF Final Energy:  -501.03900554872666
    Total Energy =                       -501.0390055487259815
  Basis Set: 6-31G*
  Basis Set:
  Basis Set: 6-31G*
  Basis Set:
  @DF-RHF Final Energy:  -501.03903170176625
    Total Energy =                       -501.0390317017668167
  Basis Set: 6-31G*
  Basis Set:
  Charge       = 0
  Multiplicity = 1
  Basis Set: 6-31G*
  Basis Set:

    Orbital Energies (a.u.)
    -----------------------

    Doubly Occupied:

       1A    -20.603368     2A    -20.545193     3A    -11.372007
       4A    -11.280660     5A    -11.234783     6A    -11.218845
       7A    -11.217833     8A    -11.216407     9A    -11.215694
      10A    -11.214163    11A    -11.209022    12A     -1.469064
      13A     -1.362509    14A     -1.096985    15A     -1.065917
      16A     -1.019183    17A     -0.976430    18A     -0.928000
      19A     -0.862161    20A     -0.802169    21A     -0.789521
      22A     -0.763912    23A     -0.700411    24A     -0.682278
      25A     -0.672036    26A     -0.640419    27A     -0.631309
      28A     -0.609751    29A     -0.594892    30A     -0.580404
      31A     -0.564012    32A     -0.553592    33A     -0.536253
      34A     -0.526472    35A     -0.517982    36A     -0.509062
      37A     -0.495999    38A     -0.476916    39A     -0.473990
      40A     -0.459616    41A     -0.456490    42A     -0.453492
      43A     -0.441104    44A     -0.435081

  @DF-RHF Final Energy:  -501.03903149075711

   => Energetics <=

    Nuclear Repulsion Energy =            611.7802835618391555
    One-Electron Energy =               -1894.6878433504066379
    Two-Electron Energy =                 781.8685282978103714
    DFT Exchange-Correlation Energy =       0.0000000000000000
    Empirical Dispersion Energy =           0.0000000000000000
    PCM Polarization Energy =               0.0000000000000000
    EFP Energy =                            0.0000000000000000
    Total Energy =                       -501.0390314907572247
    Molecular point group: c1
  Basis Set: 6-31G*
  Basis Set:

  -Total Gradient:
     Atom            X                  Y                   Z
    ------   -----------------  -----------------  -----------------
       1       -0.000006410130    -0.000004013637    -0.000014714763
       2        0.000009836189     0.000023346216     0.000041230246
       3       -0.000004271498    -0.000001572876    -0.000006469142
       4       -0.000003613158    -0.000008071512    -0.000008942435
       5        0.000000821535    -0.000005571597    -0.000011427443
       6       -0.000002862394     0.000002233376    -0.000001299087
       7        0.000003589052    -0.000003444225     0.000000023524
       8        0.000013433647    -0.000008924726     0.000006429947
       9       -0.000001568750    -0.000002583638    -0.000000354920
      10        0.000002773459     0.000005345880    -0.000001109184
      11       -0.000064955729    -0.002350402600     0.000337083972
      12        0.000009435054    -0.000004145188    -0.000006642439
      13       -0.000008422879    -0.000004165432     0.000000158008
      14       -0.000556384121     0.000004741939    -0.001874067547
      15        0.000182149066     0.002014515644     0.000191932420
      16        0.000006920852     0.000007089130     0.000003062845
      17        0.000427564209     0.000343694012     0.001341770478
      18        0.000004996630    -0.000008704388    -0.000011049621
      19       -0.000015373018    -0.000003697067    -0.000003384144
      20        0.000007948833     0.000000386233     0.000032794273
      21       -0.000013702554     0.000013334969    -0.000008819626
      22        0.000008366736    -0.000009181124    -0.000010687851
      23       -0.000002294516     0.000002108321     0.000011524984
      24        0.000009040014    -0.000008587164    -0.000003438844
      25       -0.000006572093     0.000006501532    -0.000003105669
      26        0.000000049589     0.000000296876    -0.000000270437
      27        0.000000441503    -0.000000098073     0.000000081549
      28       -0.000000472254    -0.000000272271    -0.000000122526
      29       -0.000000463290    -0.000000158602    -0.000000186566

  **** Optimization is complete! (in 8 steps) ****
    Final optimized geometry and variables:
    Molecular point group: c1

    Geometry (in Angstrom), charge = 0, multiplicity = 1:

    O            3.172096784530     1.016471622263    -0.815025099410
    C            2.648775040881     0.105621933453    -0.258669784352
    C            1.193006017520     0.033100288348     0.134102737049
    O            3.297246810684    -0.996041363751     0.098359222853
    C            0.400603597815     1.275263910208    -0.267777426601
    H            0.788093452416    -0.869760602921    -0.310943135434
    H            1.156011681861    -0.123587949113     1.209176599109
    C           -1.052212878680     1.264584505602     0.218182837991
    H            0.426495587439     1.383138453351    -1.348055220516
    H            0.902509225537     2.149710596812     0.132131862847
    C           -1.939327642935     0.187415114661    -0.416382486881
    H           -1.486660706925     2.238836962012     0.006166432374
    H           -1.073158958817     1.155018364438     1.301755235437
    C           -3.416660016656     0.287303861289     0.023673535657
    H           -1.869176700806     0.283791866010    -1.497185153278
    H           -1.554295173033    -0.798051270272    -0.169909506522
    C           -3.997423233121    -1.034592528578     0.531553602098
    H           -4.025025462825     0.654442111040    -0.798871705305
    H           -3.510768259561     1.028104725028     0.815070698302
    C           -5.458435006511    -0.919830972538     0.963150247400
    H           -3.908435283440    -1.791219544860    -0.245484939973
    H           -3.398751105351    -1.386879890391     1.369150600807
    H           -5.838442924016    -1.870466998756     1.324481056068
    H           -6.087998104994    -0.605075629460     0.135590684320
    H           -5.575510144567    -0.191944008418     1.761234524091
    C            4.677598024468    -1.057896496177    -0.210978594356
    H            4.831503727337    -0.987205707892    -1.278138387283
    H            5.019171791043    -2.014170187964     0.153523845727
    H            5.213184271815    -0.257425387609     0.278848318749

  Mulliken Charges: (a.u.)
   Center  Symbol    Alpha    Beta     Spin     Total
       1     O     4.28594  4.28594  0.00000 -0.57188
       2     C     2.60480  2.60480  0.00000  0.79040
       3     C     3.20968  3.20968  0.00000 -0.41936
       4     O     4.30746  4.30746  0.00000 -0.61492
       5     C     3.15454  3.15454  0.00000 -0.30908
       6     H     0.39883  0.39883  0.00000  0.20233
       7     H     0.40127  0.40127  0.00000  0.19746
       8     C     3.15889  3.15889  0.00000 -0.31777
       9     H     0.41318  0.41318  0.00000  0.17364
      10     H     0.40868  0.40868  0.00000  0.18263
      11     C     3.15787  3.15787  0.00000 -0.31574
      12     H     0.41761  0.41761  0.00000  0.16478
      13     H     0.42403  0.42403  0.00000  0.15193
      14     C     3.15333  3.15333  0.00000 -0.30666
      15     H     0.42022  0.42022  0.00000  0.15955
      16     H     0.42070  0.42070  0.00000  0.15861
      17     C     3.15337  3.15337  0.00000 -0.30674
      18     H     0.42046  0.42046  0.00000  0.15908
      19     H     0.42124  0.42124  0.00000  0.15753
      20     C     3.24012  3.24012  0.00000 -0.48023
      21     H     0.42270  0.42270  0.00000  0.15459
      22     H     0.42357  0.42357  0.00000  0.15287
      23     H     0.41923  0.41923  0.00000  0.16155
      24     H     0.42149  0.42149  0.00000  0.15702
      25     H     0.42168  0.42168  0.00000  0.15665
      26     C     3.09240  3.09240  0.00000 -0.18481
      27     H     0.40908  0.40908  0.00000  0.18183
      28     H     0.40851  0.40851  0.00000  0.18297
      29     H     0.40913  0.40913  0.00000  0.18174

   Total alpha = 44.00000, Total beta = 44.00000, Total charge =  0.00000
