  ==> Input File <==

--------------------------------------------------------------------------
set {
	reference rhf
	basis 6-31G*
}

set_num_threads( 1 )
memory 2 gb

molecule MOL {
0 1

O	 -2.042549	 -1.228399	 -0.269030
C	 -1.653912	 -0.146171	 0.050137
C	 -0.332303	 0.024011	 0.778412
C	 -2.438579	 1.106236	 -0.272369
C	 0.845713	 -0.001731	 -0.208243
H	 -0.323783	 0.953829	 1.340327
H	 -0.235459	 -0.796807	 1.480410
C	 2.046938	 0.804581	 0.287690
H	 0.526145	 0.388040	 -1.173146
H	 1.138113	 -1.034709	 -0.371335
C	 3.223128	 0.773343	 -0.687404
H	 1.744966	 1.835748	 0.457788
H	 2.365599	 0.415323	 1.251797
H	 2.944804	 1.188273	 -1.651987
H	 3.568325	 -0.243105	 -0.852071
H	 4.060814	 1.350308	 -0.308697
H	 -3.277823	 0.863061	 -0.908988
H	 -1.806773	 1.843019	 -0.759671
H	 -2.802853	 1.554979	 0.648059

	symmetry c1
}
set optking {
	frozen_dihedral = ("
		11 8 5 9,
		5 3 2 4
	")
}

ee = energy('scf')
oeprop('DIPOLE', 'QUADRUPOLE', 'MULLIKEN_CHARGES')
f=open( 'psi4out.xyz', 'w' )
f.write( "19  " )
f.write( str(ee) + "\n" )
f.write( MOL.save_string_xyz() )
f.close()
--------------------------------------------------------------------------

    Molecular point group: c1

    Geometry (in Angstrom), charge = 0, multiplicity = 1:

       Center              X                  Y                   Z               Mass
    ------------   -----------------  -----------------  -----------------  -----------------
           O         -1.998441495372    -1.422807717611    -0.211295459891    15.994914619560
           C         -1.609804495372    -0.340579717611     0.107871540109    12.000000000000
           C         -0.288195495372    -0.170397717611     0.836146540109    12.000000000000
           C         -2.394471495372     0.911827282389    -0.214634459891    12.000000000000
           C          0.889820504628    -0.196139717611    -0.150508459891    12.000000000000
           H         -0.279675495372     0.759420282389     1.398061540109     1.007825032070
           H         -0.191351495372    -0.991215717611     1.538144540109     1.007825032070
           C          2.091045504628     0.610172282389     0.345424540109    12.000000000000
           H          0.570252504628     0.193631282389    -1.115411459891     1.007825032070
           H          1.182220504628    -1.229117717611    -0.313600459891     1.007825032070
           C          3.267235504628     0.578934282389    -0.629669459891    12.000000000000
           H          1.789073504628     1.641339282389     0.515522540109     1.007825032070
           H          2.409706504628     0.220914282389     1.309531540109     1.007825032070
           H          2.988911504628     0.993864282389    -1.594252459891     1.007825032070
           H          3.612432504628    -0.437513717611    -0.794336459891     1.007825032070
           H          4.104921504628     1.155899282389    -0.250962459891     1.007825032070
           H         -3.233715495372     0.668652282389    -0.851253459891     1.007825032070
           H         -1.762665495372     1.648610282389    -0.701936459891     1.007825032070
           H         -2.758745495372     1.360570282389     0.705793540109     1.007825032070

  Charge       = 0
  Multiplicity = 1
  Basis Set: 6-31G*
  Basis Set:

    Orbital Energies (a.u.)
    -----------------------

    Doubly Occupied:

       1A    -20.546850     2A    -11.324416     3A    -11.230564
       4A    -11.228615     5A    -11.228586     6A    -11.225834
       7A    -11.215441     8A     -1.392795     9A     -1.092051
      10A     -1.029203    11A     -0.984180    12A     -0.890169
      13A     -0.807755    14A     -0.734023    15A     -0.660575
      16A     -0.647852    17A     -0.621916    18A     -0.612577
      19A     -0.583880    20A     -0.574486    21A     -0.553639
      22A     -0.537124    23A     -0.507151    24A     -0.506064
      25A     -0.482229    26A     -0.476363    27A     -0.465677
      28A     -0.396395

  @DF-RHF Final Energy:  -309.06233129414329

   => Energetics <=

    Nuclear Repulsion Energy =            301.8859027546326388
    One-Electron Energy =               -1016.7835970200354723
    Two-Electron Energy =                 405.8353629712591442
    DFT Exchange-Correlation Energy =       0.0000000000000000
    Empirical Dispersion Energy =           0.0000000000000000
    PCM Polarization Energy =               0.0000000000000000
    EFP Energy =                            0.0000000000000000
    Total Energy =                       -309.0623312941436893

  Mulliken Charges: (a.u.)
   Center  Symbol    Alpha    Beta     Spin     Total
       1     O     4.26190  4.26190  0.00000 -0.52381
       2     C     2.73917  2.73917  0.00000  0.52166
       3     C     3.20134  3.20134  0.00000 -0.40268
       4     C     3.28939  3.28939  0.00000 -0.57879
       5     C     3.15758  3.15758  0.00000 -0.31516
       6     H     0.41599  0.41599  0.00000  0.16801
       7     H     0.39999  0.39999  0.00000  0.20003
       8     C     3.15393  3.15393  0.00000 -0.30786
       9     H     0.41887  0.41887  0.00000  0.16226
      10     H     0.40781  0.40781  0.00000  0.18438
      11     C     3.24048  3.24048  0.00000 -0.48096
      12     H     0.42267  0.42267  0.00000  0.15465
      13     H     0.41981  0.41981  0.00000  0.16038
      14     H     0.42059  0.42059  0.00000  0.15881
      15     H     0.41912  0.41912  0.00000  0.16176
      16     H     0.41758  0.41758  0.00000  0.16485
      17     H     0.39689  0.39689  0.00000  0.20623
      18     H     0.41027  0.41027  0.00000  0.17945
      19     H     0.40661  0.40661  0.00000  0.18679

   Total alpha = 28.00000, Total beta = 28.00000, Total charge = -0.00000
