  ==> Input File <==

--------------------------------------------------------------------------
set {
	reference rhf
	basis 6-31G*
}

set_num_threads( 1 )
memory 2 gb

molecule MOL {
0 1

H	 2.591676	 2.013956	 0.335017
O	 3.341076	 1.666752	 -0.126416
C	 3.569581	 0.339145	 0.272707
C	 2.539767	 -0.640285	 -0.279495
H	 4.553106	 0.084646	 -0.100901
H	 3.608576	 0.269204	 1.359154
C	 1.115811	 -0.397273	 0.226630
H	 2.556196	 -0.582511	 -1.364741
H	 2.852081	 -1.648031	 -0.010655
C	 0.172572	 0.094407	 -0.874899
H	 1.142737	 0.330535	 1.032816
H	 0.719681	 -1.320256	 0.650334
C	 -1.287028	 0.272036	 -0.440897
H	 0.546813	 1.035956	 -1.272740
H	 0.202751	 -0.615577	 -1.698739
C	 -1.523948	 1.385485	 0.583104
H	 -1.883535	 0.482577	 -1.326147
H	 -1.660686	 -0.670010	 -0.042440
C	 -3.005286	 1.594059	 0.904928
H	 -1.105072	 2.316690	 0.204279
H	 -0.991992	 1.165102	 1.505469
C	 -3.244135	 2.700618	 1.931642
H	 -3.542821	 1.829944	 -0.010988
H	 -3.427899	 0.661992	 1.274435
H	 -2.861404	 3.653565	 1.577197
H	 -4.302868	 2.825451	 2.136916
H	 -2.749357	 2.476465	 2.872553

	symmetry c1
}
set optking {
	frozen_dihedral = ("
		14 10 7 4,
		14 10 13 16,
		8 4 3 2,
		10 13 16 20,
		20 16 19 22,
		4 3 2 1
	")
}

ee = energy('scf')
oeprop('DIPOLE', 'QUADRUPOLE', 'MULLIKEN_CHARGES')
f=open( 'psi4out.xyz', 'w' )
f.write( "27  " )
f.write( str(ee) + "\n" )
f.write( MOL.save_string_xyz() )
f.close()
--------------------------------------------------------------------------

    Molecular point group: c1

    Geometry (in Angstrom), charge = 0, multiplicity = 1:

       Center              X                  Y                   Z               Mass
    ------------   -----------------  -----------------  -----------------  -----------------
           H          2.363400117047     1.205112008354     0.081134706685     1.007825032070
           O          3.112800117047     0.857908008354    -0.380298293315    15.994914619560
           C          3.341305117047    -0.469698991646     0.018824706685    12.000000000000
           C          2.311491117047    -1.449128991646    -0.533377293315    12.000000000000
           H          4.324830117047    -0.724197991646    -0.354783293315     1.007825032070
           H          3.380300117047    -0.539639991646     1.105271706685     1.007825032070
           C          0.887535117047    -1.206116991646    -0.027252293315    12.000000000000
           H          2.327920117047    -1.391354991646    -1.618623293315     1.007825032070
           H          2.623805117047    -2.456874991646    -0.264537293315     1.007825032070
           C         -0.055703882953    -0.714436991646    -1.128781293315    12.000000000000
           H          0.914461117047    -0.478308991646     0.778933706685     1.007825032070
           H          0.491405117047    -2.129099991646     0.396451706685     1.007825032070
           C         -1.515303882953    -0.536807991646    -0.694779293315    12.000000000000
           H          0.318537117047     0.227112008354    -1.526622293315     1.007825032070
           H         -0.025524882953    -1.424420991646    -1.952621293315     1.007825032070
           C         -1.752223882953     0.576641008354     0.329221706685    12.000000000000
           H         -2.111810882953    -0.326266991646    -1.580029293315     1.007825032070
           H         -1.888961882953    -1.478853991646    -0.296322293315     1.007825032070
           C         -3.233561882953     0.785215008354     0.651045706685    12.000000000000
           H         -1.333347882953     1.507846008354    -0.049603293315     1.007825032070
           H         -1.220267882953     0.356258008354     1.251586706685     1.007825032070
           C         -3.472410882953     1.891774008354     1.677759706685    12.000000000000
           H         -3.771096882953     1.021100008354    -0.264870293315     1.007825032070
           H         -3.656174882953    -0.146851991646     1.020552706685     1.007825032070
           H         -3.089679882953     2.844721008354     1.323314706685     1.007825032070
           H         -4.531143882953     2.016607008354     1.883033706685     1.007825032070
           H         -2.977632882953     1.667621008354     2.618670706685     1.007825032070

  Charge       = 0
  Multiplicity = 1
  Basis Set: 6-31G*
  Basis Set:

    Orbital Energies (a.u.)
    -----------------------

    Doubly Occupied:

       1A    -20.552933     2A    -11.266977     3A    -11.219022
       4A    -11.216692     5A    -11.215911     6A    -11.215562
       7A    -11.214697     8A    -11.213732     9A    -11.210052
      10A     -1.359576    11A     -1.095290    12A     -1.061873
      13A     -1.011376    14A     -0.948381    15A     -0.888316
      16A     -0.820863    17A     -0.802061    18A     -0.777585
      19A     -0.695714    20A     -0.650803    21A     -0.641537
      22A     -0.612906    23A     -0.594051    24A     -0.583715
      25A     -0.575899    26A     -0.556764    27A     -0.543246
      28A     -0.533552    29A     -0.511213    30A     -0.495047
      31A     -0.488031    32A     -0.471598    33A     -0.466348
      34A     -0.456997    35A     -0.451605    36A     -0.440560
      37A     -0.423548

  @DF-RHF Final Energy:  -388.27655264763848

   => Energetics <=

    Nuclear Repulsion Energy =            466.4256554954295098
    One-Electron Energy =               -1450.8363126163383185
    Two-Electron Energy =                 596.1341044732691898
    DFT Exchange-Correlation Energy =       0.0000000000000000
    Empirical Dispersion Energy =           0.0000000000000000
    PCM Polarization Energy =               0.0000000000000000
    EFP Energy =                            0.0000000000000000
    Total Energy =                       -388.2765526476396190

  Mulliken Charges: (a.u.)
   Center  Symbol    Alpha    Beta     Spin     Total
       1     H     0.27962  0.27962  0.00000  0.44076
       2     O     4.37103  4.37103  0.00000 -0.74206
       3     C     2.99994  2.99994  0.00000  0.00013
       4     C     3.16320  3.16320  0.00000 -0.32641
       5     H     0.41531  0.41531  0.00000  0.16939
       6     H     0.43158  0.43158  0.00000  0.13685
       7     C     3.16356  3.16356  0.00000 -0.32713
       8     H     0.41242  0.41242  0.00000  0.17516
       9     H     0.42157  0.42157  0.00000  0.15686
      10     C     3.15627  3.15627  0.00000 -0.31254
      11     H     0.42802  0.42802  0.00000  0.14395
      12     H     0.41830  0.41830  0.00000  0.16340
      13     C     3.15363  3.15363  0.00000 -0.30726
      14     H     0.41947  0.41947  0.00000  0.16107
      15     H     0.41971  0.41971  0.00000  0.16057
      16     C     3.15362  3.15362  0.00000 -0.30724
      17     H     0.42102  0.42102  0.00000  0.15796
      18     H     0.42402  0.42402  0.00000  0.15197
      19     C     3.15091  3.15091  0.00000 -0.30183
      20     H     0.42554  0.42554  0.00000  0.14891
      21     H     0.42369  0.42369  0.00000  0.15263
      22     C     3.23938  3.23938  0.00000 -0.47876
      23     H     0.42242  0.42242  0.00000  0.15516
      24     H     0.42276  0.42276  0.00000  0.15447
      25     H     0.42174  0.42174  0.00000  0.15652
      26     H     0.41891  0.41891  0.00000  0.16218
      27     H     0.42236  0.42236  0.00000  0.15529

   Total alpha = 37.00000, Total beta = 37.00000, Total charge = -0.00000
