  ==> Input File <==

--------------------------------------------------------------------------
set {
	reference rhf
	basis 6-31G*
}

set_num_threads( 1 )
memory 2 gb

molecule MOL {
0 1

O	 3.476979	 1.156419	 0.481053
C	 2.835298	 0.156971	 0.530156
C	 1.362172	 0.071466	 0.848553
O	 3.347903	 -1.046386	 0.304773
C	 0.723488	 1.434932	 1.103816
H	 0.888344	 -0.451885	 0.024670
H	 1.255802	 -0.578411	 1.713447
C	 -0.746241	 1.357737	 1.530934
H	 0.815560	 2.046784	 0.211471
H	 1.291311	 1.943680	 1.875292
C	 -1.702977	 0.828568	 0.458672
H	 -1.065999	 2.356343	 1.819492
H	 -0.831859	 0.743498	 2.426138
C	 -3.168933	 0.874298	 0.894425
H	 -1.579922	 1.414330	 -0.451031
H	 -1.445595	 -0.195911	 0.199503
C	 -4.133697	 0.343031	 -0.167233
H	 -3.438534	 1.899356	 1.143032
H	 -3.290607	 0.297571	 1.810002
C	 -5.595883	 0.395717	 0.274284
H	 -4.012717	 0.917585	 -1.083145
H	 -3.868507	 -0.682940	 -0.413885
H	 -6.254729	 0.012697	 -0.498907
H	 -5.902267	 1.414347	 0.495002
H	 -5.756708	 -0.198030	 1.169758
C	 4.728119	 -1.109107	 -0.004993
H	 4.882018	 -1.033965	 -1.071845
H	 5.068212	 -2.067527	 0.355250
H	 5.265056	 -0.311663	 0.488280

	symmetry c1
}
set optking {
	frozen_dihedral = ("
		21 17 14 11,
		17 14 11 15,
		15 11 8 5,
		6 3 5 9,
		11 8 5 9,
		1 2 4 26,
		6 3 2 1
	")
}

ee = energy('scf')
oeprop('DIPOLE', 'QUADRUPOLE', 'MULLIKEN_CHARGES')
f=open( 'psi4out.xyz', 'w' )
f.write( "29  " )
f.write( str(ee) + "\n" )
f.write( MOL.save_string_xyz() )
f.close()
--------------------------------------------------------------------------

    Molecular point group: c1

    Geometry (in Angstrom), charge = 0, multiplicity = 1:

       Center              X                  Y                   Z               Mass
    ------------   -----------------  -----------------  -----------------  -----------------
           O          3.333694262972     0.766943196823    -0.078515991965    15.994914619560
           C          2.692013262972    -0.232504803177    -0.029412991965    12.000000000000
           C          1.218887262972    -0.318009803177     0.288984008035    12.000000000000
           O          3.204618262972    -1.435861803177    -0.254795991965    15.994914619560
           C          0.580203262972     1.045456196823     0.544247008035    12.000000000000
           H          0.745059262972    -0.841360803177    -0.534898991965     1.007825032070
           H          1.112517262972    -0.967886803177     1.153878008035     1.007825032070
           C         -0.889525737028     0.968261196823     0.971365008035    12.000000000000
           H          0.672275262972     1.657308196823    -0.348097991965     1.007825032070
           H          1.148026262972     1.554204196823     1.315723008035     1.007825032070
           C         -1.846261737028     0.439092196823    -0.100896991965    12.000000000000
           H         -1.209283737028     1.966867196823     1.259923008035     1.007825032070
           H         -0.975143737028     0.354022196823     1.866569008035     1.007825032070
           C         -3.312217737028     0.484822196823     0.334856008035    12.000000000000
           H         -1.723206737028     1.024854196823    -1.010599991965     1.007825032070
           H         -1.588879737028    -0.585386803177    -0.360065991965     1.007825032070
           C         -4.276981737028    -0.046444803177    -0.726801991965    12.000000000000
           H         -3.581818737028     1.509880196823     0.583463008035     1.007825032070
           H         -3.433891737028    -0.091904803177     1.250433008035     1.007825032070
           C         -5.739167737028     0.006241196823    -0.285284991965    12.000000000000
           H         -4.156001737028     0.528109196823    -1.642713991965     1.007825032070
           H         -4.011791737028    -1.072415803177    -0.973453991965     1.007825032070
           H         -6.398013737028    -0.376778803177    -1.058475991965     1.007825032070
           H         -6.045551737028     1.024871196823    -0.064566991965     1.007825032070
           H         -5.899992737028    -0.587505803177     0.610189008035     1.007825032070
           C          4.584834262972    -1.498582803177    -0.564561991965    12.000000000000
           H          4.738733262972    -1.423440803177    -1.631413991965     1.007825032070
           H          4.924927262972    -2.457002803177    -0.204318991965     1.007825032070
           H          5.121771262972    -0.701138803177    -0.071288991965     1.007825032070

  Charge       = 0
  Multiplicity = 1
  Basis Set: 6-31G*
  Basis Set:

    Orbital Energies (a.u.)
    -----------------------

    Doubly Occupied:

       1A    -20.603336     2A    -20.544742     3A    -11.372592
       4A    -11.278349     5A    -11.234970     6A    -11.219185
       7A    -11.217704     8A    -11.216042     9A    -11.215876
      10A    -11.214488    11A    -11.209081    12A     -1.469244
      13A     -1.362594    14A     -1.098165    15A     -1.066905
      16A     -1.019521    17A     -0.976921    18A     -0.928387
      19A     -0.861574    20A     -0.799243    21A     -0.790485
      22A     -0.763601    23A     -0.702219    24A     -0.681628
      25A     -0.672413    26A     -0.651022    27A     -0.629074
      28A     -0.604469    29A     -0.594321    30A     -0.579995
      31A     -0.568131    32A     -0.549546    33A     -0.533631
      34A     -0.527500    35A     -0.514907    36A     -0.512518
      37A     -0.496627    38A     -0.477892    39A     -0.470251
      40A     -0.462378    41A     -0.458737    42A     -0.455163
      43A     -0.440761    44A     -0.435784

  @DF-RHF Final Energy:  -501.04275670938000

   => Energetics <=

    Nuclear Repulsion Energy =            610.2509211657672950
    One-Electron Energy =               -1891.6234122906855646
    Two-Electron Energy =                 780.3297344155381552
    DFT Exchange-Correlation Energy =       0.0000000000000000
    Empirical Dispersion Energy =           0.0000000000000000
    PCM Polarization Energy =               0.0000000000000000
    EFP Energy =                            0.0000000000000000
    Total Energy =                       -501.0427567093801144

  Mulliken Charges: (a.u.)
   Center  Symbol    Alpha    Beta     Spin     Total
       1     O     4.28632  4.28632  0.00000 -0.57264
       2     C     2.60474  2.60474  0.00000  0.79051
       3     C     3.21011  3.21011  0.00000 -0.42022
       4     O     4.30729  4.30729  0.00000 -0.61457
       5     C     3.15381  3.15381  0.00000 -0.30762
       6     H     0.39859  0.39859  0.00000  0.20282
       7     H     0.40121  0.40121  0.00000  0.19759
       8     C     3.15663  3.15663  0.00000 -0.31326
       9     H     0.41303  0.41303  0.00000  0.17394
      10     H     0.40875  0.40875  0.00000  0.18251
      11     C     3.15509  3.15509  0.00000 -0.31018
      12     H     0.41822  0.41822  0.00000  0.16357
      13     H     0.42386  0.42386  0.00000  0.15228
      14     C     3.15029  3.15029  0.00000 -0.30059
      15     H     0.42259  0.42259  0.00000  0.15482
      16     H     0.42360  0.42360  0.00000  0.15279
      17     C     3.15146  3.15146  0.00000 -0.30293
      18     H     0.42332  0.42332  0.00000  0.15336
      19     H     0.42397  0.42397  0.00000  0.15206
      20     C     3.23935  3.23935  0.00000 -0.47871
      21     H     0.42279  0.42279  0.00000  0.15441
      22     H     0.42342  0.42342  0.00000  0.15316
      23     H     0.41922  0.41922  0.00000  0.16156
      24     H     0.42154  0.42154  0.00000  0.15691
      25     H     0.42183  0.42183  0.00000  0.15635
      26     C     3.09679  3.09679  0.00000 -0.19358
      27     H     0.41321  0.41321  0.00000  0.17357
      28     H     0.41032  0.41032  0.00000  0.17936
      29     H     0.39864  0.39864  0.00000  0.20271

   Total alpha = 44.00000, Total beta = 44.00000, Total charge =  0.00000
