                              Psi4 1.0.54 Driver

  ==> Input File <==

--------------------------------------------------------------------------
set {
	reference rhf
	basis cc-pvtz
}

set_num_threads( 4 )
memory 2 gb

molecule MOL {
0 1

H	 -1.235131	 -0.655031	 -1.031400
N	 -1.173824	 -0.310545	 -0.096857
C	 -0.022588	 0.563366	 0.065815
H	 -2.022847	 0.180078	 0.093041
C	 1.270420	 -0.230572	 -0.014245
H	 -0.045354	 1.293678	 -0.735129
H	 -0.043155	 1.123061	 1.001180
H	 1.336273	 -0.754933	 -0.959364
H	 2.130728	 0.422015	 0.082222
H	 1.323344	 -0.967006	 0.781773

	symmetry c1
}
set optking {
	frozen_dihedral = ("
		1 2 3 6
	")
}

ee,wfn = optimize('scf', return_wfn=True)
oeprop( wfn, 'DIPOLE', 'QUADRUPOLE', 'MULLIKEN_CHARGES')
f=open( 'psi4out.xyz', 'w' )
f.write( "10  " )
f.write( str(ee) + "\n" )
f.write( MOL.save_string_xyz() )
f.close()
--------------------------------------------------------------------------

    Molecular point group: c1
  Charge       = 0
  Multiplicity = 1
  Basis Set: CC-PVTZ
  Basis Set:
  @DF-RHF Final Energy:  -134.30269540873070
    Total Energy =                       -134.3026954087306422
    Molecular point group: c1
  Basis Set: CC-PVTZ
  Basis Set:
  Basis Set: CC-PVTZ
  Basis Set:
  @DF-RHF Final Energy:  -134.28359274000343
    Total Energy =                       -134.2835927400033995
  Basis Set: CC-PVTZ
  Basis Set:
  Basis Set: CC-PVTZ
  Basis Set:
  @DF-RHF Final Energy:  -134.30416247614193
    Total Energy =                       -134.3041624761419257
  Basis Set: CC-PVTZ
  Basis Set:
  Basis Set: CC-PVTZ
  Basis Set:
  @DF-RHF Final Energy:  -134.30453559900070
    Total Energy =                       -134.3045355990007579
  Basis Set: CC-PVTZ
  Basis Set:
  Basis Set: CC-PVTZ
  Basis Set:
  @DF-RHF Final Energy:  -134.30459544567947
    Total Energy =                       -134.3045954456794959
  Basis Set: CC-PVTZ
  Basis Set:
  Charge       = 0
  Multiplicity = 1
  Basis Set: CC-PVTZ
  Basis Set:

    Orbital Energies (a.u.)
    -----------------------

    Doubly Occupied:

       1A    -15.527517     2A    -11.241203     3A    -11.203629
       4A     -1.178113     5A     -0.988261     6A     -0.823308
       7A     -0.665420     8A     -0.630803     9A     -0.580131
      10A     -0.516051    11A     -0.511136    12A     -0.485950
      13A     -0.386017

  @DF-RHF Final Energy:  -134.30459774498391

   => Energetics <=

    Nuclear Repulsion Energy =             83.4058431801286417
    One-Electron Energy =                -345.9458009804413336
    Two-Electron Energy =                 128.2353600553287833
    DFT Exchange-Correlation Energy =       0.0000000000000000
    Empirical Dispersion Energy =           0.0000000000000000
    PCM Polarization Energy =               0.0000000000000000
    EFP Energy =                            0.0000000000000000
    Total Energy =                       -134.3045977449838801
    Molecular point group: c1
  Basis Set: CC-PVTZ
  Basis Set:

  -Total Gradient:
     Atom            X                  Y                   Z
    ------   -----------------  -----------------  -----------------
       1       -0.000443944134     0.001215970694    -0.000330701481
       2        0.000627652086    -0.001759657085     0.000229073606
       3       -0.000488091343     0.001510226541     0.000814894724
       4       -0.000029147495    -0.000003994513    -0.000007903202
       5        0.000063789224     0.000017047852    -0.000002758546
       6        0.000264714009    -0.000968203807    -0.000689227611
       7        0.000009614123     0.000008125030    -0.000011759559
       8       -0.000001772616    -0.000000538075     0.000014108032
       9        0.000009667073    -0.000012563243    -0.000009143758
      10       -0.000012480926    -0.000006413394    -0.000006582204

  **** Optimization is complete! (in 6 steps) ****
    Final optimized geometry and variables:
    Molecular point group: c1

    Geometry (in Angstrom), charge = 0, multiplicity = 1:

    H           -1.550789098132    -0.305490447873    -0.704984689330
    N           -1.206443886456     0.075748767866     0.151637817767
    C            0.164051338026     0.541131274757    -0.003308241053
    H           -1.812907378990     0.830858302361     0.393040122034
    C            1.123037049748    -0.633484433813    -0.111496327870
    H            0.295526474585     1.186064405473    -0.872105794187
    H            0.415883023330     1.131498855510     0.869919763018
    H            0.890644593592    -1.243423128319    -0.978857928376
    H            2.146379617838    -0.289372830879    -0.213594329780
    H            1.052875771292    -1.262981826115     0.766632236898

  Mulliken Charges: (a.u.)
   Center  Symbol    Alpha    Beta     Spin     Total
       1     H     0.43069  0.43069  0.00000  0.13862
       2     N     3.68935  3.68935  0.00000 -0.37869
       3     C     3.02203  3.02203  0.00000 -0.04406
       4     H     0.42931  0.42931  0.00000  0.14139
       5     C     3.13598  3.13598  0.00000 -0.27197
       6     H     0.46858  0.46858  0.00000  0.06284
       7     H     0.45718  0.45718  0.00000  0.08564
       8     H     0.45966  0.45966  0.00000  0.08068
       9     H     0.45686  0.45686  0.00000  0.08629
      10     H     0.45037  0.45037  0.00000  0.09927

   Total alpha = 13.00000, Total beta = 13.00000, Total charge =  0.00000

*** Psi4 exiting successfully. Buy a developer a beer!
