  ==> Input File <==

--------------------------------------------------------------------------
set {
	reference rhf
	basis 6-31G*
}

set_num_threads( 1 )
memory 2 gb

molecule MOL {
0 1

H	 -3.301617	 0.570527	 0.000000
C	 -2.250981	 0.344174	 0.000000
C	 -1.813665	 -0.976045	 0.000000
C	 -1.315303	 1.358057	 0.000000
H	 -2.528860	 -1.779366	 0.000000
C	 -0.467298	 -1.270142	 0.000000
H	 -1.635074	 2.385107	 0.000000
C	 0.047081	 1.078114	 0.000000
H	 -0.115948	 -2.285222	 0.000000
C	 0.472063	 -0.241155	 0.000000
H	 0.749976	 1.888426	 0.000000
O	 1.765256	 -0.628444	 0.000000
C	 2.490661	 -0.625669	 1.195346
H	 2.554585	 0.371222	 1.618966
H	 3.483776	 -0.968837	 0.946809
H	 2.054512	 -1.298566	 1.926315

	symmetry c1
}
set optking {
	frozen_dihedral = ("
		10 12 13 14
	")
}

ee = energy('scf')
oeprop('DIPOLE', 'QUADRUPOLE', 'MULLIKEN_CHARGES')
f=open( 'psi4out.xyz', 'w' )
f.write( "16  " )
f.write( str(ee) + "\n" )
f.write( MOL.save_string_xyz() )
f.close()
--------------------------------------------------------------------------

    Molecular point group: c1

    Geometry (in Angstrom), charge = 0, multiplicity = 1:

       Center              X                  Y                   Z               Mass
    ------------   -----------------  -----------------  -----------------  -----------------
           H         -3.259574899556     0.710909160596    -0.174642113230     1.007825032070
           C         -2.208938899556     0.484556160596    -0.174642113230    12.000000000000
           C         -1.771622899556    -0.835662839404    -0.174642113230    12.000000000000
           C         -1.273260899556     1.498439160596    -0.174642113230    12.000000000000
           H         -2.486817899556    -1.638983839404    -0.174642113230     1.007825032070
           C         -0.425255899556    -1.129759839404    -0.174642113230    12.000000000000
           H         -1.593031899556     2.525489160596    -0.174642113230     1.007825032070
           C          0.089123100444     1.218496160596    -0.174642113230    12.000000000000
           H         -0.073905899556    -2.144839839404    -0.174642113230     1.007825032070
           C          0.514105100444    -0.100772839404    -0.174642113230    12.000000000000
           H          0.792018100444     2.028808160596    -0.174642113230     1.007825032070
           O          1.807298100444    -0.488061839404    -0.174642113230    15.994914619560
           C          2.532703100444    -0.485286839404     1.020703886770    12.000000000000
           H          2.596627100444     0.511604160596     1.444323886770     1.007825032070
           H          3.525818100444    -0.828454839404     0.772166886770     1.007825032070
           H          2.096554100444    -1.158183839404     1.751672886770     1.007825032070

  Charge       = 0
  Multiplicity = 1
  Basis Set: 6-31G*
  Basis Set:

    Orbital Energies (a.u.)
    -----------------------

    Doubly Occupied:

       1A    -20.570391     2A    -11.287072     3A    -11.276438
       4A    -11.232678     5A    -11.231171     6A    -11.226647
       7A    -11.225059     8A    -11.221711     9A     -1.404841
      10A     -1.146527    11A     -1.017729    12A     -1.015300
      13A     -0.934899    14A     -0.832516    15A     -0.805934
      16A     -0.714791    17A     -0.668423    18A     -0.663851
      19A     -0.638224    20A     -0.611354    21A     -0.597949
      22A     -0.584080    23A     -0.530263    24A     -0.506266
      25A     -0.503634    26A     -0.480382    27A     -0.434245
      28A     -0.334282    29A     -0.318678

  @DF-RHF Final Energy:  -344.57845539226247

   => Energetics <=

    Nuclear Repulsion Energy =            347.7225552058541211
    One-Electron Energy =               -1156.5711790101631777
    Two-Electron Energy =                 464.2701684120469281
    DFT Exchange-Correlation Energy =       0.0000000000000000
    Empirical Dispersion Energy =           0.0000000000000000
    PCM Polarization Energy =               0.0000000000000000
    EFP Energy =                            0.0000000000000000
    Total Energy =                       -344.5784553922620717

  Mulliken Charges: (a.u.)
   Center  Symbol    Alpha    Beta     Spin     Total
       1     H     0.39956  0.39956  0.00000  0.20088
       2     C     3.10570  3.10570  0.00000 -0.21139
       3     C     3.09657  3.09657  0.00000 -0.19313
       4     C     3.09685  3.09685  0.00000 -0.19371
       5     H     0.39947  0.39947  0.00000  0.20105
       6     C     3.11994  3.11994  0.00000 -0.23987
       7     H     0.39920  0.39920  0.00000  0.20159
       8     C     3.12393  3.12393  0.00000 -0.24786
       9     H     0.39494  0.39494  0.00000  0.21013
      10     C     2.79864  2.79864  0.00000  0.40272
      11     H     0.39606  0.39606  0.00000  0.20788
      12     O     4.33231  4.33231  0.00000 -0.66462
      13     C     3.07977  3.07977  0.00000 -0.15953
      14     H     0.42381  0.42381  0.00000  0.15238
      15     H     0.41003  0.41003  0.00000  0.17994
      16     H     0.42322  0.42322  0.00000  0.15355

   Total alpha = 29.00000, Total beta = 29.00000, Total charge =  0.00000
