                              Psi4 1.0.54 Driver

  ==> Input File <==

--------------------------------------------------------------------------
set {
	reference rhf
	basis cc-pvtz
}

set_num_threads( 4 )
memory 2 gb

molecule MOL {
0 1

O	 2.868453	 1.353349	 -0.000734
C	 2.841259	 0.166180	 -0.000295
C	 1.542794	 -0.614730	 -0.000853
C	 4.113372	 -0.651103	 0.000743
C	 0.288398	 0.247429	 0.000314
H	 1.557171	 -1.273139	 -0.866508
H	 1.557484	 -1.274998	 0.863344
C	 0.600960	 1.738022	 -0.097394
H	 -0.278987	 0.048277	 0.902272
H	 -0.348391	 -0.050380	 -0.824879
C	 -0.648560	 2.613823	 -0.096928
H	 1.241873	 2.029035	 0.731953
H	 1.171778	 1.929988	 -1.003252
C	 -0.344287	 4.106047	 -0.193996
H	 -1.219689	 2.422821	 0.808303
H	 -1.289492	 2.324213	 -0.926060
C	 -1.597792	 4.974675	 -0.192877
H	 0.295361	 4.396673	 0.635056
H	 0.225483	 4.298084	 -1.099204
H	 -2.172314	 4.831250	 0.716186
H	 -1.347001	 6.026937	 -0.262659
H	 -2.242570	 4.732123	 -1.031014
H	 4.145311	 -1.294584	 -0.871587
H	 4.970080	 0.004978	 -0.000091
H	 4.145223	 -1.291980	 0.874988

	symmetry c1
}
set optking {
	frozen_dihedral = ("
		9 5 3 6
	")
}

ee,wfn = optimize('scf', return_wfn=True)
oeprop( wfn, 'DIPOLE', 'QUADRUPOLE', 'MULLIKEN_CHARGES')
f=open( 'psi4out.xyz', 'w' )
f.write( "25  " )
f.write( str(ee) + "\n" )
f.write( MOL.save_string_xyz() )
f.close()
--------------------------------------------------------------------------

    Molecular point group: c1
  Charge       = 0
  Multiplicity = 1
  Basis Set: CC-PVTZ
  Basis Set:
  @DF-RHF Final Energy:  -387.23293508415640
    Total Energy =                       -387.2329350841559972
    Molecular point group: c1
  Basis Set: CC-PVTZ
  Basis Set:
  Basis Set: CC-PVTZ
  Basis Set:
  @DF-RHF Final Energy:  -387.25470179378004
    Total Energy =                       -387.2547017937797591
  Basis Set: CC-PVTZ
  Basis Set:
  Basis Set: CC-PVTZ
  Basis Set:
  @DF-RHF Final Energy:  -387.25917535384815
    Total Energy =                       -387.2591753538487183
  Basis Set: CC-PVTZ
  Basis Set:
  Basis Set: CC-PVTZ
  Basis Set:
  @DF-RHF Final Energy:  -387.25923140919883
    Total Energy =                       -387.2592314091989465
  Basis Set: CC-PVTZ
  Basis Set:
  @DF-RHF Final Energy:  -387.25905814244481
    Total Energy =                       -387.2590581424448146
  @DF-RHF Final Energy:  -387.26138008046905
    Total Energy =                       -387.2613800804689390
  @DF-RHF Final Energy:  -387.26160133151268
    Total Energy =                       -387.2616013315129067
  @DF-RHF Final Energy:  -387.26207123523216
    Total Energy =                       -387.2620712352320425
  @DF-RHF Final Energy:  -387.25929416006716
    Total Energy =                       -387.2592941600670429
  @DF-RHF Final Energy:  -387.26256759809831
    Total Energy =                       -387.2625675980980304
  @DF-RHF Final Energy:  -387.26285902759230
    Total Energy =                       -387.2628590275917304
  @DF-RHF Final Energy:  -387.26313913189608
    Total Energy =                       -387.2631391318961960
  @DF-RHF Final Energy:  -387.26321657584441
    Total Energy =                       -387.2632165758445808
  @DF-RHF Final Energy:  -387.26333540851840
    Total Energy =                       -387.2633354085179462
  @DF-RHF Final Energy:  -387.26353287712766
    Total Energy =                       -387.2635328771270906
  @DF-RHF Final Energy:  -387.26364239269873
    Total Energy =                       -387.2636423926988982
  @DF-RHF Final Energy:  -387.26373536171076
    Total Energy =                       -387.2637353617105873
  Basis Set: CC-PVTZ
  Basis Set:
  @DF-RHF Final Energy:  -387.26377781660716
    Total Energy =                       -387.2637778166073304
  Basis Set: CC-PVTZ
  Basis Set:
  Basis Set: CC-PVTZ
  Basis Set:
  @DF-RHF Final Energy:  -387.26377777177095
    Total Energy =                       -387.2637777717710605
  Basis Set: CC-PVTZ
  Basis Set:
  Basis Set: CC-PVTZ
  Basis Set:
  @DF-RHF Final Energy:  -387.26379362877162
    Total Energy =                       -387.2637936287719640
  Basis Set: CC-PVTZ
  Basis Set:
  Charge       = 0
  Multiplicity = 1
  Basis Set: CC-PVTZ
  Basis Set:

    Orbital Energies (a.u.)
    -----------------------

    Doubly Occupied:

       1A    -20.536064     2A    -11.319818     3A    -11.228110
       4A    -11.227564     5A    -11.226458     6A    -11.215757
       7A    -11.214180     8A    -11.213568     9A    -11.207148
      10A     -1.396864    11A     -1.095622    12A     -1.055903
      13A     -1.011857    14A     -0.971364    15A     -0.894491
      16A     -0.821800    17A     -0.794615    18A     -0.725076
      19A     -0.664915    20A     -0.644203    21A     -0.637419
      22A     -0.618268    23A     -0.605101    24A     -0.584971
      25A     -0.567027    26A     -0.561770    27A     -0.541381
      28A     -0.539764    29A     -0.511835    30A     -0.499098
      31A     -0.488034    32A     -0.471479    33A     -0.467099
      34A     -0.462630    35A     -0.445994    36A     -0.399042

  @DF-RHF Final Energy:  -387.26379415133374

   => Energetics <=

    Nuclear Repulsion Energy =            452.4736984678352201
    One-Electron Energy =               -1421.7424072974399678
    Two-Electron Energy =                 582.0049146782707794
    DFT Exchange-Correlation Energy =       0.0000000000000000
    Empirical Dispersion Energy =           0.0000000000000000
    PCM Polarization Energy =               0.0000000000000000
    EFP Energy =                            0.0000000000000000
    Total Energy =                       -387.2637941513339683
    Molecular point group: c1
  Basis Set: CC-PVTZ
  Basis Set:

  -Total Gradient:
     Atom            X                  Y                   Z
    ------   -----------------  -----------------  -----------------
       1       -0.000082401389    -0.000014788218    -0.000058172384
       2        0.000086553221    -0.000042283362     0.000138897252
       3        0.000764296428     0.000388463433    -0.001075169830
       4       -0.000047042177     0.000036364734    -0.000029367886
       5        0.000652388242     0.001065578405     0.000561013251
       6       -0.000737278092    -0.000501728196     0.000827942918
       7        0.000008604134     0.000016896956    -0.000011748622
       8       -0.000040561533     0.000000814052     0.000014162443
       9       -0.000690982661    -0.000945259976    -0.000304399815
      10        0.000011983103    -0.000008310526    -0.000003094521
      11        0.000005937947     0.000033894996     0.000021590762
      12       -0.000000720385    -0.000005478622    -0.000004568891
      13        0.000025064240    -0.000004987892    -0.000030925306
      14       -0.000001064883    -0.000000034159     0.000005159240
      15       -0.000001451831    -0.000000058988     0.000011283978
      16        0.000000449377    -0.000009410334    -0.000004108636
      17        0.000003512359    -0.000006403179    -0.000001548841
      18        0.000001881687     0.000004292851     0.000012191690
      19        0.000010033998    -0.000000623039    -0.000007385017
      20       -0.000000431625     0.000006361080     0.000004510183
      21       -0.000002469751    -0.000001395037    -0.000005480453
      22       -0.000011294494    -0.000001809011    -0.000013769970
      23       -0.000010561168     0.000019975056    -0.000065110038
      24        0.000028210941    -0.000017462716    -0.000015213644
      25        0.000027344309    -0.000012608311     0.000033312138

  **** Optimization is complete! (in 21 steps) ****
    Final optimized geometry and variables:
    Molecular point group: c1

    Geometry (in Angstrom), charge = 0, multiplicity = 1:

    O            2.097047265838    -0.726505276919     1.683515601906
    C            1.696455621373    -1.458156712958     0.837668841011
    C            0.297974016039    -2.045949174106     0.905812094312
    C            2.564955697958    -1.862742120235    -0.329711374752
    C           -0.847552807972    -1.089944054144     0.460068544275
    H            0.259483098396    -2.956089528208     0.320170651774
    H            0.143825323108    -2.325996095441     1.939211436044
    C           -0.439193685853     0.250537759035    -0.150857645514
    H           -1.485831005522    -0.900337939970     1.314306235792
    H           -1.466035766907    -1.619639778544    -0.255995838973
    C           -1.646481798903     1.086106752421    -0.567644032798
    H            0.157437977937     0.810276529185     0.559571303165
    H            0.191068535255     0.085825754039    -1.021625786391
    C           -1.266982851753     2.433237477865    -1.176115906966
    H           -2.282645643623     1.251951784088     0.298486922959
    H           -2.245960682473     0.526740541957    -1.282300363589
    C           -2.476260187896     3.265822524931    -1.588591893996
    H           -0.670286514082     2.993373518910    -0.461906340508
    H           -0.630790212899     2.269802244192    -2.041834273928
    H           -3.114556570851     3.477198699634    -0.737125377166
    H           -2.172435393835     4.214088446285    -2.016780043512
    H           -3.075999707392     2.746059016735    -2.328568195110
    H            2.034233823686    -1.737611698258    -1.266467023505
    H            3.474645040878    -1.281971183186    -0.335851976587
    H            2.809966074778    -2.916515753309    -0.239396386146

  Mulliken Charges: (a.u.)
   Center  Symbol    Alpha    Beta     Spin     Total
       1     O     4.18394  4.18394  0.00000 -0.36789
       2     C     2.84764  2.84764  0.00000  0.30472
       3     C     3.10807  3.10807  0.00000 -0.21613
       4     C     3.15448  3.15448  0.00000 -0.30896
       5     C     3.09534  3.09534  0.00000 -0.19068
       6     H     0.44692  0.44692  0.00000  0.10615
       7     H     0.43792  0.43792  0.00000  0.12415
       8     C     3.10502  3.10502  0.00000 -0.21005
       9     H     0.44626  0.44626  0.00000  0.10747
      10     H     0.44923  0.44923  0.00000  0.10154
      11     C     3.08818  3.08818  0.00000 -0.17636
      12     H     0.43742  0.43742  0.00000  0.12517
      13     H     0.45436  0.45436  0.00000  0.09129
      14     C     3.08348  3.08348  0.00000 -0.16697
      15     H     0.45352  0.45352  0.00000  0.09296
      16     H     0.45587  0.45587  0.00000  0.08827
      17     C     3.15099  3.15099  0.00000 -0.30197
      18     H     0.45209  0.45209  0.00000  0.09583
      19     H     0.45545  0.45545  0.00000  0.08910
      20     H     0.45469  0.45469  0.00000  0.09063
      21     H     0.44799  0.44799  0.00000  0.10402
      22     H     0.45579  0.45579  0.00000  0.08843
      23     H     0.45142  0.45142  0.00000  0.09717
      24     H     0.43672  0.43672  0.00000  0.12656
      25     H     0.44722  0.44722  0.00000  0.10556

   Total alpha = 36.00000, Total beta = 36.00000, Total charge = -0.00000

*** Psi4 exiting successfully. Buy a developer a beer!
