                              Psi4 1.0.54 Driver

  ==> Input File <==

--------------------------------------------------------------------------
set {
	reference rhf
	basis cc-pvtz
}

set_num_threads( 4 )
memory 2 gb

molecule MOL {
0 1

H	 -2.362939	 -1.309000	 -0.383250
C	 -1.359344	 -1.272457	 0.020748
C	 -0.684082	 0.000127	 -0.464918
H	 -0.825835	 -2.151141	 -0.318537
H	 -1.416276	 -1.292399	 1.099455
C	 -1.359089	 1.272668	 0.021259
N	 0.742439	 -0.000109	 0.007333
H	 -0.596914	 0.000345	 -1.538146
H	 -2.362696	 1.309620	 -0.382686
H	 -0.825392	 2.151374	 -0.317674
H	 -1.415983	 1.292181	 1.099973
O	 1.316677	 1.036178	 0.005133
O	 1.203855	 -1.036545	 0.352564

	symmetry c1
}
set optking {
	frozen_dihedral = ("
		12 7 3 8
	")
}

ee,wfn = optimize('scf', return_wfn=True)
oeprop( wfn, 'DIPOLE', 'QUADRUPOLE', 'MULLIKEN_CHARGES')
f=open( 'psi4out.xyz', 'w' )
f.write( "13  " )
f.write( str(ee) + "\n" )
f.write( MOL.save_string_xyz() )
f.close()
--------------------------------------------------------------------------

    Molecular point group: c1
  Charge       = 0
  Multiplicity = 1
  Basis Set: CC-PVTZ
  Basis Set:
  @DF-RHF Final Energy:  -321.86124364908773
    Total Energy =                       -321.8612436490875552
    Molecular point group: c1
  Basis Set: CC-PVTZ
  Basis Set:
  Basis Set: CC-PVTZ
  Basis Set:
  @DF-RHF Final Energy:  -321.85867331961981
    Total Energy =                       -321.8586733196196974
  Basis Set: CC-PVTZ
  Basis Set:
  Basis Set: CC-PVTZ
  Basis Set:
  @DF-RHF Final Energy:  -321.85936137117159
    Total Energy =                       -321.8593613711718717
  Basis Set: CC-PVTZ
  Basis Set:
  Basis Set: CC-PVTZ
  Basis Set:
  @DF-RHF Final Energy:  -321.86086830903685
    Total Energy =                       -321.8608683090369595
  Basis Set: CC-PVTZ
  Basis Set:
  Basis Set: CC-PVTZ
  Basis Set:
  @DF-RHF Final Energy:  -321.86217392094585
    Total Energy =                       -321.8621739209456791
  Basis Set: CC-PVTZ
  Basis Set:
  Basis Set: CC-PVTZ
  Basis Set:
  @DF-RHF Final Energy:  -321.86219776157520
    Total Energy =                       -321.8621977615752030
  Basis Set: CC-PVTZ
  Basis Set:
  Charge       = 0
  Multiplicity = 1
  Basis Set: CC-PVTZ
  Basis Set:

    Orbital Energies (a.u.)
    -----------------------

    Doubly Occupied:

       1A    -20.589715     2A    -20.587168     3A    -15.834000
       4A    -11.307027     5A    -11.239202     6A    -11.237650
       7A     -1.634519     8A     -1.418149     9A     -1.139659
      10A     -0.967587    11A     -0.958377    12A     -0.814938
      13A     -0.765107    14A     -0.730075    15A     -0.722913
      16A     -0.639683    17A     -0.596092    18A     -0.586277
      19A     -0.570372    20A     -0.522089    21A     -0.521386
      22A     -0.483271    23A     -0.472407    24A     -0.452238

  @DF-RHF Final Energy:  -321.86219899939300

   => Energetics <=

    Nuclear Repulsion Energy =            257.2249004567777888
    One-Electron Energy =                -948.5943950123689774
    Two-Electron Energy =                 369.5072955561981871
    DFT Exchange-Correlation Energy =       0.0000000000000000
    Empirical Dispersion Energy =           0.0000000000000000
    PCM Polarization Energy =               0.0000000000000000
    EFP Energy =                            0.0000000000000000
    Total Energy =                       -321.8621989993930583
    Molecular point group: c1
  Basis Set: CC-PVTZ
  Basis Set:

  -Total Gradient:
     Atom            X                  Y                   Z
    ------   -----------------  -----------------  -----------------
       1       -0.000002117753    -0.000010994725     0.000007504647
       2       -0.000033673326    -0.000017494497     0.000005097889
       3        0.000078789336     0.000791138404     0.000252351324
       4       -0.000009608051     0.000015394090     0.000002689166
       5       -0.000012930444    -0.000016189302     0.000003917842
       6        0.000011188548     0.000003152400    -0.000007528421
       7        0.000279308791    -0.000096917932    -0.000848827036
       8       -0.000065785786    -0.000649590045    -0.000025134948
       9        0.000003882645    -0.000002112479     0.000001891519
      10       -0.000000210030    -0.000005603615    -0.000005658934
      11       -0.000003773996     0.000000656331     0.000003241391
      12       -0.000255086894     0.000070681824     0.000611629578
      13        0.000010016963    -0.000082120456    -0.000001174017

  **** Optimization is complete! (in 7 steps) ****
    Final optimized geometry and variables:
    Molecular point group: c1

    Geometry (in Angstrom), charge = 0, multiplicity = 1:

    H           -2.524958009088    -0.956950080570    -0.435906913235
    C           -1.529772047337    -1.100977999173    -0.034546205691
    C           -0.674828883831     0.082103498151    -0.450697451642
    H           -1.136030762933    -2.031543204745    -0.410144891399
    H           -1.602832837788    -1.168987943352     1.043083387232
    C           -1.222935055037     1.419964883212     0.017873206282
    N            0.748363851029    -0.088284476085     0.032878834762
    H           -0.553246510335     0.088298909966    -1.526548203458
    H           -2.224783296707     1.536002023726    -0.374872730114
    H           -0.616311797335     2.241351442626    -0.326195132550
    H           -1.276466263172     1.456559912675     1.099072061439
    O            1.432649322693     0.879350079293     0.051380615358
    O            1.109621560573    -1.176361708640     0.329167973847

  Mulliken Charges: (a.u.)
   Center  Symbol    Alpha    Beta     Spin     Total
       1     H     0.45062  0.45062  0.00000  0.09876
       2     C     3.14270  3.14270  0.00000 -0.28540
       3     C     3.00664  3.00664  0.00000 -0.01327
       4     H     0.43315  0.43315  0.00000  0.13370
       5     H     0.44516  0.44516  0.00000  0.10968
       6     C     3.14378  3.14378  0.00000 -0.28755
       7     N     3.27535  3.27535  0.00000  0.44929
       8     H     0.43057  0.43057  0.00000  0.13886
       9     H     0.45055  0.45055  0.00000  0.09889
      10     H     0.43083  0.43083  0.00000  0.13834
      11     H     0.44648  0.44648  0.00000  0.10705
      12     O     4.17347  4.17347  0.00000 -0.34694
      13     O     4.17070  4.17070  0.00000 -0.34140

   Total alpha = 24.00000, Total beta = 24.00000, Total charge = -0.00000

*** Psi4 exiting successfully. Buy a developer a beer!
