  ==> Input File <==

--------------------------------------------------------------------------
set {
	reference rhf
	basis 6-31G*
}

set_num_threads( 1 )
memory 2 gb

molecule MOL {
0 1

H	 3.516416	 0.916638	 0.622112
O	 2.602645	 0.778034	 0.851390
C	 2.077727	 -0.067559	 -0.035091
C	 0.624473	 -0.343591	 0.253101
O	 2.715669	 -0.523108	 -0.927571
C	 -0.265902	 0.883932	 0.072916
H	 0.324016	 -1.163849	 -0.390541
H	 0.565024	 -0.726111	 1.268924
C	 -1.728698	 0.646073	 0.462102
H	 -0.209144	 1.219470	 -0.958188
H	 0.135059	 1.692851	 0.673903
C	 -2.482460	 -0.343073	 -0.431425
H	 -2.245265	 1.602650	 0.432430
H	 -1.779332	 0.308348	 1.496285
C	 -3.960546	 -0.461025	 -0.060175
H	 -2.395034	 -0.026811	 -1.468912
H	 -2.024850	 -1.327147	 -0.371646
H	 -4.472726	 -1.168004	 -0.705284
H	 -4.465146	 0.496508	 -0.151489
H	 -4.081218	 -0.800940	 0.964585

	symmetry c1
}
set optking {
	frozen_dihedral = ("
		16 12 9 6,
		7 4 6 10,
		12 9 6 10,
		1 2 3 5
	")
}

ee = energy('scf')
oeprop('DIPOLE', 'QUADRUPOLE', 'MULLIKEN_CHARGES')
f=open( 'psi4out.xyz', 'w' )
f.write( "20  " )
f.write( str(ee) + "\n" )
f.write( MOL.save_string_xyz() )
f.close()
--------------------------------------------------------------------------

    Molecular point group: c1

    Geometry (in Angstrom), charge = 0, multiplicity = 1:

       Center              X                  Y                   Z               Mass
    ------------   -----------------  -----------------  -----------------  -----------------
           H          3.525247157198     0.840087941181     0.593323669662     1.007825032070
           O          2.611476157198     0.701483941181     0.822601669662    15.994914619560
           C          2.086558157198    -0.144109058819    -0.063879330338    12.000000000000
           C          0.633304157198    -0.420141058819     0.224312669662    12.000000000000
           O          2.724500157198    -0.599658058819    -0.956359330338    15.994914619560
           C         -0.257070842802     0.807381941181     0.044127669662    12.000000000000
           H          0.332847157198    -1.240399058819    -0.419329330338     1.007825032070
           H          0.573855157198    -0.802661058819     1.240135669662     1.007825032070
           C         -1.719866842802     0.569522941181     0.433313669662    12.000000000000
           H         -0.200312842802     1.142919941181    -0.986976330338     1.007825032070
           H          0.143890157198     1.616300941181     0.645114669662     1.007825032070
           C         -2.473628842802    -0.419623058819    -0.460213330338    12.000000000000
           H         -2.236433842802     1.526099941181     0.403641669662     1.007825032070
           H         -1.770500842802     0.231797941181     1.467496669662     1.007825032070
           C         -3.951714842802    -0.537575058819    -0.088963330338    12.000000000000
           H         -2.386202842802    -0.103361058819    -1.497700330338     1.007825032070
           H         -2.016018842802    -1.403697058819    -0.400434330338     1.007825032070
           H         -4.463894842802    -1.244554058819    -0.734072330338     1.007825032070
           H         -4.456314842802     0.419957941181    -0.180277330338     1.007825032070
           H         -4.072386842802    -0.877490058819     0.935796669662     1.007825032070

  Charge       = 0
  Multiplicity = 1
  Basis Set: 6-31G*
  Basis Set:

    Orbital Energies (a.u.)
    -----------------------

    Doubly Occupied:

       1A    -20.612563     2A    -20.550182     3A    -11.379833
       4A    -11.238273     5A    -11.231668     6A    -11.224399
       7A    -11.221730     8A    -11.213567     9A     -1.473960
      10A     -1.364378    11A     -1.099935    12A     -1.042518
      13A     -0.960748    14A     -0.864813    15A     -0.823225
      16A     -0.790205    17A     -0.700897    18A     -0.686110
      19A     -0.643443    20A     -0.635125    21A     -0.617288
      22A     -0.592848    23A     -0.578580    24A     -0.554880
      25A     -0.539761    26A     -0.520107    27A     -0.499743
      28A     -0.483023    29A     -0.477268    30A     -0.470333
      31A     -0.458506    32A     -0.434865

  @DF-RHF Final Energy:  -383.94701506450764

   => Energetics <=

    Nuclear Repulsion Energy =            376.4454261264308457
    One-Electron Energy =               -1268.8152998284290334
    Two-Electron Energy =                 508.4228586374908332
    DFT Exchange-Correlation Energy =       0.0000000000000000
    Empirical Dispersion Energy =           0.0000000000000000
    PCM Polarization Energy =               0.0000000000000000
    EFP Energy =                            0.0000000000000000
    Total Energy =                       -383.9470150645072977

  Mulliken Charges: (a.u.)
   Center  Symbol    Alpha    Beta     Spin     Total
       1     H     0.26776  0.26776  0.00000  0.46448
       2     O     4.34690  4.34690  0.00000 -0.69380
       3     C     2.63252  2.63252  0.00000  0.73496
       4     C     3.20192  3.20192  0.00000 -0.40384
       5     O     4.27803  4.27803  0.00000 -0.55606
       6     C     3.16660  3.16660  0.00000 -0.33320
       7     H     0.39624  0.39624  0.00000  0.20752
       8     H     0.40337  0.40337  0.00000  0.19326
       9     C     3.15442  3.15442  0.00000 -0.30884
      10     H     0.41287  0.41287  0.00000  0.17425
      11     H     0.40442  0.40442  0.00000  0.19116
      12     C     3.15488  3.15488  0.00000 -0.30975
      13     H     0.41794  0.41794  0.00000  0.16413
      14     H     0.42138  0.42138  0.00000  0.15724
      15     C     3.23962  3.23962  0.00000 -0.47925
      16     H     0.42073  0.42073  0.00000  0.15853
      17     H     0.42082  0.42082  0.00000  0.15835
      18     H     0.41750  0.41750  0.00000  0.16500
      19     H     0.42090  0.42090  0.00000  0.15820
      20     H     0.42117  0.42117  0.00000  0.15766

   Total alpha = 32.00000, Total beta = 32.00000, Total charge = -0.00000
