  ==> Input File <==

--------------------------------------------------------------------------
set {
	reference rhf
	basis 6-31G*
}

set_num_threads( 1 )
memory 2 gb

molecule MOL {
0 1

O	 -1.970288	 -0.604191	 0.405231
C	 -1.083277	 0.139568	 0.115197
C	 0.323299	 -0.082943	 0.642902
C	 -1.315216	 1.347504	 -0.765101
C	 1.355627	 -0.005344	 -0.493127
H	 0.396251	 -1.044647	 1.143147
H	 0.528637	 0.693580	 1.371677
C	 2.786168	 -0.195604	 0.007473
H	 1.132807	 -0.760304	 -1.243899
H	 1.259610	 0.958506	 -0.981915
H	 3.495561	 -0.130713	 -0.811210
H	 2.912696	 -1.165395	 0.480041
H	 3.049284	 0.565503	 0.735850
H	 -0.922720	 2.245906	 -0.297672
H	 -2.372051	 1.466116	 -0.959435
H	 -0.787558	 1.219567	 -1.706597

	symmetry c1
}
set optking {
	frozen_dihedral = ("
		9 5 3 2
	")
}

ee = energy('scf')
oeprop('DIPOLE', 'QUADRUPOLE', 'MULLIKEN_CHARGES')
f=open( 'psi4out.xyz', 'w' )
f.write( "16  " )
f.write( str(ee) + "\n" )
f.write( MOL.save_string_xyz() )
f.close()
--------------------------------------------------------------------------

    Molecular point group: c1

    Geometry (in Angstrom), charge = 0, multiplicity = 1:

       Center              X                  Y                   Z               Mass
    ------------   -----------------  -----------------  -----------------  -----------------
           O         -1.994048714385    -0.707056791077     0.425190910612    15.994914619560
           C         -1.107037714385     0.036702208923     0.135156910612    12.000000000000
           C          0.299538285615    -0.185808791077     0.662861910612    12.000000000000
           C         -1.338976714385     1.244638208923    -0.745141089388    12.000000000000
           C          1.331866285615    -0.108209791077    -0.473167089388    12.000000000000
           H          0.372490285615    -1.147512791077     1.163106910612     1.007825032070
           H          0.504876285615     0.590714208923     1.391636910612     1.007825032070
           C          2.762407285615    -0.298469791077     0.027432910612    12.000000000000
           H          1.109046285615    -0.863169791077    -1.223939089388     1.007825032070
           H          1.235849285615     0.855640208923    -0.961955089388     1.007825032070
           H          3.471800285615    -0.233578791077    -0.791250089388     1.007825032070
           H          2.888935285615    -1.268260791077     0.500000910612     1.007825032070
           H          3.025523285615     0.462637208923     0.755809910612     1.007825032070
           H         -0.946480714385     2.143040208923    -0.277712089388     1.007825032070
           H         -2.395811714385     1.363250208923    -0.939475089388     1.007825032070
           H         -0.811318714385     1.116701208923    -1.686637089388     1.007825032070

  Charge       = 0
  Multiplicity = 1
  Basis Set: 6-31G*
  Basis Set:

    Orbital Energies (a.u.)
    -----------------------

    Doubly Occupied:

       1A    -20.547456     2A    -11.324530     3A    -11.234608
       4A    -11.230574     5A    -11.229011     6A    -11.221119
       7A     -1.392751     8A     -1.087749     9A     -1.010731
      10A     -0.950894    11A     -0.832637    12A     -0.735678
      13A     -0.658264    14A     -0.652491    15A     -0.618904
      16A     -0.605447    17A     -0.578013    18A     -0.553889
      19A     -0.538265    20A     -0.519015    21A     -0.506188
      22A     -0.486259    23A     -0.473943    24A     -0.397568

  @DF-RHF Final Energy:  -270.02800119889918

   => Energetics <=

    Nuclear Repulsion Energy =            237.8898185136709458
    One-Electron Energy =                -837.0636115342543917
    Two-Electron Energy =                 329.1457918216844405
    DFT Exchange-Correlation Energy =       0.0000000000000000
    Empirical Dispersion Energy =           0.0000000000000000
    PCM Polarization Energy =               0.0000000000000000
    EFP Energy =                            0.0000000000000000
    Total Energy =                       -270.0280011988989486

  Mulliken Charges: (a.u.)
   Center  Symbol    Alpha    Beta     Spin     Total
       1     O     4.26163  4.26163  0.00000 -0.52325
       2     C     2.73214  2.73214  0.00000  0.53572
       3     C     3.20171  3.20171  0.00000 -0.40341
       4     C     3.29358  3.29358  0.00000 -0.58716
       5     C     3.16821  3.16821  0.00000 -0.33642
       6     H     0.39919  0.39919  0.00000  0.20161
       7     H     0.41043  0.41043  0.00000  0.17915
       8     C     3.23889  3.23889  0.00000 -0.47778
       9     H     0.41407  0.41407  0.00000  0.17186
      10     H     0.41751  0.41751  0.00000  0.16499
      11     H     0.41599  0.41599  0.00000  0.16802
      12     H     0.41740  0.41740  0.00000  0.16520
      13     H     0.41998  0.41998  0.00000  0.16004
      14     H     0.40982  0.40982  0.00000  0.18036
      15     H     0.39497  0.39497  0.00000  0.21006
      16     H     0.40449  0.40449  0.00000  0.19101

   Total alpha = 24.00000, Total beta = 24.00000, Total charge = -0.00000
