  ==> Input File <==

--------------------------------------------------------------------------
set {
	reference rhf
	basis 6-31G*
}

set_num_threads( 4 )
memory 2 gb

molecule MOL {
0 1

H	 2.220378	 0.963747	 -1.128567
O	 1.349924	 0.581932	 -1.186138
C	 1.050492	 0.053836	 0.000068
C	 -0.318135	 -0.576402	 0.000164
O	 1.801562	 0.097233	 0.919310
C	 -1.454360	 0.441875	 -0.000474
H	 -0.374042	 -1.230163	 -0.866135
H	 -0.374274	 -1.229227	 0.867154
C	 -2.826123	 -0.230780	 0.000056
H	 -1.357605	 1.085198	 -0.868380
H	 -1.357504	 1.086451	 0.866496
H	 -2.959731	 -0.858053	 -0.876869
H	 -3.619374	 0.509403	 -0.000080
H	 -2.959371	 -0.857318	 0.877556

	symmetry c1
}
set optking {
	frozen_dihedral = ("
		2 3 4 7
	")
}

ee = optimize('scf')
oeprop('DIPOLE', 'QUADRUPOLE', 'MULLIKEN_CHARGES')
f=open( 'psi4out.xyz', 'w' )
f.write( "14  " )
f.write( str(ee) + "\n" )
f.write( MOL.save_string_xyz() )
f.close()
--------------------------------------------------------------------------

    Molecular point group: c1
  Charge       = 0
  Multiplicity = 1
  Basis Set: 6-31G*
  Basis Set:
  @DF-RHF Final Energy:  -305.87899810444253
    Total Energy =                       -305.8789981044425303
    Molecular point group: c1
  Basis Set: 6-31G*
  Basis Set:
  Basis Set: 6-31G*
  Basis Set:
  @DF-RHF Final Energy:  -305.87932763356611
    Total Energy =                       -305.8793276335661631
  Basis Set: 6-31G*
  Basis Set:
  Basis Set: 6-31G*
  Basis Set:
  @DF-RHF Final Energy:  -305.87860357731893
    Total Energy =                       -305.8786035773189269
  Basis Set: 6-31G*
  Basis Set:
  Basis Set: 6-31G*
  Basis Set:
  @DF-RHF Final Energy:  -305.87946465435948
    Total Energy =                       -305.8794646543592535
  Basis Set: 6-31G*
  Basis Set:
  Basis Set: 6-31G*
  Basis Set:
  @DF-RHF Final Energy:  -305.87946791967130
    Total Energy =                       -305.8794679196715833
  Basis Set: 6-31G*
  Basis Set:
  Charge       = 0
  Multiplicity = 1
  Basis Set: 6-31G*
  Basis Set:

    Orbital Energies (a.u.)
    -----------------------

    Doubly Occupied:

       1A    -20.613247     2A    -20.550163     3A    -11.380138
       4A    -11.239651     5A    -11.235615     6A    -11.221261
       7A     -1.474138     8A     -1.364607     9A     -1.086626
      10A     -0.979719    11A     -0.849856    12A     -0.811383
      13A     -0.701681    14A     -0.685192    15A     -0.643800
      16A     -0.633230    17A     -0.593465    18A     -0.565774
      19A     -0.553676    20A     -0.518515    21A     -0.499804
      22A     -0.488867    23A     -0.472696    24A     -0.437980

  @DF-RHF Final Energy:  -305.87946800402904

   => Energetics <=

    Nuclear Repulsion Energy =            240.4350677547598707
    One-Electron Energy =                -893.4269061964453158
    Two-Electron Energy =                 347.1123704376564660
    DFT Exchange-Correlation Energy =       0.0000000000000000
    Empirical Dispersion Energy =           0.0000000000000000
    PCM Polarization Energy =               0.0000000000000000
    EFP Energy =                            0.0000000000000000
    Total Energy =                       -305.8794680040289791
    Molecular point group: c1
  Basis Set: 6-31G*
  Basis Set:

  -Total Gradient:
     Atom            X                  Y                   Z
    ------   -----------------  -----------------  -----------------
       1        0.000004543396     0.000002658367    -0.000004974621
       2        0.000059612938    -0.000095960578    -0.000053074168
       3       -0.000070226701     0.000148576525     0.000096171168
       4        0.000067487264    -0.000138154480     0.000092234781
       5       -0.000011431608     0.000002084676    -0.000027996388
       6        0.000004409890    -0.000000902982    -0.000028394047
       7       -0.000052861174     0.000114297514    -0.000064698147
       8       -0.000001476937    -0.000016179785    -0.000011831311
       9       -0.000005203165    -0.000007597778     0.000011891404
      10       -0.000006197463    -0.000001745980    -0.000005725496
      11        0.000011542647    -0.000008699680    -0.000008250663
      12       -0.000000430155     0.000005970631    -0.000000209229
      13       -0.000001097236     0.000002457861     0.000007750793
      14        0.000001328300    -0.000006804312    -0.000002894083

  **** Optimization is complete! (in 6 steps) ****
    Final optimized geometry and variables:
    Molecular point group: c1

    Geometry (in Angstrom), charge = 0, multiplicity = 1:

    H            2.233426653244     0.946982255944    -1.032455612931
    O            1.375325260892     0.541180674790    -1.108858222260
    C            1.082282227757    -0.030184576293     0.059550168661
    C           -0.277426340463    -0.676850460841     0.053085736211
    O            1.829372461927     0.002433060487     0.982738989041
    C           -1.408143548000     0.363398021369     0.040087222278
    H           -0.353420112777    -1.309633075394    -0.825293274861
    H           -0.342689240082    -1.299891926397     0.935449660593
    C           -2.786777433871    -0.293575117038     0.069031564986
    H           -1.314510684070     0.984146377602    -0.844554537850
    H           -1.298991170792     1.018685095117     0.899840545078
    H           -2.933731715527    -0.935056567025    -0.794936680338
    H           -3.571786605844     0.455378942486     0.063122990883
    H           -2.914251269429    -0.900979871494     0.960035534022

  Mulliken Charges: (a.u.)
   Center  Symbol    Alpha    Beta     Spin     Total
       1     H     0.26763  0.26763  0.00000  0.46474
       2     O     4.34762  4.34762  0.00000 -0.69524
       3     C     2.63303  2.63303  0.00000  0.73395
       4     C     3.19749  3.19749  0.00000 -0.39498
       5     O     4.27816  4.27816  0.00000 -0.55633
       6     C     3.16551  3.16551  0.00000 -0.33103
       7     H     0.40274  0.40274  0.00000  0.19453
       8     H     0.39759  0.39759  0.00000  0.20482
       9     C     3.24116  3.24116  0.00000 -0.48232
      10     H     0.40681  0.40681  0.00000  0.18638
      11     H     0.41122  0.41122  0.00000  0.17757
      12     H     0.41878  0.41878  0.00000  0.16244
      13     H     0.41440  0.41440  0.00000  0.17120
      14     H     0.41786  0.41786  0.00000  0.16428

   Total alpha = 24.00000, Total beta = 24.00000, Total charge =  0.00000
