                              Psi4 1.0.54 Driver

  ==> Input File <==

--------------------------------------------------------------------------
set {
	reference rhf
	basis cc-pvtz
}

set_num_threads( 4 )
memory 2 gb

molecule MOL {
0 1

H	 -2.266619	 1.169943	 0.000098
O	 -1.438073	 1.611259	 0.000041
C	 -0.408657	 0.734701	 0.000005
C	 0.340282	 0.650967	 -1.159084
C	 -0.105416	 -0.051753	 1.105286
H	 0.074457	 1.274477	 -1.990049
C	 1.405087	 -0.222077	 -1.229467
C	 0.969729	 -0.919976	 1.006394
C	 -0.923676	 0.040813	 2.369440
H	 1.981992	 -0.281677	 -2.132578
C	 1.726530	 -1.014388	 -0.144411
H	 1.216988	 -1.534654	 1.851972
H	 -1.964795	 -0.216323	 2.195451
H	 -0.545858	 -0.639245	 3.119251
H	 -0.895303	 1.039709	 2.795735
H	 2.553442	 -1.695804	 -0.191923

	symmetry c1
}
set optking {
	frozen_dihedral = ("
		4 3 2 1
	")
}

ee,wfn = optimize('scf', return_wfn=True)
oeprop( wfn, 'DIPOLE', 'QUADRUPOLE', 'MULLIKEN_CHARGES')
f=open( 'psi4out.xyz', 'w' )
f.write( "16  " )
f.write( str(ee) + "\n" )
f.write( MOL.save_string_xyz() )
f.close()
--------------------------------------------------------------------------

    Molecular point group: c1
  Charge       = 0
  Multiplicity = 1
  Basis Set: CC-PVTZ
  Basis Set:
  @DF-RHF Final Energy:  -344.71574958832434
    Total Energy =                       -344.7157495883238880
    Molecular point group: c1
  Basis Set: CC-PVTZ
  Basis Set:
  Basis Set: CC-PVTZ
  Basis Set:
  @DF-RHF Final Energy:  -344.71640384930669
    Total Energy =                       -344.7164038493070848
  Basis Set: CC-PVTZ
  Basis Set:
  Basis Set: CC-PVTZ
  Basis Set:
  @DF-RHF Final Energy:  -344.71647020412053
    Total Energy =                       -344.7164702041203554
  Basis Set: CC-PVTZ
  Basis Set:
  Basis Set: CC-PVTZ
  Basis Set:
  @DF-RHF Final Energy:  -344.71648325579736
    Total Energy =                       -344.7164832557975842
  Basis Set: CC-PVTZ
  Basis Set:
  Basis Set: CC-PVTZ
  Basis Set:
  @DF-RHF Final Energy:  -344.71648664147489
    Total Energy =                       -344.7164866414751714
  Basis Set: CC-PVTZ
  Basis Set:
  Charge       = 0
  Multiplicity = 1
  Basis Set: CC-PVTZ
  Basis Set:

    Orbital Energies (a.u.)
    -----------------------

    Doubly Occupied:

       1A    -20.571022     2A    -11.283311     3A    -11.234068
       4A    -11.226959     5A    -11.226681     6A    -11.222473
       7A    -11.221843     8A    -11.221820     9A     -1.397608
      10A     -1.153690    11A     -1.049079    12A     -1.007292
      13A     -0.937492    14A     -0.830421    15A     -0.812956
      16A     -0.730452    17A     -0.673217    18A     -0.656272
      19A     -0.625426    20A     -0.595096    21A     -0.574065
      22A     -0.570495    23A     -0.548702    24A     -0.524464
      25A     -0.503336    26A     -0.488125    27A     -0.467843
      28A     -0.333455    29A     -0.321418

  @DF-RHF Final Energy:  -344.71648718693444

   => Energetics <=

    Nuclear Repulsion Energy =            350.5391041272890220
    One-Electron Energy =               -1162.4930247360666726
    Two-Electron Energy =                 467.2374334218432068
    DFT Exchange-Correlation Energy =       0.0000000000000000
    Empirical Dispersion Energy =           0.0000000000000000
    PCM Polarization Energy =               0.0000000000000000
    EFP Energy =                            0.0000000000000000
    Total Energy =                       -344.7164871869345006
    Molecular point group: c1
  Basis Set: CC-PVTZ
  Basis Set:

  -Total Gradient:
     Atom            X                  Y                   Z
    ------   -----------------  -----------------  -----------------
       1       -0.000007257213     0.000059895092    -0.001265044185
       2       -0.000306103497    -0.000336600502     0.001414888214
       3        0.000913715749     0.000891051960     0.000148096522
       4       -0.000646268170    -0.000565549554    -0.000341493097
       5        0.000038609751    -0.000030181077     0.000040920667
       6        0.000004542828    -0.000010756966     0.000012219234
       7        0.000045549284    -0.000057640673     0.000034909805
       8       -0.000078501494     0.000061457147     0.000043742427
       9       -0.000004670399    -0.000021634325    -0.000031088654
      10        0.000005523900    -0.000001369151    -0.000007862075
      11        0.000025513726     0.000014143302    -0.000073048934
      12        0.000002587707    -0.000007809506     0.000006670081
      13        0.000009341020     0.000004062869     0.000001072085
      14       -0.000003361412     0.000002232436     0.000009960554
      15        0.000010261884    -0.000001919568     0.000002443860
      16       -0.000009483666     0.000000618511     0.000003613494

  **** Optimization is complete! (in 6 steps) ****
    Final optimized geometry and variables:
    Molecular point group: c1

    Geometry (in Angstrom), charge = 0, multiplicity = 1:

    H           -2.385114531234     1.052784624415    -0.225883643100
    O           -1.551933326130     1.490528709989    -0.221539681561
    C           -0.527417556768     0.585232986146    -0.276739651560
    C            0.221306633436     0.507060172427    -1.431817182245
    C           -0.230851726748    -0.204052886255     0.827986002563
    H           -0.037866175251     1.139849687280    -2.258136608547
    C            1.289846732725    -0.366708891888    -1.506192827310
    C            0.839383112879    -1.076826298228     0.729163360463
    C           -1.051749224338    -0.100321198269     2.087112722845
    H            1.872693774128    -0.422463363601    -2.405524787384
    C            1.598466723444    -1.163698730841    -0.423703521144
    H            1.086858704480    -1.695495811163     1.571537720044
    H           -2.070440681062    -0.440924748281     1.928762169701
    H           -0.623649859902    -0.705608017819     2.874264081001
    H           -1.105985815800     0.924337806151     2.432216525479
    H            2.425288364573    -1.845982250694    -0.470405563577

  Mulliken Charges: (a.u.)
   Center  Symbol    Alpha    Beta     Spin     Total
       1     H     0.38834  0.38834  0.00000  0.22332
       2     O     4.18841  4.18841  0.00000 -0.37682
       3     C     2.88433  2.88433  0.00000  0.23133
       4     C     3.10689  3.10689  0.00000 -0.21379
       5     C     2.99742  2.99742  0.00000  0.00516
       6     H     0.41756  0.41756  0.00000  0.16488
       7     C     3.07562  3.07562  0.00000 -0.15124
       8     C     3.09296  3.09296  0.00000 -0.18591
       9     C     3.15101  3.15101  0.00000 -0.30203
      10     H     0.42209  0.42209  0.00000  0.15581
      11     C     3.08015  3.08015  0.00000 -0.16030
      12     H     0.42470  0.42470  0.00000  0.15059
      13     H     0.45605  0.45605  0.00000  0.08791
      14     H     0.45051  0.45051  0.00000  0.09897
      15     H     0.43987  0.43987  0.00000  0.12026
      16     H     0.42408  0.42408  0.00000  0.15184

   Total alpha = 29.00000, Total beta = 29.00000, Total charge = -0.00000

*** Psi4 exiting successfully. Buy a developer a beer!
