  ==> Input File <==

--------------------------------------------------------------------------
set {
	reference rhf
	basis 6-31G*
}

set_num_threads( 4 )
memory 2 gb

molecule MOL {
0 1

H	 -3.161837	 0.500524	 -0.000234
C	 -2.367097	 -0.232926	 -0.000000
O	 -1.158440	 0.455814	 -0.000122
H	 -2.468853	 -0.861886	 -0.882833
H	 -2.468942	 -0.861421	 0.883154
C	 -0.029776	 -0.365156	 0.000148
C	 1.212217	 0.508981	 0.000007
H	 -0.036772	 -1.013236	 -0.877259
H	 -0.036869	 -1.012778	 0.877897
C	 0.883402	 1.991579	 0.169320
H	 1.867206	 0.176553	 0.799471
H	 1.747006	 0.347197	 -0.930867
H	 0.368714	 2.178859	 1.107641
H	 1.787198	 2.591564	 0.165188
H	 0.246988	 2.350636	 -0.634706

	symmetry c1
}
set optking {
	frozen_dihedral = ("
		11 7 6 8
	")
}

ee = optimize('scf')
oeprop('DIPOLE', 'QUADRUPOLE', 'MULLIKEN_CHARGES')
f=open( 'psi4out.xyz', 'w' )
f.write( "15  " )
f.write( str(ee) + "\n" )
f.write( MOL.save_string_xyz() )
f.close()
--------------------------------------------------------------------------

    Molecular point group: c1
  Charge       = 0
  Multiplicity = 1
  Basis Set: 6-31G*
  Basis Set:
  @DF-RHF Final Energy:  -232.12979852337790
    Total Energy =                       -232.1297985233777581
    Molecular point group: c1
  Basis Set: 6-31G*
  Basis Set:
  Basis Set: 6-31G*
  Basis Set:
  @DF-RHF Final Energy:  -232.13022801195916
    Total Energy =                       -232.1302280119591614
  Basis Set: 6-31G*
  Basis Set:
  Basis Set: 6-31G*
  Basis Set:
  @DF-RHF Final Energy:  -232.13148230218286
    Total Energy =                       -232.1314823021830307
  Basis Set: 6-31G*
  Basis Set:
  Basis Set: 6-31G*
  Basis Set:
  @DF-RHF Final Energy:  -232.13152461991908
    Total Energy =                       -232.1315246199191051
  Basis Set: 6-31G*
  Basis Set:
  Basis Set: 6-31G*
  Basis Set:
  @DF-RHF Final Energy:  -232.13152609817118
    Total Energy =                       -232.1315260981713209
  Basis Set: 6-31G*
  Basis Set:
  Basis Set: 6-31G*
  Basis Set:
  @DF-RHF Final Energy:  -232.13152835528066
    Total Energy =                       -232.1315283552806932
  Basis Set: 6-31G*
  Basis Set:
  Charge       = 0
  Multiplicity = 1
  Basis Set: 6-31G*
  Basis Set:

    Orbital Energies (a.u.)
    -----------------------

    Doubly Occupied:

       1A    -20.553439     2A    -11.267525     3A    -11.264424
       4A    -11.215758     5A    -11.199982     6A     -1.378390
       7A     -1.047481     8A     -0.947892     9A     -0.889585
      10A     -0.792807    11A     -0.673267    12A     -0.655196
      13A     -0.633823    14A     -0.602392    15A     -0.550754
      16A     -0.540765    17A     -0.503676    18A     -0.478918
      19A     -0.475377    20A     -0.460445    21A     -0.408645

  @DF-RHF Final Energy:  -232.13152857136279

   => Energetics <=

    Nuclear Repulsion Energy =            193.4091980008621761
    One-Electron Energy =                -698.0003687866160362
    Two-Electron Energy =                 272.4596422143910104
    DFT Exchange-Correlation Energy =       0.0000000000000000
    Empirical Dispersion Energy =           0.0000000000000000
    PCM Polarization Energy =               0.0000000000000000
    EFP Energy =                            0.0000000000000000
    Total Energy =                       -232.1315285713628782
    Molecular point group: c1
  Basis Set: 6-31G*
  Basis Set:

  -Total Gradient:
     Atom            X                  Y                   Z
    ------   -----------------  -----------------  -----------------
       1        0.000002495443     0.000000767760    -0.000000091383
       2       -0.000003836724    -0.000003313217     0.000002424241
       3        0.000024488340    -0.000007017399     0.000007648013
       4        0.000003164945     0.000000978254     0.000000886115
       5        0.000001416733     0.000000924933    -0.000001766340
       6        0.001226311777    -0.001768437676     0.001905359377
       7        0.001016388635    -0.001494773852    -0.002173286546
       8       -0.001198477725     0.001710941870    -0.001269785523
       9        0.000000978876     0.000001112135     0.000003469321
      10        0.000001702807    -0.000006825822    -0.000005136507
      11       -0.001068824086     0.001564337077     0.001529943006
      12       -0.000003402138     0.000000021097     0.000000340691
      13        0.000000069056    -0.000001504236     0.000000936235
      14       -0.000000664829     0.000001063185     0.000001325424
      15       -0.000001811108     0.000001725891    -0.000002266124

  **** Optimization is complete! (in 7 steps) ****
    Final optimized geometry and variables:
    Molecular point group: c1

    Geometry (in Angstrom), charge = 0, multiplicity = 1:

    H           -2.878334171469    -0.046719588210    -0.047686162572
    C           -2.058979024430    -0.752619998520    -0.037951773161
    O           -0.875010385707    -0.023877885692    -0.040575120805
    H           -2.135938833199    -1.393377754171    -0.914957297606
    H           -2.142309292340    -1.376399043453     0.850647206349
    C            0.277632203138    -0.815646214399    -0.025841393397
    C            1.545696784780     0.062941213008    -0.041462165464
    H            0.263744798521    -1.468222920925    -0.897559292802
    H            0.265849056243    -1.452319643344     0.857410262475
    C            1.288507947746     1.560397888233     0.142428799159
    H            2.205334648906    -0.266043902917     0.756151474065
    H            2.082220005209    -0.091339241827    -0.972285429938
    H            0.784089006029     1.763306970521     1.079787451881
    H            2.233406082334     2.095754192546     0.143639168644
    H            0.672789722987     1.958576859102    -0.653808873448

  Mulliken Charges: (a.u.)
   Center  Symbol    Alpha    Beta     Spin     Total
       1     H     0.41219  0.41219  0.00000  0.17562
       2     C     3.07883  3.07883  0.00000 -0.15766
       3     O     4.30550  4.30550  0.00000 -0.61100
       4     H     0.43056  0.43056  0.00000  0.13887
       5     H     0.43050  0.43050  0.00000  0.13899
       6     C     2.98469  2.98469  0.00000  0.03062
       7     C     3.17439  3.17439  0.00000 -0.34878
       8     H     0.43024  0.43024  0.00000  0.13952
       9     H     0.43055  0.43055  0.00000  0.13890
      10     C     3.22935  3.22935  0.00000 -0.45871
      11     H     0.41970  0.41970  0.00000  0.16059
      12     H     0.41855  0.41855  0.00000  0.16290
      13     H     0.41677  0.41677  0.00000  0.16647
      14     H     0.42540  0.42540  0.00000  0.14920
      15     H     0.41277  0.41277  0.00000  0.17447

   Total alpha = 21.00000, Total beta = 21.00000, Total charge =  0.00000
