  ==> Input File <==

--------------------------------------------------------------------------
set {
	reference rhf
	basis cc-pvtz
}

set_num_threads( 4 )
memory 2 gb

molecule MOL {
0 1

H	 2.440790	 2.784524	 1.128671
O	 1.503684	 2.739661	 1.185646
C	 1.029541	 1.626696	 0.592381
C	 1.862589	 0.697113	 -0.011430
C	 -0.335786	 1.427039	 0.598764
H	 2.925947	 0.854225	 -0.015481
C	 1.329439	 -0.428275	 -0.606583
H	 -0.981815	 2.143128	 1.064280
C	 -0.861704	 0.296439	 0.000000
H	 1.983677	 -1.140605	 -1.070677
C	 -0.035294	 -0.635443	 -0.604538
C	 -2.330689	 0.069587	 0.000000
H	 -0.452774	 -1.509603	 -1.066536
O	 -2.848621	 -0.993976	 0.000000
H	 -2.934306	 0.982410	 0.000000

	symmetry c1
}
set optking {
	frozen_dihedral = ("
		11 9 12 14
	")
}

ee = optimize('scf')
oeprop('DIPOLE', 'QUADRUPOLE', 'MULLIKEN_CHARGES')
f=open( 'psi4out.xyz', 'w' )
f.write( "15  " )
f.write( str(ee) + "\n" )
f.write( MOL.save_string_xyz() )
f.close()
--------------------------------------------------------------------------

    Molecular point group: c1
  Charge       = 0
  Multiplicity = 1
  Basis Set: CC-PVTZ
  Basis Set:
  @DF-RHF Final Energy:  -418.43608985681277
    Total Energy =                       -418.4360898568124867
    Molecular point group: c1
  Basis Set: CC-PVTZ
  Basis Set:
  Basis Set: CC-PVTZ
  Basis Set:
  @DF-RHF Final Energy:  -418.43508058492159
    Total Energy =                       -418.4350805849215931
  Basis Set: CC-PVTZ
  Basis Set:
  Basis Set: CC-PVTZ
  Basis Set:
  @DF-RHF Final Energy:  -418.43635092098640
    Total Energy =                       -418.4363509209864560
  Basis Set: CC-PVTZ
  Basis Set:
  Basis Set: CC-PVTZ
  Basis Set:
  @DF-RHF Final Energy:  -418.43660532237578
    Total Energy =                       -418.4366053223759536
  Basis Set: CC-PVTZ
  Basis Set:
  Basis Set: CC-PVTZ
  Basis Set:
  @DF-RHF Final Energy:  -418.43661002658229
    Total Energy =                       -418.4366100265817749
  Basis Set: CC-PVTZ
  Basis Set:
  Charge       = 0
  Multiplicity = 1
  Basis Set: CC-PVTZ
  Basis Set:

    Orbital Energies (a.u.)
    -----------------------

    Doubly Occupied:

       1A    -20.598310     2A    -20.556773     3A    -11.328855
       4A    -11.313341     5A    -11.252252     6A    -11.248961
       7A    -11.244984     8A    -11.243364     9A    -11.236518
      10A     -1.429755    11A     -1.412128    12A     -1.173811
      13A     -1.053778    14A     -1.028207    15A     -0.903979
      16A     -0.849095    17A     -0.818289    18A     -0.742106
      19A     -0.704788    20A     -0.678789    21A     -0.666930
      22A     -0.634765    23A     -0.615010    24A     -0.610412
      25A     -0.584627    26A     -0.551221    27A     -0.541732
      28A     -0.518891    29A     -0.493125    30A     -0.427181
      31A     -0.360007    32A     -0.329282

  @DF-RHF Final Energy:  -418.43661138799632

   => Energetics <=

    Nuclear Repulsion Energy =            403.1618722211162549
    One-Electron Energy =               -1368.8944375082814986
    Two-Electron Energy =                 547.2959538991688078
    DFT Exchange-Correlation Energy =       0.0000000000000000
    Empirical Dispersion Energy =           0.0000000000000000
    PCM Polarization Energy =               0.0000000000000000
    EFP Energy =                            0.0000000000000000
    Total Energy =                       -418.4366113879964360
    Molecular point group: c1
  Basis Set: CC-PVTZ
  Basis Set:

  -Total Gradient:
     Atom            X                  Y                   Z
    ------   -----------------  -----------------  -----------------
       1        0.000001534751     0.000001481406     0.000003385650
       2        0.000005856889    -0.000024864187    -0.000009822781
       3       -0.000094135763     0.000056412687     0.000012006314
       4        0.000008262427    -0.000079861884    -0.000051920250
       5        0.000021753737     0.000035734362     0.000040042657
       6       -0.000002146257    -0.000002027345    -0.000007637961
       7        0.000076304013     0.000051045002     0.000071643006
       8        0.000010661985    -0.000001704792    -0.000010556319
       9        0.000351974039    -0.003252481390     0.007286837015
      10       -0.000001904407    -0.000004232973    -0.000007796096
      11       -0.000306795391     0.002174356214    -0.003452033637
      12       -0.000109169228     0.001143044363    -0.008860755462
      13       -0.000006320392    -0.000007409523    -0.000016733083
      14       -0.000003994526    -0.000093743569     0.004997250138
      15        0.000048118109     0.000004251633     0.000006090812

  **** Optimization is complete! (in 6 steps) ****
    Final optimized geometry and variables:
    Molecular point group: c1

    Geometry (in Angstrom), charge = 0, multiplicity = 1:

    H            2.515179418979     2.230320734307     0.991245923670
    O            1.577612146836     2.178935850549     1.038557489394
    C            1.120492495331     1.059983090962     0.442704376942
    C            1.955318331559     0.138136194389    -0.157531977344
    C           -0.248728184021     0.853684175470     0.433941812267
    H            3.017820673530     0.300658912388    -0.164688410736
    C            1.422665423068    -0.991040517680    -0.757775574545
    H           -0.888505252378     1.588634745616     0.884076000336
    C           -0.766780406461    -0.289869940227    -0.138766880075
    H            2.081378356485    -1.693228211179    -1.231367822175
    C            0.064843091943    -1.215420282197    -0.752700049715
    C           -2.243142952452    -0.480491551458    -0.150772748535
    H           -0.356625737446    -2.089833676148    -1.205624323062
    O           -2.779516448115    -1.534033262040    -0.176039590372
    H           -2.828609968860     0.442416167925    -0.092322820033

  Mulliken Charges: (a.u.)
   Center  Symbol    Alpha    Beta     Spin     Total
       1     H     0.38626  0.38626  0.00000  0.22749
       2     O     4.17200  4.17200  0.00000 -0.34400
       3     C     2.84156  2.84156  0.00000  0.31688
       4     C     3.13164  3.13164  0.00000 -0.26327
       5     C     3.13028  3.13028  0.00000 -0.26057
       6     H     0.43161  0.43161  0.00000  0.13677
       7     C     3.05901  3.05901  0.00000 -0.11801
       8     H     0.41892  0.41892  0.00000  0.16215
       9     C     2.95049  2.95049  0.00000  0.09902
      10     H     0.41884  0.41884  0.00000  0.16232
      11     C     3.10774  3.10774  0.00000 -0.21548
      12     C     2.91574  2.91574  0.00000  0.16853
      13     H     0.41176  0.41176  0.00000  0.17647
      14     O     4.16672  4.16672  0.00000 -0.33343
      15     H     0.45743  0.45743  0.00000  0.08513

   Total alpha = 32.00000, Total beta = 32.00000, Total charge =  0.00000
