                              Psi4 1.0.54 Driver

  ==> Input File <==

--------------------------------------------------------------------------
set {
	reference rhf
	basis cc-pvtz
}

set_num_threads( 4 )
memory 2 gb

molecule MOL {
0 1

O	 -2.071633	 -1.227563	 -0.223463
C	 -1.652164	 -0.152425	 0.058082
C	 -0.327811	 0.006324	 0.778296
C	 -2.402515	 1.108629	 -0.298924
C	 0.843231	 -0.001575	 -0.211665
H	 -0.319484	 0.928173	 1.350354
H	 -0.227804	 -0.823091	 1.466705
C	 0.386904	 -0.117843	 -1.663036
H	 1.514303	 -0.825105	 0.018890
H	 1.415081	 0.910602	 -0.080193
C	 1.547526	 -0.113426	 -2.652025
H	 -0.190343	 -1.029896	 -1.787418
H	 -0.285873	 0.703471	 -1.891842
H	 2.220331	 -0.944965	 -2.470613
H	 2.124846	 0.801350	 -2.572940
H	 1.191638	 -0.193034	 -3.672519
H	 -3.240910	 0.874416	 -0.936711
H	 -1.747554	 1.818823	 -0.790984
H	 -2.760419	 1.579708	 0.610998

	symmetry c1
}
set optking {
	frozen_dihedral = ("
		9 5 3 2
	")
}

ee,wfn = optimize('scf', return_wfn=True)
oeprop( wfn, 'DIPOLE', 'QUADRUPOLE', 'MULLIKEN_CHARGES')
f=open( 'psi4out.xyz', 'w' )
f.write( "19  " )
f.write( str(ee) + "\n" )
f.write( MOL.save_string_xyz() )
f.close()
--------------------------------------------------------------------------

    Molecular point group: c1
  Charge       = 0
  Multiplicity = 1
  Basis Set: CC-PVTZ
  Basis Set:
  @DF-RHF Final Energy:  -309.16374643905533
    Total Energy =                       -309.1637464390551600
    Molecular point group: c1
  Basis Set: CC-PVTZ
  Basis Set:
  Basis Set: CC-PVTZ
  Basis Set:
  @DF-RHF Final Energy:  -309.16713860919282
    Total Energy =                       -309.1671386091927616
  Basis Set: CC-PVTZ
  Basis Set:
  Basis Set: CC-PVTZ
  Basis Set:
  @DF-RHF Final Energy:  -309.16674783656902
    Total Energy =                       -309.1667478365684474
  Basis Set: CC-PVTZ
  Basis Set:
  Basis Set: CC-PVTZ
  Basis Set:
  @DF-RHF Final Energy:  -309.16806254074544
    Total Energy =                       -309.1680625407449838
  Basis Set: CC-PVTZ
  Basis Set:
  Basis Set: CC-PVTZ
  Basis Set:
  @DF-RHF Final Energy:  -309.16813666819377
    Total Energy =                       -309.1681366681936538
  Basis Set: CC-PVTZ
  Basis Set:
  Basis Set: CC-PVTZ
  Basis Set:
  @DF-RHF Final Energy:  -309.16814244652812
    Total Energy =                       -309.1681424465281793
  Basis Set: CC-PVTZ
  Basis Set:
  Charge       = 0
  Multiplicity = 1
  Basis Set: CC-PVTZ
  Basis Set:

    Orbital Energies (a.u.)
    -----------------------

    Doubly Occupied:

       1A    -20.536408     2A    -11.319967     3A    -11.229020
       4A    -11.228237     5A    -11.226628     6A    -11.218949
       7A    -11.211016     8A     -1.397175     9A     -1.087069
      10A     -1.027731    11A     -0.983806    12A     -0.891262
      13A     -0.812374    14A     -0.725446    15A     -0.660898
      16A     -0.642016    17A     -0.624819    18A     -0.618908
      19A     -0.578246    20A     -0.574186    21A     -0.563262
      22A     -0.539965    23A     -0.510708    24A     -0.495045
      25A     -0.485664    26A     -0.466687    27A     -0.464876
      28A     -0.399226

  @DF-RHF Final Energy:  -309.16814298293042

   => Energetics <=

    Nuclear Repulsion Energy =            309.7454692097557540
    One-Electron Energy =               -1032.7880329506606358
    Two-Electron Energy =                 413.8744207579744625
    DFT Exchange-Correlation Energy =       0.0000000000000000
    Empirical Dispersion Energy =           0.0000000000000000
    PCM Polarization Energy =               0.0000000000000000
    EFP Energy =                            0.0000000000000000
    Total Energy =                       -309.1681429829303625
    Molecular point group: c1
  Basis Set: CC-PVTZ
  Basis Set:

  -Total Gradient:
     Atom            X                  Y                   Z
    ------   -----------------  -----------------  -----------------
       1       -0.000053352231     0.000234933307    -0.000075330639
       2       -0.000012239493    -0.000286452305     0.000271612610
       3        0.000015660530     0.000156339068    -0.000161988799
       4        0.000037728445    -0.000024667338    -0.000160547308
       5        0.000161164782     0.000069760383     0.000161069655
       6        0.000024358860    -0.000011088336     0.000006864281
       7       -0.000006689364     0.000008659400     0.000016876152
       8        0.000028116429     0.000115419551    -0.000089492753
       9       -0.000086999836    -0.000078385380    -0.000065608583
      10        0.000021456297    -0.000002499880    -0.000004572424
      11       -0.000062413359    -0.000043779461     0.000025504997
      12       -0.000012346570     0.000036882833     0.000008130721
      13        0.000030128212    -0.000040842264    -0.000028923774
      14        0.000011737840    -0.000001740684    -0.000002504741
      15       -0.000013611883     0.000002235236    -0.000002404655
      16       -0.000003832358    -0.000012134007     0.000047005210
      17       -0.000045132114     0.000031580993    -0.000006997908
      18       -0.000043877882    -0.000088489258     0.000061262756
      19        0.000010143692    -0.000065731862     0.000000045203

  **** Optimization is complete! (in 7 steps) ****
    Final optimized geometry and variables:
    Molecular point group: c1

    Geometry (in Angstrom), charge = 0, multiplicity = 1:

    O           -1.626957597569    -1.104376623960     0.562852540850
    C           -1.162115243512    -0.031876816254     0.774122941528
    C            0.245056969395     0.122799728848     1.323703863451
    C           -1.957286673435     1.229978772527     0.535742679902
    C            1.382004324962     0.054112048875     0.261298459293
    H            0.311764816517     1.059564321573     1.863302285035
    H            0.376085161641    -0.675488852449     2.041027514066
    C            0.961078731244    -0.104401147566    -1.200436923408
    H            2.031621483918    -0.774767052774     0.515032963666
    H            1.989086867328     0.948046571029     0.350227593238
    C            2.164403989559    -0.165267004648    -2.135162857824
    H            0.368751833504    -1.003731588480    -1.314964886591
    H            0.324908127055     0.723944126159    -1.499026471354
    H            2.807602486072    -1.003400121307    -1.889037213340
    H            2.761010919482     0.738729402465    -2.070477791639
    H            1.850599195285    -0.281751644188    -3.165701477596
    H           -2.863827742020     1.002492252880    -0.004047087052
    H           -1.370950652555     1.962119465838    -0.006564367622
    H           -2.211197948334     1.670341089326     1.495069143181

  Mulliken Charges: (a.u.)
   Center  Symbol    Alpha    Beta     Spin     Total
       1     O     4.18264  4.18264  0.00000 -0.36529
       2     C     2.85082  2.85082  0.00000  0.29837
       3     C     3.10602  3.10602  0.00000 -0.21204
       4     C     3.15463  3.15463  0.00000 -0.30927
       5     C     3.09327  3.09327  0.00000 -0.18653
       6     H     0.44692  0.44692  0.00000  0.10616
       7     H     0.43778  0.43778  0.00000  0.12444
       8     C     3.09728  3.09728  0.00000 -0.19455
       9     H     0.44679  0.44679  0.00000  0.10643
      10     H     0.44943  0.44943  0.00000  0.10114
      11     C     3.15173  3.15173  0.00000 -0.30347
      12     H     0.43755  0.43755  0.00000  0.12490
      13     H     0.45375  0.45375  0.00000  0.09250
      14     H     0.45339  0.45339  0.00000  0.09323
      15     H     0.45635  0.45635  0.00000  0.08730
      16     H     0.44636  0.44636  0.00000  0.10728
      17     H     0.43661  0.43661  0.00000  0.12677
      18     H     0.45174  0.45174  0.00000  0.09651
      19     H     0.44694  0.44694  0.00000  0.10612

   Total alpha = 28.00000, Total beta = 28.00000, Total charge =  0.00000

*** Psi4 exiting successfully. Buy a developer a beer!
