  ==> Input File <==

--------------------------------------------------------------------------
set {
	reference rhf
	basis 6-31G*
}

set_num_threads( 4 )
memory 2 gb

molecule MOL {
0 1

H	 -3.261111	 -0.295142	 1.469456
C	 -3.306842	 -0.277400	 0.373456
C	 -2.660244	 0.921717	 -0.272021
O	 -3.838538	 -1.161155	 -0.216482
C	 -3.085544	 1.103119	 -1.735739
H	 -2.893559	 1.797528	 0.322309
H	 -1.582937	 0.766171	 -0.228785
C	 -4.563768	 1.464600	 -1.901517
H	 -2.471852	 1.882189	 -2.178138
H	 -2.865667	 0.192757	 -2.291304
C	 -4.970693	 1.653513	 -3.364233
H	 -4.771551	 2.376769	 -1.345981
H	 -5.185240	 0.691542	 -1.453528
C	 -6.445727	 2.030678	 -3.525384
H	 -4.339986	 2.419058	 -3.809074
H	 -4.772643	 0.734952	 -3.915056
C	 -6.920289	 2.149959	 -4.978186
H	 -6.636072	 2.969468	 -3.007566
H	 -7.053458	 1.279995	 -3.024536
C	 -6.283433	 3.298265	 -5.762677
H	 -7.998925	 2.285943	 -4.976562
H	 -6.734282	 1.211297	 -5.496103
H	 -6.439726	 4.248682	 -5.259142
H	 -5.214423	 3.161710	 -5.887354
H	 -6.718906	 3.375041	 -6.754374

	symmetry c1
}
set optking {
	frozen_dihedral = ("
		6 3 2 4
	")
}

ee = optimize('scf')
oeprop('DIPOLE', 'QUADRUPOLE', 'MULLIKEN_CHARGES')
f=open( 'psi4out.xyz', 'w' )
f.write( "25  " )
f.write( str(ee) + "\n" )
f.write( MOL.save_string_xyz() )
f.close()
--------------------------------------------------------------------------

    Molecular point group: c1
  Charge       = 0
  Multiplicity = 1
  Basis Set: 6-31G*
  Basis Set:
  @DF-RHF Final Energy:  -387.12240726973738
    Total Energy =                       -387.1224072697375505
    Molecular point group: c1
  Basis Set: 6-31G*
  Basis Set:
  Basis Set: 6-31G*
  Basis Set:
  @DF-RHF Final Energy:  -387.12226175079803
    Total Energy =                       -387.1222617507977475
  Basis Set: 6-31G*
  Basis Set:
  Basis Set: 6-31G*
  Basis Set:
  @DF-RHF Final Energy:  -387.12245047538909
    Total Energy =                       -387.1224504753892006
  Basis Set: 6-31G*
  Basis Set:
  Basis Set: 6-31G*
  Basis Set:
  @DF-RHF Final Energy:  -387.12320992689490
    Total Energy =                       -387.1232099268949014
  Basis Set: 6-31G*
  Basis Set:
  Basis Set: 6-31G*
  Basis Set:
  @DF-RHF Final Energy:  -387.12320749784413
    Total Energy =                       -387.1232074978438504
  Basis Set: 6-31G*
  Basis Set:
  Basis Set: 6-31G*
  Basis Set:
  @DF-RHF Final Energy:  -387.12322141085622
    Total Energy =                       -387.1232214108561038
  Basis Set: 6-31G*
  Basis Set:
  Charge       = 0
  Multiplicity = 1
  Basis Set: 6-31G*
  Basis Set:

    Orbital Energies (a.u.)
    -----------------------

    Doubly Occupied:

       1A    -20.564180     2A    -11.329089     3A    -11.237396
       4A    -11.222191     5A    -11.213951     6A    -11.213377
       7A    -11.212021     8A    -11.211348     9A    -11.206871
      10A     -1.404475    11A     -1.095454    12A     -1.063968
      13A     -1.009741    14A     -0.941539    15A     -0.876190
      16A     -0.817087    17A     -0.776670    18A     -0.763751
      19A     -0.687319    20A     -0.646668    21A     -0.628279
      22A     -0.624652    23A     -0.604889    24A     -0.589381
      25A     -0.563774    26A     -0.545646    27A     -0.532551
      28A     -0.519043    29A     -0.500636    30A     -0.496666
      31A     -0.481070    32A     -0.472222    33A     -0.458367
      34A     -0.452923    35A     -0.436073    36A     -0.411511

  @DF-RHF Final Energy:  -387.12322162563930

   => Energetics <=

    Nuclear Repulsion Energy =            443.4624966058864857
    One-Electron Energy =               -1403.5494990135046010
    Two-Electron Energy =                 572.9637807819790396
    DFT Exchange-Correlation Energy =       0.0000000000000000
    Empirical Dispersion Energy =           0.0000000000000000
    PCM Polarization Energy =               0.0000000000000000
    EFP Energy =                            0.0000000000000000
    Total Energy =                       -387.1232216256390757
    Molecular point group: c1
  Basis Set: 6-31G*
  Basis Set:

  -Total Gradient:
     Atom            X                  Y                   Z
    ------   -----------------  -----------------  -----------------
       1        0.000017426069     0.000054976146     0.000000377437
       2       -0.001115950428     0.000688074507     0.000171987441
       3       -0.000622717680    -0.000086182674    -0.000577978488
       4        0.000893410140    -0.000475623480    -0.000101591579
       5        0.000055770267     0.000007352733     0.000076470726
       6        0.000774299048    -0.000130583586     0.000494008755
       7        0.000018563991    -0.000041548458    -0.000018469889
       8        0.000009316127     0.000087171810    -0.000068276258
       9       -0.000019117356    -0.000030619193    -0.000018922511
      10        0.000019645311    -0.000019262567    -0.000041038170
      11       -0.000000755982     0.000030466172    -0.000004514667
      12        0.000016439782    -0.000056712016    -0.000013559054
      13       -0.000076114743    -0.000037077151     0.000074863039
      14        0.000016296929    -0.000004173951     0.000010640172
      15       -0.000009455495     0.000007893350     0.000040396540
      16        0.000018613247     0.000022400661     0.000003676475
      17        0.000020644610    -0.000041078504    -0.000012705986
      18        0.000026566084     0.000005358112    -0.000021686965
      19       -0.000017579058     0.000009668777     0.000026145396
      20       -0.000003981449     0.000010765275    -0.000004750542
      21       -0.000001032430    -0.000016337769     0.000007672114
      22        0.000010269113     0.000003280839    -0.000010020829
      23        0.000002966071     0.000005675627     0.000002029854
      24       -0.000027663971     0.000006987526    -0.000019079996
      25       -0.000005858197    -0.000000872184     0.000004326985

  **** Optimization is complete! (in 7 steps) ****
    Final optimized geometry and variables:
    Molecular point group: c1

    Geometry (in Angstrom), charge = 0, multiplicity = 1:

    H            1.553796793780    -1.586555065582     3.866651840464
    C            1.429726237216    -1.555872873413     2.778095602907
    C            1.981036680390    -0.320280987672     2.109615513754
    O            0.927505307567    -2.471645039655     2.210566543606
    C            1.561314184634    -0.136231737153     0.652027273735
    H            1.717951503069     0.543312705742     2.717483319432
    H            3.065901359349    -0.404390674623     2.186610547999
    C            0.089752080067     0.249036038273     0.482373101949
    H            2.186881510651     0.635042457722     0.209895426026
    H            1.763406529022    -1.053795699453     0.109649022521
    C           -0.307858076112     0.440209492628    -0.982591425172
    H           -0.104896428618     1.170447038438     1.030004957930
    H           -0.537973244706    -0.517307479794     0.927296354278
    C           -1.779302105197     0.827577382364    -1.152063909880
    H            0.330954551849     1.199271705052    -1.427602257518
    H           -0.115242679081    -0.482234570149    -1.527660808633
    C           -2.251340871186     0.930248140761    -2.606955479879
    H           -1.962896738599     1.775792749818    -0.648680565890
    H           -2.393813756917     0.089160862405    -0.641497054238
    C           -1.604765874386     2.062631342461    -3.406965728954
    H           -3.329158753624     1.073419667185    -2.609581111377
    H           -2.070591109822    -0.017057986967    -3.110726160439
    H           -1.758242276446     3.021845838787    -2.919494131227
    H           -0.535895263953     1.918469199292    -3.524507284542
    H           -2.035236081056     2.126256374411    -4.401682239860

  Mulliken Charges: (a.u.)
   Center  Symbol    Alpha    Beta     Spin     Total
       1     H     0.42748  0.42748  0.00000  0.14503
       2     C     2.83531  2.83531  0.00000  0.32938
       3     C     3.21451  3.21451  0.00000 -0.42903
       4     O     4.23886  4.23886  0.00000 -0.47771
       5     C     3.15221  3.15221  0.00000 -0.30442
       6     H     0.41023  0.41023  0.00000  0.17953
       7     H     0.40308  0.40308  0.00000  0.19385
       8     C     3.15671  3.15671  0.00000 -0.31342
       9     H     0.41960  0.41960  0.00000  0.16081
      10     H     0.40713  0.40713  0.00000  0.18574
      11     C     3.15454  3.15454  0.00000 -0.30908
      12     H     0.42702  0.42702  0.00000  0.14596
      13     H     0.41057  0.41057  0.00000  0.17886
      14     C     3.15281  3.15281  0.00000 -0.30563
      15     H     0.42310  0.42310  0.00000  0.15380
      16     H     0.42094  0.42094  0.00000  0.15811
      17     C     3.15246  3.15246  0.00000 -0.30492
      18     H     0.42542  0.42542  0.00000  0.14916
      19     H     0.42058  0.42058  0.00000  0.15883
      20     C     3.24107  3.24107  0.00000 -0.48214
      21     H     0.42119  0.42119  0.00000  0.15762
      22     H     0.42255  0.42255  0.00000  0.15490
      23     H     0.42291  0.42291  0.00000  0.15419
      24     H     0.42030  0.42030  0.00000  0.15941
      25     H     0.41941  0.41941  0.00000  0.16118

   Total alpha = 36.00000, Total beta = 36.00000, Total charge =  0.00000
