  ==> Input File <==

--------------------------------------------------------------------------
set {
	reference rhf
	basis 6-31G*
}

set_num_threads( 1 )
memory 2 gb

molecule MOL {
0 1

H	 3.893188	 0.355400	 -0.101367
N	 3.092854	 -0.246221	 -0.068770
C	 1.865559	 0.531981	 0.018834
H	 3.199514	 -0.826043	 0.741946
C	 0.645745	 -0.382037	 -0.029944
H	 1.841966	 1.207024	 -0.831236
H	 1.815756	 1.155410	 0.915079
C	 -0.679275	 0.379305	 0.025956
H	 0.698998	 -0.976915	 -0.937203
H	 0.693479	 -1.083846	 0.802235
C	 -1.691106	 -0.094471	 -1.019084
H	 -0.490773	 1.442405	 -0.115943
H	 -1.116444	 0.277722	 1.018131
C	 -3.012142	 0.671784	 -0.962271
H	 -1.257014	 0.007322	 -2.011262
H	 -1.883446	 -1.155975	 -0.878123
H	 -2.857287	 1.733347	 -1.133791
H	 -3.707780	 0.313614	 -1.714870
H	 -3.488586	 0.560911	 0.007832

	symmetry c1
}
set optking {
	frozen_dihedral = ("
		6 3 5 9,
		12 8 11 15,
		1 2 3 6
	")
}

ee = energy('scf')
oeprop('DIPOLE', 'QUADRUPOLE', 'MULLIKEN_CHARGES')
f=open( 'psi4out.xyz', 'w' )
f.write( "19  " )
f.write( str(ee) + "\n" )
f.write( MOL.save_string_xyz() )
f.close()
--------------------------------------------------------------------------

    Molecular point group: c1

    Geometry (in Angstrom), charge = 0, multiplicity = 1:

       Center              X                  Y                   Z               Mass
    ------------   -----------------  -----------------  -----------------  -----------------
           H          3.822289447948     0.207706354074     0.229646199646     1.007825032070
           N          3.021955447948    -0.393914645926     0.262243199646    14.003074004780
           C          1.794660447948     0.384287354074     0.349847199646    12.000000000000
           H          3.128615447948    -0.973736645926     1.072959199646     1.007825032070
           C          0.574846447948    -0.529730645926     0.301069199646    12.000000000000
           H          1.771067447948     1.059330354074    -0.500222800354     1.007825032070
           H          1.744857447948     1.007716354074     1.246092199646     1.007825032070
           C         -0.750173552052     0.231611354074     0.356969199646    12.000000000000
           H          0.628099447948    -1.124608645926    -0.606189800354     1.007825032070
           H          0.622580447948    -1.231539645926     1.133248199646     1.007825032070
           C         -1.762004552052    -0.242164645926    -0.688070800354    12.000000000000
           H         -0.561671552052     1.294711354074     0.215070199646     1.007825032070
           H         -1.187342552052     0.130028354074     1.349144199646     1.007825032070
           C         -3.083040552052     0.524090354074    -0.631257800354    12.000000000000
           H         -1.327912552052    -0.140371645926    -1.680248800354     1.007825032070
           H         -1.954344552052    -1.303668645926    -0.547109800354     1.007825032070
           H         -2.928185552052     1.585653354074    -0.802777800354     1.007825032070
           H         -3.778678552052     0.165920354074    -1.383856800354     1.007825032070
           H         -3.559484552052     0.413217354074     0.338845199646     1.007825032070

  Charge       = 0
  Multiplicity = 1
  Basis Set: 6-31G*
  Basis Set:

    Orbital Energies (a.u.)
    -----------------------

    Doubly Occupied:

       1A    -15.532295     2A    -11.240223     3A    -11.213682
       4A    -11.211508     5A    -11.208055     6A    -11.206771
       7A     -1.176585     8A     -1.072730     9A     -0.997777
      10A     -0.899567    11A     -0.815521    12A     -0.787999
      13A     -0.661174    14A     -0.638102    15A     -0.622790
      16A     -0.585414    17A     -0.569620    18A     -0.549365
      19A     -0.525602    20A     -0.500304    21A     -0.481771
      22A     -0.465793    23A     -0.454079    24A     -0.449312
      25A     -0.380993

  @DF-RHF Final Energy:  -251.34715397140806

   => Energetics <=

    Nuclear Repulsion Energy =            246.4042716353207823
    One-Electron Energy =                -827.0086697907688631
    Two-Electron Energy =                 329.2572441840397346
    DFT Exchange-Correlation Energy =       0.0000000000000000
    Empirical Dispersion Energy =           0.0000000000000000
    PCM Polarization Energy =               0.0000000000000000
    EFP Energy =                            0.0000000000000000
    Total Energy =                       -251.3471539714083178

  Mulliken Charges: (a.u.)
   Center  Symbol    Alpha    Beta     Spin     Total
       1     H     0.33260  0.33260  0.00000  0.33481
       2     N     3.92204  3.92204  0.00000 -0.84408
       3     C     3.06330  3.06330  0.00000 -0.12660
       4     H     0.33534  0.33534  0.00000  0.32931
       5     C     3.15337  3.15337  0.00000 -0.30675
       6     H     0.42073  0.42073  0.00000  0.15853
       7     H     0.43415  0.43415  0.00000  0.13170
       8     C     3.15694  3.15694  0.00000 -0.31387
       9     H     0.41069  0.41069  0.00000  0.17863
      10     H     0.42555  0.42555  0.00000  0.14891
      11     C     3.15292  3.15292  0.00000 -0.30584
      12     H     0.42293  0.42293  0.00000  0.15413
      13     H     0.42198  0.42198  0.00000  0.15605
      14     C     3.23992  3.23992  0.00000 -0.47983
      15     H     0.42169  0.42169  0.00000  0.15661
      16     H     0.42206  0.42206  0.00000  0.15587
      17     H     0.42212  0.42212  0.00000  0.15576
      18     H     0.41944  0.41944  0.00000  0.16112
      19     H     0.42222  0.42222  0.00000  0.15556

   Total alpha = 25.00000, Total beta = 25.00000, Total charge = -0.00000
