                              Psi4 1.0.54 Driver

  ==> Input File <==

--------------------------------------------------------------------------
set {
	reference rhf
	basis cc-pvtz
}

set_num_threads( 4 )
memory 2 gb

molecule MOL {
0 1

H	 -0.925005	 2.312679	 -0.770839
C	 -0.794872	 1.302662	 -0.443933
C	 -1.902524	 0.495168	 -0.031364
C	 0.420242	 0.750191	 -0.407808
H	 -2.892907	 0.909896	 -0.048671
C	 -1.712029	 -0.764553	 0.372853
H	 1.298043	 1.291116	 -0.701079
N	 0.640204	 -0.530428	 -0.000115
H	 -2.516146	 -1.397007	 0.688066
C	 -0.385808	 -1.363658	 0.410807
C	 2.006991	 -1.033007	 -0.000020
O	 -0.174439	 -2.490814	 0.767298
H	 2.182444	 -1.636914	 -0.880881
H	 2.678769	 -0.195442	 -0.002236
H	 2.183828	 -1.633244	 0.883082

	symmetry c1
}
set optking {
	frozen_dihedral = ("
		10 8 11 13
	")
}

ee,wfn = optimize('scf', return_wfn=True)
oeprop( wfn, 'DIPOLE', 'QUADRUPOLE', 'MULLIKEN_CHARGES')
f=open( 'psi4out.xyz', 'w' )
f.write( "15  " )
f.write( str(ee) + "\n" )
f.write( MOL.save_string_xyz() )
f.close()
--------------------------------------------------------------------------

    Molecular point group: c1
  Charge       = 0
  Multiplicity = 1
  Basis Set: CC-PVTZ
  Basis Set:
  @DF-RHF Final Energy:  -360.72281650761903
    Total Energy =                       -360.7228165076188589
    Molecular point group: c1
  Basis Set: CC-PVTZ
  Basis Set:
  Basis Set: CC-PVTZ
  Basis Set:
  @DF-RHF Final Energy:  -360.72322656334666
    Total Energy =                       -360.7232265633466568
  Basis Set: CC-PVTZ
  Basis Set:
  Basis Set: CC-PVTZ
  Basis Set:
  @DF-RHF Final Energy:  -360.72326678059039
    Total Energy =                       -360.7232667805906203
  Basis Set: CC-PVTZ
  Basis Set:
  Basis Set: CC-PVTZ
  Basis Set:
  @DF-RHF Final Energy:  -360.72325309083914
    Total Energy =                       -360.7232530908392505
  Basis Set: CC-PVTZ
  Basis Set:
  Charge       = 0
  Multiplicity = 1
  Basis Set: CC-PVTZ
  Basis Set:

    Orbital Energies (a.u.)
    -----------------------

    Doubly Occupied:

       1A    -20.501909     2A    -15.617540     3A    -11.338039
       4A    -11.294280     5A    -11.265509     6A    -11.258142
       7A    -11.229759     8A    -11.227907     9A     -1.391051
      10A     -1.285835    11A     -1.118815    12A     -1.029216
      13A     -0.972603    14A     -0.876396    15A     -0.838875
      16A     -0.719546    17A     -0.702178    18A     -0.663924
      19A     -0.653294    20A     -0.626050    21A     -0.611892
      22A     -0.574853    23A     -0.553633    24A     -0.550963
      25A     -0.530904    26A     -0.484327    27A     -0.420551
      28A     -0.410590    29A     -0.310266

  @DF-RHF Final Energy:  -360.72328442222914

   => Energetics <=

    Nuclear Repulsion Energy =            358.7626338581154073
    One-Electron Energy =               -1200.8541385858948161
    Two-Electron Energy =                 481.3682203055502669
    DFT Exchange-Correlation Energy =       0.0000000000000000
    Empirical Dispersion Energy =           0.0000000000000000
    PCM Polarization Energy =               0.0000000000000000
    EFP Energy =                            0.0000000000000000
    Total Energy =                       -360.7232844222291988
    Molecular point group: c1
  Basis Set: CC-PVTZ
  Basis Set:

  -Total Gradient:
     Atom            X                  Y                   Z
    ------   -----------------  -----------------  -----------------
       1       -0.000004331040     0.000004751606     0.000002702860
       2        0.000177603782    -0.000051625628    -0.000023854614
       3       -0.000102612765    -0.000130016667     0.000063553616
       4       -0.000125007353     0.000250134551    -0.000036802404
       5        0.000007232876     0.000005179624    -0.000006069128
       6       -0.000129130331     0.000111103948    -0.000021316922
       7        0.000004696575    -0.000029555831    -0.000001940217
       8       -0.000093807290    -0.000339482412    -0.001092663546
       9        0.000004846858    -0.000018410658     0.000003767989
      10        0.000336796974     0.000525053370     0.000607236592
      11       -0.000334617436    -0.000920436448     0.000921629156
      12       -0.000049091352    -0.000226087999     0.000066432990
      13        0.000275016228     0.000750370476    -0.000436678337
      14        0.000032306986     0.000051476128    -0.000006591895
      15        0.000000097284     0.000017545939    -0.000039406140

  **** Optimization is complete! (in 5 steps) ****
    Final optimized geometry and variables:
    Molecular point group: c1

    Geometry (in Angstrom), charge = 0, multiplicity = 1:

    H           -0.833304732636     2.793568500965    -0.866894319993
    C           -0.668971861151     1.789366063187    -0.537520339442
    C           -1.746785917632     0.951679285259    -0.108892511721
    C            0.565327071391     1.277633711876    -0.508333592224
    H           -2.748864781318     1.337649514563    -0.116764023170
    C           -1.515615353477    -0.300595954342     0.299659958022
    H            1.421110555283     1.846674254094    -0.810576647356
    N            0.825544217260     0.008269195697    -0.093793452514
    H           -2.297104361362    -0.955737150629     0.625603343067
    C           -0.172385325971    -0.857379614005     0.315245560182
    C            2.190707126486    -0.495398378538    -0.094154537871
    O            0.090271940920    -1.980991307237     0.648943020842
    H            2.379933722553    -1.095203386226    -0.974726921912
    H            2.873931199489     0.340682742358    -0.081682127060
    H            2.348338551142    -1.106042731114     0.777918476257

  Mulliken Charges: (a.u.)
   Center  Symbol    Alpha    Beta     Spin     Total
       1     H     0.41393  0.41393  0.00000  0.17215
       2     C     3.10577  3.10577  0.00000 -0.21154
       3     C     3.06022  3.06022  0.00000 -0.12044
       4     C     3.03632  3.03632  0.00000 -0.07265
       5     H     0.41842  0.41842  0.00000  0.16316
       6     C     3.11824  3.11824  0.00000 -0.23649
       7     H     0.42039  0.42039  0.00000  0.15922
       8     N     3.50954  3.50954  0.00000 -0.01909
       9     H     0.40919  0.40919  0.00000  0.18162
      10     C     2.84538  2.84538  0.00000  0.30925
      11     C     3.09497  3.09497  0.00000 -0.18994
      12     O     4.23599  4.23599  0.00000 -0.47198
      13     H     0.44501  0.44501  0.00000  0.10998
      14     H     0.45544  0.45544  0.00000  0.08912
      15     H     0.43118  0.43118  0.00000  0.13763

   Total alpha = 29.00000, Total beta = 29.00000, Total charge = -0.00000

*** Psi4 exiting successfully. Buy a developer a beer!
