  ==> Input File <==

--------------------------------------------------------------------------
set {
	reference rhf
	basis 6-31G*
}

set_num_threads( 1 )
memory 2 gb

molecule MOL {
0 1

H	 -2.698709	 -0.000305	 0.034435
C	 -1.693833	 0.000034	 0.434417
O	 -0.828952	 -0.000968	 -0.659236
H	 -1.574200	 0.882896	 1.055746
H	 -1.574147	 -0.881698	 1.057355
C	 0.332483	 0.794132	 -0.601031
C	 0.016701	 2.286163	 -0.517105
C	 1.296992	 0.342394	 0.493782
H	 0.806161	 0.608589	 -1.557709
H	 -0.708028	 2.560557	 -1.276068
H	 0.919118	 2.866304	 -0.682381
H	 -0.379207	 2.568526	 0.453303
H	 1.457841	 -0.728646	 0.434978
H	 2.255193	 0.837791	 0.371729
H	 0.931312	 0.580323	 1.487517

	symmetry c1
}
set optking {
	frozen_dihedral = ("
		9 6 3 2
	")
}

ee = energy('scf')
oeprop('DIPOLE', 'QUADRUPOLE', 'MULLIKEN_CHARGES')
f=open( 'psi4out.xyz', 'w' )
f.write( "15  " )
f.write( str(ee) + "\n" )
f.write( MOL.save_string_xyz() )
f.close()
--------------------------------------------------------------------------

    Molecular point group: c1

    Geometry (in Angstrom), charge = 0, multiplicity = 1:

       Center              X                  Y                   Z               Mass
    ------------   -----------------  -----------------  -----------------  -----------------
           H         -2.504306816633    -0.681040843384     0.188795524051     1.007825032070
           C         -1.499430816633    -0.680701843384     0.588777524051    12.000000000000
           O         -0.634549816633    -0.681703843384    -0.504875475949    15.994914619560
           H         -1.379797816633     0.202160156616     1.210106524051     1.007825032070
           H         -1.379744816633    -1.562433843384     1.211715524051     1.007825032070
           C          0.526885183367     0.113396156616    -0.446670475949    12.000000000000
           C          0.211103183367     1.605427156616    -0.362744475949    12.000000000000
           C          1.491394183367    -0.338341843384     0.648142524051    12.000000000000
           H          1.000563183367    -0.072146843384    -1.403348475949     1.007825032070
           H         -0.513625816633     1.879821156616    -1.121707475949     1.007825032070
           H          1.113520183367     2.185568156616    -0.528020475949     1.007825032070
           H         -0.184804816633     1.887790156616     0.607663524051     1.007825032070
           H          1.652243183367    -1.409381843384     0.589338524051     1.007825032070
           H          2.449595183367     0.157055156616     0.526089524051     1.007825032070
           H          1.125714183367    -0.100412843384     1.641877524051     1.007825032070

  Charge       = 0
  Multiplicity = 1
  Basis Set: 6-31G*
  Basis Set:

    Orbital Energies (a.u.)
    -----------------------

    Doubly Occupied:

       1A    -20.546771     2A    -11.274822     3A    -11.260719
       4A    -11.210893     5A    -11.210483     6A     -1.369821
       7A     -1.050617     8A     -0.939724     9A     -0.931182
      10A     -0.781468    11A     -0.676381    12A     -0.639275
      13A     -0.632340    14A     -0.570859    15A     -0.563779
      16A     -0.552741    17A     -0.537089    18A     -0.499608
      19A     -0.497314    20A     -0.442826    21A     -0.403892

  @DF-RHF Final Energy:  -232.13558351009900

   => Energetics <=

    Nuclear Repulsion Energy =            198.7930573832470884
    One-Electron Energy =                -708.6719841097714152
    Two-Electron Energy =                 277.7433432164257283
    DFT Exchange-Correlation Energy =       0.0000000000000000
    Empirical Dispersion Energy =           0.0000000000000000
    PCM Polarization Energy =               0.0000000000000000
    EFP Energy =                            0.0000000000000000
    Total Energy =                       -232.1355835100986269

  Mulliken Charges: (a.u.)
   Center  Symbol    Alpha    Beta     Spin     Total
       1     H     0.41654  0.41654  0.00000  0.16693
       2     C     3.07918  3.07918  0.00000 -0.15836
       3     O     4.31344  4.31344  0.00000 -0.62688
       4     H     0.43071  0.43071  0.00000  0.13859
       5     H     0.42478  0.42478  0.00000  0.15044
       6     C     2.91044  2.91044  0.00000  0.17911
       7     C     3.25241  3.25241  0.00000 -0.50483
       8     C     3.25174  3.25174  0.00000 -0.50349
       9     H     0.41536  0.41536  0.00000  0.16928
      10     H     0.41130  0.41130  0.00000  0.17740
      11     H     0.41927  0.41927  0.00000  0.16147
      12     H     0.42156  0.42156  0.00000  0.15687
      13     H     0.41134  0.41134  0.00000  0.17733
      14     H     0.41979  0.41979  0.00000  0.16042
      15     H     0.42214  0.42214  0.00000  0.15573

   Total alpha = 21.00000, Total beta = 21.00000, Total charge = -0.00000
