                              Psi4 1.0.54 Driver

  ==> Input File <==

--------------------------------------------------------------------------
set {
	reference rhf
	basis cc-pvtz
}

set_num_threads( 4 )
memory 2 gb

molecule MOL {
0 1

O	 -2.081319	 -0.951530	 -0.502732
N	 -1.613558	 0.006676	 0.014756
C	 -0.329345	 -0.171618	 0.743966
O	 -2.068523	 1.100482	 -0.024385
C	 -0.353222	 -1.491003	 1.505374
H	 -0.243258	 0.672448	 1.407713
H	 0.444369	 -0.154992	 -0.005248
C	 0.949304	 -1.716208	 2.268836
H	 -1.190171	 -1.484885	 2.193877
H	 -0.515383	 -2.299941	 0.802480
C	 0.954460	 -3.034588	 3.034557
H	 1.108224	 -0.895121	 2.961655
H	 1.783050	 -1.699038	 1.573149
H	 0.151056	 -3.067097	 3.762006
H	 0.828610	 -3.876829	 2.363358
H	 1.888683	 -3.170154	 3.565604

	symmetry c1
}
set optking {
	frozen_dihedral = ("
		5 3 2 1
	")
}

ee,wfn = optimize('scf', return_wfn=True)
oeprop( wfn, 'DIPOLE', 'QUADRUPOLE', 'MULLIKEN_CHARGES')
f=open( 'psi4out.xyz', 'w' )
f.write( "16  " )
f.write( str(ee) + "\n" )
f.write( MOL.save_string_xyz() )
f.close()
--------------------------------------------------------------------------

    Molecular point group: c1
  Charge       = 0
  Multiplicity = 1
  Basis Set: CC-PVTZ
  Basis Set:
  @DF-RHF Final Energy:  -360.90799875070064
    Total Energy =                       -360.9079987507006422
    Molecular point group: c1
  Basis Set: CC-PVTZ
  Basis Set:
  Basis Set: CC-PVTZ
  Basis Set:
  @DF-RHF Final Energy:  -360.90743838439175
    Total Energy =                       -360.9074383843918667
  Basis Set: CC-PVTZ
  Basis Set:
  Basis Set: CC-PVTZ
  Basis Set:
  @DF-RHF Final Energy:  -360.89475256316530
    Total Energy =                       -360.8947525631652979
  Basis Set: CC-PVTZ
  Basis Set:
  Basis Set: CC-PVTZ
  Basis Set:
  @DF-RHF Final Energy:  -360.90432705809604
    Total Energy =                       -360.9043270580963849
  Basis Set: CC-PVTZ
  Basis Set:
  @DF-RHF Final Energy:  -360.90877677870049
    Total Energy =                       -360.9087767787002008
  Basis Set: CC-PVTZ
  Basis Set:
  @DF-RHF Final Energy:  -360.90882138286133
    Total Energy =                       -360.9088213828613334
  Basis Set: CC-PVTZ
  Basis Set:
  Basis Set: CC-PVTZ
  Basis Set:
  @DF-RHF Final Energy:  -360.90882508427171
    Total Energy =                       -360.9088250842719390
  Basis Set: CC-PVTZ
  Basis Set:
  Basis Set: CC-PVTZ
  Basis Set:
  @DF-RHF Final Energy:  -360.90882614197778
    Total Energy =                       -360.9088261419777837
  Basis Set: CC-PVTZ
  Basis Set:
  Charge       = 0
  Multiplicity = 1
  Basis Set: CC-PVTZ
  Basis Set:

    Orbital Energies (a.u.)
    -----------------------

    Doubly Occupied:

       1A    -20.590604     2A    -20.589827     3A    -15.837335
       4A    -11.297498     5A    -11.245683     6A    -11.240311
       7A    -11.224682     8A     -1.636202     9A     -1.420262
      10A     -1.134656    11A     -1.059101    12A     -0.948879
      13A     -0.843506    14A     -0.824043    15A     -0.759821
      16A     -0.745379    17A     -0.730078    18A     -0.671708
      19A     -0.615332    20A     -0.604880    21A     -0.566279
      22A     -0.537934    23A     -0.519612    24A     -0.502528
      25A     -0.495713    26A     -0.485320    27A     -0.469448
      28A     -0.453794

  @DF-RHF Final Energy:  -360.90882620678144

   => Energetics <=

    Nuclear Repulsion Energy =            312.5744505126469903
    One-Electron Energy =               -1110.8657223009538484
    Two-Electron Energy =                 437.3824455815250758
    DFT Exchange-Correlation Energy =       0.0000000000000000
    Empirical Dispersion Energy =           0.0000000000000000
    PCM Polarization Energy =               0.0000000000000000
    EFP Energy =                            0.0000000000000000
    Total Energy =                       -360.9088262067817823
    Molecular point group: c1
  Basis Set: CC-PVTZ
  Basis Set:

  -Total Gradient:
     Atom            X                  Y                   Z
    ------   -----------------  -----------------  -----------------
       1       -0.000304586835    -0.000107490581     0.000434208577
       2        0.000485479099     0.000043410218    -0.000704283326
       3       -0.000335587003     0.000223944589     0.000602534216
       4        0.000017196444     0.000021303868     0.000010324937
       5        0.000144846104    -0.000179191652    -0.000322982673
       6       -0.000005792891     0.000001003448    -0.000006797945
       7       -0.000002245776     0.000000797522     0.000000172754
       8       -0.000000590578    -0.000002227850    -0.000012994067
       9       -0.000002982857    -0.000002260386    -0.000001825613
      10        0.000002664038    -0.000001379522    -0.000000398714
      11       -0.000000214605     0.000002710566     0.000004479944
      12       -0.000000801281    -0.000005711717    -0.000004696755
      13        0.000001009164    -0.000000742040     0.000003986163
      14        0.000001082880     0.000000013401    -0.000004483155
      15        0.000001306777     0.000005427500     0.000001730113
      16       -0.000000782679     0.000000392636     0.000001025542

  **** Optimization is complete! (in 9 steps) ****
    Final optimized geometry and variables:
    Molecular point group: c1

    Geometry (in Angstrom), charge = 0, multiplicity = 1:

    O           -1.295053928348     0.292233431333    -1.625145587564
    N           -0.721486774692     1.092472527977    -0.965864908397
    C            0.435540189837     0.620808680770    -0.149771815926
    O           -0.975019061455     2.248885753867    -0.919267437708
    C            0.186099636079    -0.731144464502     0.493122242876
    H            0.615851113048     1.402550396380     0.567751738563
    H            1.261500951096     0.583642057330    -0.847270836110
    C            1.381596089608    -1.162999080355     1.339908106863
    H           -0.702035590468    -0.673222837434     1.113606980044
    H           -0.012071593981    -1.464070816776    -0.276066526315
    C            1.164282743970    -2.518048275069     2.004040597763
    H            1.578375166468    -0.415106468907     2.102505169237
    H            2.269597080511    -1.206036925962     0.715510176763
    H            0.301864826063    -2.497302007155     2.661047240536
    H            0.998574477460    -3.293329935735     1.264394769825
    H            2.025537199898    -2.802375425700     2.596228717520

  Mulliken Charges: (a.u.)
   Center  Symbol    Alpha    Beta     Spin     Total
       1     O     4.17183  4.17183  0.00000 -0.34366
       2     N     3.27526  3.27526  0.00000  0.44949
       3     C     3.04600  3.04600  0.00000 -0.09200
       4     O     4.17059  4.17059  0.00000 -0.34117
       5     C     3.09827  3.09827  0.00000 -0.19653
       6     H     0.43098  0.43098  0.00000  0.13804
       7     H     0.43643  0.43643  0.00000  0.12714
       8     C     3.09413  3.09413  0.00000 -0.18825
       9     H     0.44375  0.44375  0.00000  0.11251
      10     H     0.43310  0.43310  0.00000  0.13380
      11     C     3.14796  3.14796  0.00000 -0.29593
      12     H     0.45092  0.45092  0.00000  0.09817
      13     H     0.45148  0.45148  0.00000  0.09704
      14     H     0.45217  0.45217  0.00000  0.09565
      15     H     0.45163  0.45163  0.00000  0.09675
      16     H     0.44552  0.44552  0.00000  0.10897

   Total alpha = 28.00000, Total beta = 28.00000, Total charge = -0.00000

*** Psi4 exiting successfully. Buy a developer a beer!
