  ==> Input File <==

--------------------------------------------------------------------------
set {
	reference rhf
	basis cc-pvtz
}

set_num_threads( 4 )
memory 2 gb

molecule MOL {
0 1

H	 3.083659	 -1.378387	 0.000000
O	 2.179005	 -1.633391	 0.000000
C	 1.366950	 -0.558201	 0.000000
C	 1.799664	 0.696663	 -0.400944
C	 0.064024	 -0.737019	 0.417648
H	 2.814977	 0.834173	 -0.725997
C	 0.929992	 1.768259	 -0.383422
H	 -0.273201	 -1.704933	 0.727913
C	 -0.800907	 0.342357	 0.432087
H	 1.275931	 2.734459	 -0.695842
C	 -0.374985	 1.597798	 0.032989
C	 -2.206901	 0.163080	 0.879770
H	 -1.053542	 2.429203	 0.047692
O	 -2.674096	 -0.862163	 1.240360
H	 -2.813813	 1.073414	 0.856351

	symmetry c1
}
set optking {
	frozen_dihedral = ("
		4 3 2 1
	")
}

ee = optimize('scf')
oeprop('DIPOLE', 'QUADRUPOLE', 'MULLIKEN_CHARGES')
f=open( 'psi4out.xyz', 'w' )
f.write( "15  " )
f.write( str(ee) + "\n" )
f.write( MOL.save_string_xyz() )
f.close()
--------------------------------------------------------------------------

    Molecular point group: c1
  Charge       = 0
  Multiplicity = 1
  Basis Set: CC-PVTZ
  Basis Set:
  @DF-RHF Final Energy:  -418.43837703932070
    Total Energy =                       -418.4383770393208124
    Molecular point group: c1
  Basis Set: CC-PVTZ
  Basis Set:
  Basis Set: CC-PVTZ
  Basis Set:
  @DF-RHF Final Energy:  -418.43840128725543
    Total Energy =                       -418.4384012872558287
  Basis Set: CC-PVTZ
  Basis Set:
  Basis Set: CC-PVTZ
  Basis Set:
  @DF-RHF Final Energy:  -418.43844326717840
    Total Energy =                       -418.4384432671786271
  Basis Set: CC-PVTZ
  Basis Set:
  Basis Set: CC-PVTZ
  Basis Set:
  @DF-RHF Final Energy:  -418.43818319088234
    Total Energy =                       -418.4381831908822278
  Basis Set: CC-PVTZ
  Basis Set:
  Basis Set: CC-PVTZ
  Basis Set:
  @DF-RHF Final Energy:  -418.43844710744054
    Total Energy =                       -418.4384471074403109
  Basis Set: CC-PVTZ
  Basis Set:
  Charge       = 0
  Multiplicity = 1
  Basis Set: CC-PVTZ
  Basis Set:

    Orbital Energies (a.u.)
    -----------------------

    Doubly Occupied:

       1A    -20.594217     2A    -20.554387     3A    -11.327532
       4A    -11.310860     5A    -11.250947     6A    -11.250628
       7A    -11.247797     8A    -11.243946     9A    -11.237650
      10A     -1.425553    11A     -1.410162    12A     -1.174411
      13A     -1.052147    14A     -1.030935    15A     -0.902393
      16A     -0.850055    17A     -0.816038    18A     -0.740584
      19A     -0.705856    20A     -0.689950    21A     -0.644691
      22A     -0.640937    23A     -0.616502    24A     -0.610403
      25A     -0.573735    26A     -0.556551    27A     -0.545607
      28A     -0.515590    29A     -0.492709    30A     -0.426823
      31A     -0.358200    32A     -0.332409

  @DF-RHF Final Energy:  -418.43844797301057

   => Energetics <=

    Nuclear Repulsion Energy =            404.0397582880820551
    One-Electron Energy =               -1370.6960021908519138
    Two-Electron Energy =                 548.2177959297589496
    DFT Exchange-Correlation Energy =       0.0000000000000000
    Empirical Dispersion Energy =           0.0000000000000000
    PCM Polarization Energy =               0.0000000000000000
    EFP Energy =                            0.0000000000000000
    Total Energy =                       -418.4384479730108524
    Molecular point group: c1
  Basis Set: CC-PVTZ
  Basis Set:

  -Total Gradient:
     Atom            X                  Y                   Z
    ------   -----------------  -----------------  -----------------
       1        0.000027614953     0.000014163718     0.001517959753
       2       -0.000295659194    -0.000119566092    -0.002486854355
       3        0.000741122232     0.000450892848     0.001987143875
       4       -0.000304522819    -0.000409110091    -0.001002589507
       5       -0.000176249342     0.000087863767     0.000016281223
       6        0.000000706176     0.000013933251     0.000006049365
       7       -0.000220471853     0.000046724581    -0.000069980023
       8        0.000011823554    -0.000011261398     0.000008965602
       9        0.000027979752    -0.000205731874    -0.000015682809
      10        0.000017845301    -0.000002317914     0.000008632800
      11        0.000182442717     0.000143520420     0.000033499806
      12        0.000002087377    -0.000005162800    -0.000003271061
      13       -0.000006897332    -0.000005917286     0.000000074594
      14       -0.000005290185     0.000003905483     0.000002331890
      15       -0.000002531338    -0.000001936611    -0.000002561153

  **** Optimization is complete! (in 6 steps) ****
    Final optimized geometry and variables:
    Molecular point group: c1

    Geometry (in Angstrom), charge = 0, multiplicity = 1:

    H            3.048075691250    -1.408925581651    -0.288328329577
    O            2.143036023288    -1.662524078379    -0.267316170050
    C            1.333051119690    -0.583738122662    -0.246775603424
    C            1.763836434548     0.669271318456    -0.657304751117
    C            0.029327327021    -0.763447089829     0.164727430114
    H            2.776865926074     0.802584563394    -0.990677474944
    C            0.894720930539     1.740684316878    -0.641375099374
    H           -0.307514648559    -1.730786941761     0.477500471920
    C           -0.838717719073     0.314614342014     0.170058648330
    H            1.239522021994     2.706203301592    -0.957153651411
    C           -0.411976018322     1.569275311439    -0.228390107451
    C           -2.246297316763     0.134780343579     0.612355250213
    H           -1.091491567518     2.400083392349    -0.218211013557
    O           -2.713251070996    -0.889583982023     0.975425361074
    H           -2.854251290202     1.044465025375     0.582088944787

  Mulliken Charges: (a.u.)
   Center  Symbol    Alpha    Beta     Spin     Total
       1     H     0.38662  0.38662  0.00000  0.22677
       2     O     4.17208  4.17208  0.00000 -0.34415
       3     C     2.84573  2.84573  0.00000  0.30853
       4     C     3.12360  3.12360  0.00000 -0.24720
       5     C     3.11862  3.11862  0.00000 -0.23724
       6     H     0.42908  0.42908  0.00000  0.14184
       7     C     3.06341  3.06341  0.00000 -0.12682
       8     H     0.40444  0.40444  0.00000  0.19112
       9     C     2.97117  2.97117  0.00000  0.05767
      10     H     0.41936  0.41936  0.00000  0.16128
      11     C     3.10829  3.10829  0.00000 -0.21658
      12     C     2.90901  2.90901  0.00000  0.18198
      13     H     0.42316  0.42316  0.00000  0.15369
      14     O     4.16894  4.16894  0.00000 -0.33787
      15     H     0.45651  0.45651  0.00000  0.08698

   Total alpha = 32.00000, Total beta = 32.00000, Total charge = -0.00000
