  ==> Input File <==

--------------------------------------------------------------------------
set {
	reference rhf
	basis 6-31G*
}

set_num_threads( 4 )
memory 2 gb

molecule MOL {
0 1

H	 1.690088	 -1.636338	 -0.452282
O	 2.016064	 -0.864478	 0.000222
C	 1.050492	 0.053836	 0.000068
C	 -0.318135	 -0.576402	 0.000164
O	 1.285279	 1.218255	 -0.000078
C	 -1.454360	 0.441875	 -0.000474
H	 -0.374042	 -1.230163	 -0.866135
H	 -0.374274	 -1.229227	 0.867154
C	 -2.826123	 -0.230780	 0.000056
H	 -1.357605	 1.085198	 -0.868380
H	 -1.357504	 1.086451	 0.866496
H	 -2.959731	 -0.858053	 -0.876869
H	 -3.619374	 0.509403	 -0.000080
H	 -2.959371	 -0.857318	 0.877556

	symmetry c1
}
set optking {
	frozen_dihedral = ("
		1 2 3 5
	")
}

ee = optimize('scf')
oeprop('DIPOLE', 'QUADRUPOLE', 'MULLIKEN_CHARGES')
f=open( 'psi4out.xyz', 'w' )
f.write( "14  " )
f.write( str(ee) + "\n" )
f.write( MOL.save_string_xyz() )
f.close()
--------------------------------------------------------------------------

    Molecular point group: c1
  Charge       = 0
  Multiplicity = 1
  Basis Set: 6-31G*
  Basis Set:
  @DF-RHF Final Energy:  -305.86530653886678
    Total Energy =                       -305.8653065388668892
    Molecular point group: c1
  Basis Set: 6-31G*
  Basis Set:
  Basis Set: 6-31G*
  Basis Set:
  @DF-RHF Final Energy:  -305.86669904430994
    Total Energy =                       -305.8666990443097120
  Basis Set: 6-31G*
  Basis Set:
  Basis Set: 6-31G*
  Basis Set:
  @DF-RHF Final Energy:  -305.86686030128794
    Total Energy =                       -305.8668603012878293
  Basis Set: 6-31G*
  Basis Set:
  Basis Set: 6-31G*
  Basis Set:
  @DF-RHF Final Energy:  -305.86677478073779
    Total Energy =                       -305.8667747807377282
  Basis Set: 6-31G*
  Basis Set:
  Basis Set: 6-31G*
  Basis Set:
  @DF-RHF Final Energy:  -305.86687054166043
    Total Energy =                       -305.8668705416607168
  Basis Set: 6-31G*
  Basis Set:
  Charge       = 0
  Multiplicity = 1
  Basis Set: 6-31G*
  Basis Set:

    Orbital Energies (a.u.)
    -----------------------

    Doubly Occupied:

       1A    -20.608842     2A    -20.551535     3A    -11.381234
       4A    -11.252027     5A    -11.231077     6A    -11.222118
       7A     -1.466477     8A     -1.370601     9A     -1.087655
      10A     -0.978406    11A     -0.852667    12A     -0.815813
      13A     -0.719642    14A     -0.672732    15A     -0.658661
      16A     -0.624399    17A     -0.583966    18A     -0.580786
      19A     -0.551788    20A     -0.508474    21A     -0.495929
      22A     -0.488622    23A     -0.477689    24A     -0.441592

  @DF-RHF Final Energy:  -305.86687073848077

   => Energetics <=

    Nuclear Repulsion Energy =            239.7395525200848567
    One-Electron Energy =                -891.9673795433363921
    Two-Electron Energy =                 346.3609562847707934
    DFT Exchange-Correlation Energy =       0.0000000000000000
    Empirical Dispersion Energy =           0.0000000000000000
    PCM Polarization Energy =               0.0000000000000000
    EFP Energy =                            0.0000000000000000
    Total Energy =                       -305.8668707384807135
    Molecular point group: c1
  Basis Set: 6-31G*
  Basis Set:

  -Total Gradient:
     Atom            X                  Y                   Z
    ------   -----------------  -----------------  -----------------
       1        0.002039278616     0.002349472514    -0.005389513787
       2       -0.002631300890    -0.002934118660     0.004410901724
       3        0.000612187294     0.000524585526     0.006360088626
       4        0.000001592814     0.000011090268     0.000018217122
       5       -0.000011102650     0.000055919785    -0.005387481715
       6        0.000006652799    -0.000000134734    -0.000000337112
       7        0.000000783470     0.000002695332    -0.000005424270
       8       -0.000005842005    -0.000001582190    -0.000008965757
       9       -0.000011205204     0.000001375053    -0.000003213972
      10        0.000000279929    -0.000003705480     0.000005781318
      11        0.000002989894    -0.000004456244    -0.000000593307
      12        0.000000679789    -0.000001954374     0.000000959441
      13       -0.000004380666    -0.000001377401    -0.000001518535
      14       -0.000000613191     0.000002190607     0.000001100223

  **** Optimization is complete! (in 6 steps) ****
    Final optimized geometry and variables:
    Molecular point group: c1

    Geometry (in Angstrom), charge = 0, multiplicity = 1:

    H            1.844314135914    -1.634147445340    -0.438138805809
    O            2.076851714391    -0.827480996161     0.002516113379
    C            1.062102016975     0.052985795740     0.003765173621
    C           -0.319116105182    -0.569078546186     0.004001353892
    O            1.277069994466     1.214001262937     0.004890885299
    C           -1.448886910292     0.456593747872     0.005759276111
    H           -0.399502081219    -1.219250883907    -0.867027842783
    H           -0.384727527368    -1.221724263452     0.871699984789
    C           -2.826218746923    -0.204306662294     0.009415268046
    H           -1.346660136860     1.099475714406    -0.861399352594
    H           -1.341564239755     1.098100020533     0.873122013997
    H           -2.969001797631    -0.829302474652    -0.867878030157
    H           -3.612180629522     0.543378221932     0.011878538830
    H           -2.963504425097    -0.829797156725     0.887033639372

  Mulliken Charges: (a.u.)
   Center  Symbol    Alpha    Beta     Spin     Total
       1     H     0.26932  0.26932  0.00000  0.46136
       2     O     4.35543  4.35543  0.00000 -0.71086
       3     C     2.61145  2.61145  0.00000  0.77710
       4     C     3.22994  3.22994  0.00000 -0.45989
       5     O     4.25850  4.25850  0.00000 -0.51700
       6     C     3.15065  3.15065  0.00000 -0.30130
       7     H     0.41135  0.41135  0.00000  0.17731
       8     H     0.39957  0.39957  0.00000  0.20086
       9     C     3.24368  3.24368  0.00000 -0.48735
      10     H     0.40828  0.40828  0.00000  0.18345
      11     H     0.40676  0.40676  0.00000  0.18649
      12     H     0.42172  0.42172  0.00000  0.15656
      13     H     0.41274  0.41274  0.00000  0.17452
      14     H     0.42063  0.42063  0.00000  0.15875

   Total alpha = 24.00000, Total beta = 24.00000, Total charge = -0.00000
