                              Psi4 1.0.54 Driver

  ==> Input File <==

--------------------------------------------------------------------------
set {
	reference rhf
	basis cc-pvtz
}

set_num_threads( 4 )
memory 2 gb

molecule MOL {
0 1

H	 -0.762179	 -2.102586	 -4.293561
C	 -0.229810	 -1.784141	 -3.418752
C	 -0.525495	 -2.328426	 -2.176916
C	 0.756852	 -0.830047	 -3.508635
H	 -1.292447	 -3.074268	 -2.087268
C	 0.154112	 -1.923323	 -1.053507
H	 0.999716	 -0.397426	 -4.460762
C	 1.453083	 -0.409448	 -2.384016
H	 -0.066614	 -2.337503	 -0.089450
C	 1.150790	 -0.958067	 -1.151249
H	 2.215251	 0.334780	 -2.487391
O	 1.760432	 -0.625184	 0.000000
C	 2.773565	 0.334879	 0.000000
H	 2.728295	 0.960928	 -0.884150
H	 3.706387	 -0.206610	 0.000000
H	 2.728295	 0.960928	 0.884150

	symmetry c1
}
set optking {
	frozen_dihedral = ("
		10 12 13 14
	")
}

ee,wfn = optimize('scf', return_wfn=True)
oeprop( wfn, 'DIPOLE', 'QUADRUPOLE', 'MULLIKEN_CHARGES')
f=open( 'psi4out.xyz', 'w' )
f.write( "16  " )
f.write( str(ee) + "\n" )
f.write( MOL.save_string_xyz() )
f.close()
--------------------------------------------------------------------------

    Molecular point group: c1
  Charge       = 0
  Multiplicity = 1
  Basis Set: CC-PVTZ
  Basis Set:
  @DF-RHF Final Energy:  -344.69696183598575
    Total Energy =                       -344.6969618359857463
    Molecular point group: c1
  Basis Set: CC-PVTZ
  Basis Set:
  Basis Set: CC-PVTZ
  Basis Set:
  @DF-RHF Final Energy:  -344.69748136611770
    Total Energy =                       -344.6974813661179269
  Basis Set: CC-PVTZ
  Basis Set:
  Basis Set: CC-PVTZ
  Basis Set:
  @DF-RHF Final Energy:  -344.69987825819891
    Total Energy =                       -344.6998782581987371
  Basis Set: CC-PVTZ
  Basis Set:
  Basis Set: CC-PVTZ
  Basis Set:
  @DF-RHF Final Energy:  -344.69253243521325
    Total Energy =                       -344.6925324352133657
  Basis Set: CC-PVTZ
  Basis Set:
  @DF-RHF Final Energy:  -344.69928781100145
    Total Energy =                       -344.6992878110012271
  @DF-RHF Final Energy:  -344.70037401118043
    Total Energy =                       -344.7003740111803722
  @DF-RHF Final Energy:  -344.69375779926924
    Total Energy =                       -344.6937577992691786
  @DF-RHF Final Energy:  -344.70001651601422
    Total Energy =                       -344.7000165160144434
  Basis Set: CC-PVTZ
  Basis Set:
  @DF-RHF Final Energy:  -344.70072287179897
    Total Energy =                       -344.7007228717986322
  Basis Set: CC-PVTZ
  Basis Set:
  Basis Set: CC-PVTZ
  Basis Set:
  @DF-RHF Final Energy:  -344.70075346109314
    Total Energy =                       -344.7007534610933703
  Basis Set: CC-PVTZ
  Basis Set:
  Basis Set: CC-PVTZ
  Basis Set:
  @DF-RHF Final Energy:  -344.70075862657438
    Total Energy =                       -344.7007586265743839
  Basis Set: CC-PVTZ
  Basis Set:
  Charge       = 0
  Multiplicity = 1
  Basis Set: CC-PVTZ
  Basis Set:

    Orbital Energies (a.u.)
    -----------------------

    Doubly Occupied:

       1A    -20.575422     2A    -11.292499     3A    -11.277512
       4A    -11.231475     5A    -11.230088     6A    -11.222430
       7A    -11.218396     8A    -11.218036     9A     -1.414334
      10A     -1.151151    11A     -1.024505    12A     -1.017040
      13A     -0.942489    14A     -0.835504    15A     -0.808641
      16A     -0.724018    17A     -0.667500    18A     -0.666717
      19A     -0.654713    20A     -0.618238    21A     -0.592333
      22A     -0.583221    23A     -0.527901    24A     -0.519699
      25A     -0.511885    26A     -0.483160    27A     -0.458530
      28A     -0.339594    29A     -0.312055

  @DF-RHF Final Energy:  -344.70075944467180

   => Energetics <=

    Nuclear Repulsion Energy =            348.5208003980649210
    One-Electron Energy =               -1158.2049523267396580
    Two-Electron Energy =                 464.9833924840029340
    DFT Exchange-Correlation Energy =       0.0000000000000000
    Empirical Dispersion Energy =           0.0000000000000000
    PCM Polarization Energy =               0.0000000000000000
    EFP Energy =                            0.0000000000000000
    Total Energy =                       -344.7007594446718031
    Molecular point group: c1
  Basis Set: CC-PVTZ
  Basis Set:

  -Total Gradient:
     Atom            X                  Y                   Z
    ------   -----------------  -----------------  -----------------
       1       -0.000008011426    -0.000017017650     0.000005928047
       2        0.000039150214     0.000165905094    -0.000078741237
       3        0.000098670415    -0.000082773712     0.000140079573
       4       -0.000099572094    -0.000099170228    -0.000046144851
       5       -0.000012644004     0.000010138865    -0.000007785371
       6       -0.000064800338    -0.000072192263    -0.000061948225
       7        0.000009946362     0.000012947246    -0.000003918329
       8        0.000068712679    -0.000039460595     0.000076817052
       9        0.000003998842    -0.000009003103     0.000020209113
      10       -0.002050887517     0.000430245702     0.001690810056
      11        0.000016891614    -0.000002202918    -0.000008473570
      12        0.003392606047    -0.000382202492    -0.003344111617
      13       -0.002898334275    -0.000047893396     0.004203898227
      14        0.001505194800     0.000151504545    -0.002608191436
      15        0.000007148797    -0.000014182743    -0.000006761557
      16       -0.000008070117    -0.000004642351     0.000028334126

  **** Optimization is complete! (in 12 steps) ****
    Final optimized geometry and variables:
    Molecular point group: c1

    Geometry (in Angstrom), charge = 0, multiplicity = 1:

    H           -2.240962565371    -0.668509068587    -2.389801685583
    C           -1.518401807535    -0.499128673315    -1.615514119256
    C           -1.439041841540    -1.355397855757    -0.529049838303
    C           -0.652134447267     0.569820258934    -1.688720411374
    H           -2.105176643574    -2.194267658773    -0.457810912829
    C           -0.516253390145    -1.139436115612     0.469624711879
    H           -0.693159199350     1.237411947862    -2.528542292904
    C            0.286440514703     0.795460748497    -0.694972453242
    H           -0.448182969246    -1.794355922686     1.315862959548
    C            0.349419648630    -0.057360285595     0.392813988371
    H            0.965168382444     1.619937433821    -0.783662195725
    O            1.248602438659     0.067591667804     1.387940917467
    C            1.734328421186     1.329845882921     1.754070285515
    H            1.079966995732     2.124301165417     1.422378928598
    H            2.716692529013     1.494730533960     1.325837633159
    H            1.813565943845     1.349187976090     2.830961976180

  Mulliken Charges: (a.u.)
   Center  Symbol    Alpha    Beta     Spin     Total
       1     H     0.42428  0.42428  0.00000  0.15143
       2     C     3.09841  3.09841  0.00000 -0.19681
       3     C     3.05962  3.05962  0.00000 -0.11925
       4     C     3.06396  3.06396  0.00000 -0.12791
       5     H     0.42285  0.42285  0.00000  0.15430
       6     C     3.11010  3.11010  0.00000 -0.22020
       7     H     0.42298  0.42298  0.00000  0.15405
       8     C     3.13276  3.13276  0.00000 -0.26553
       9     H     0.41965  0.41965  0.00000  0.16069
      10     C     2.85623  2.85623  0.00000  0.28755
      11     H     0.42340  0.42340  0.00000  0.15320
      12     O     4.16006  4.16006  0.00000 -0.32013
      13     C     3.04093  3.04093  0.00000 -0.08186
      14     H     0.46396  0.46396  0.00000  0.07209
      15     H     0.45663  0.45663  0.00000  0.08673
      16     H     0.44417  0.44417  0.00000  0.11165

   Total alpha = 29.00000, Total beta = 29.00000, Total charge = -0.00000

*** Psi4 exiting successfully. Buy a developer a beer!
