                              Psi4 1.0.54 Driver

  ==> Input File <==

--------------------------------------------------------------------------
set {
	reference rhf
	basis cc-pvtz
}

set_num_threads( 4 )
memory 2 gb

molecule MOL {
0 1

H	 -3.455202	 -0.956251	 -0.234655
O	 -3.515113	 -0.019339	 -0.206321
C	 -2.302264	 0.528872	 0.237390
C	 -1.175688	 -0.398187	 -0.171891
H	 -2.148018	 1.514076	 -0.197759
H	 -2.310727	 0.646384	 1.319032
C	 0.196029	 0.106276	 0.266738
H	 -1.201873	 -0.515469	 -1.250677
H	 -1.365975	 -1.378728	 0.252664
C	 1.330220	 -0.826136	 -0.155230
H	 0.359542	 1.097229	 -0.145561
H	 0.212134	 0.218135	 1.348778
C	 2.719700	 -0.407669	 0.328325
H	 1.339388	 -0.911200	 -1.239363
H	 1.119001	 -1.821953	 0.224128
C	 3.241564	 0.893452	 -0.276737
H	 3.418299	 -1.204729	 0.093035
H	 2.711776	 -0.323368	 1.411960
H	 3.254204	 0.841071	 -1.360784
H	 2.634460	 1.745075	 0.005842
H	 4.254264	 1.092401	 0.054971

	symmetry c1
}
set optking {
	frozen_dihedral = ("
		1 2 3 5
	")
}

ee,wfn = optimize('scf', return_wfn=True)
oeprop( wfn, 'DIPOLE', 'QUADRUPOLE', 'MULLIKEN_CHARGES')
f=open( 'psi4out.xyz', 'w' )
f.write( "21  " )
f.write( str(ee) + "\n" )
f.write( MOL.save_string_xyz() )
f.close()
--------------------------------------------------------------------------

    Molecular point group: c1
  Charge       = 0
  Multiplicity = 1
  Basis Set: CC-PVTZ
  Basis Set:
  @DF-RHF Final Energy:  -310.33005800117940
    Total Energy =                       -310.3300580011791681
    Molecular point group: c1
  Basis Set: CC-PVTZ
  Basis Set:
  Basis Set: CC-PVTZ
  Basis Set:
  @DF-RHF Final Energy:  -310.33131757161988
    Total Energy =                       -310.3313175716200476
  Basis Set: CC-PVTZ
  Basis Set:
  Basis Set: CC-PVTZ
  Basis Set:
  @DF-RHF Final Energy:  -310.33168824713050
    Total Energy =                       -310.3316882471303870
  Basis Set: CC-PVTZ
  Basis Set:
  Basis Set: CC-PVTZ
  Basis Set:
  @DF-RHF Final Energy:  -310.33169335328279
    Total Energy =                       -310.3316933532827306
  Basis Set: CC-PVTZ
  Basis Set:
  Charge       = 0
  Multiplicity = 1
  Basis Set: CC-PVTZ
  Basis Set:

    Orbital Energies (a.u.)
    -----------------------

    Doubly Occupied:

       1A    -20.543535     2A    -11.264240     3A    -11.219725
       4A    -11.218874     5A    -11.216919     6A    -11.216293
       7A    -11.208814     8A     -1.362001     9A     -1.092402
      10A     -1.037723    11A     -0.957261    12A     -0.881655
      13A     -0.824967    14A     -0.783230    15A     -0.679792
      16A     -0.657292    17A     -0.624995    18A     -0.616660
      19A     -0.595590    20A     -0.578868    21A     -0.542839
      22A     -0.534641    23A     -0.508396    24A     -0.492223
      25A     -0.489662    26A     -0.466112    27A     -0.460669
      28A     -0.449766    29A     -0.430576

  @DF-RHF Final Energy:  -310.33169374146649

   => Energetics <=

    Nuclear Repulsion Energy =            312.9218720399919107
    One-Electron Energy =               -1040.5956892969561522
    Two-Electron Energy =                 417.3421235154977467
    DFT Exchange-Correlation Energy =       0.0000000000000000
    Empirical Dispersion Energy =           0.0000000000000000
    PCM Polarization Energy =               0.0000000000000000
    EFP Energy =                            0.0000000000000000
    Total Energy =                       -310.3316937414664380
    Molecular point group: c1
  Basis Set: CC-PVTZ
  Basis Set:

  -Total Gradient:
     Atom            X                  Y                   Z
    ------   -----------------  -----------------  -----------------
       1        0.000568193786     0.000108413284    -0.001752644168
       2       -0.000515825226    -0.000261233143     0.001896861029
       3       -0.000686804445     0.000829447680     0.001133820669
       4       -0.000042519262    -0.000001885428     0.000014731405
       5        0.000658785604    -0.000677731531    -0.001260971885
       6       -0.000014699012    -0.000010378248    -0.000010604098
       7       -0.000037670669    -0.000000058081    -0.000019296596
       8       -0.000002816004    -0.000002411935     0.000005018176
       9       -0.000006764171     0.000010802695    -0.000013019839
      10        0.000040673748     0.000025585047    -0.000015050854
      11       -0.000016971195    -0.000029566236     0.000005186301
      12        0.000011452258     0.000009989448     0.000001543520
      13       -0.000000770173    -0.000009150643     0.000028103848
      14       -0.000005159271     0.000015056101    -0.000003691562
      15        0.000008793910     0.000000589963    -0.000010581470
      16        0.000006700339    -0.000001424982    -0.000007860227
      17        0.000006067124    -0.000004718695     0.000012450598
      18        0.000000376251     0.000009689056     0.000006895861
      19       -0.000001018419     0.000005468637    -0.000008672725
      20        0.000030350935    -0.000007168031     0.000001816202
      21       -0.000000376108    -0.000009314958    -0.000004034185

  **** Optimization is complete! (in 5 steps) ****
    Final optimized geometry and variables:
    Molecular point group: c1

    Geometry (in Angstrom), charge = 0, multiplicity = 1:

    H           -3.565651504459    -0.900433686550    -0.216290077303
    O           -3.567037314799     0.037417973780    -0.164144271254
    C           -2.310234060310     0.500286301942     0.254098239483
    C           -1.170988328161    -0.412260557172    -0.169624597419
    H           -2.175556379400     1.477370095167    -0.193552732528
    H           -2.302382631814     0.626391097497     1.333849361912
    C            0.198306935463     0.106469004901     0.260568055900
    H           -1.199918182252    -0.527755032485    -1.249494799895
    H           -1.331878987364    -1.401413539001     0.256671556082
    C            1.341997568396    -0.812477946113    -0.165221326467
    H            0.344795616010     1.098088218521    -0.155121618743
    H            0.216560677101     0.221157850214     1.341750488928
    C            2.727434270653    -0.377425893044     0.315375516674
    H            1.349700524155    -0.896611900431    -1.249432389007
    H            1.144246796800    -1.811146357038     0.214450089295
    C            3.233789046573     0.927734618005    -0.293881784766
    H            3.434124951698    -1.167413222483     0.080810934841
    H            2.720034040746    -0.290730349787     1.398726732141
    H            3.243884728675     0.873303630111    -1.377806375789
    H            2.619152870476     1.773739743516    -0.011011078561
    H            4.245270158406     1.137391393479     0.034526069144

  Mulliken Charges: (a.u.)
   Center  Symbol    Alpha    Beta     Spin     Total
       1     H     0.39298  0.39298  0.00000  0.21405
       2     O     4.20431  4.20431  0.00000 -0.40861
       3     C     2.95268  2.95268  0.00000  0.09465
       4     C     3.10083  3.10083  0.00000 -0.20166
       5     H     0.46237  0.46237  0.00000  0.07526
       6     H     0.47365  0.47365  0.00000  0.05271
       7     C     3.10251  3.10251  0.00000 -0.20502
       8     H     0.44934  0.44934  0.00000  0.10131
       9     H     0.46126  0.46126  0.00000  0.07748
      10     C     3.09481  3.09481  0.00000 -0.18962
      11     H     0.45012  0.45012  0.00000  0.09976
      12     H     0.45331  0.45331  0.00000  0.09339
      13     C     3.09046  3.09046  0.00000 -0.18092
      14     H     0.45297  0.45297  0.00000  0.09406
      15     H     0.44936  0.44936  0.00000  0.10128
      16     C     3.15236  3.15236  0.00000 -0.30471
      17     H     0.44814  0.44814  0.00000  0.10373
      18     H     0.45442  0.45442  0.00000  0.09117
      19     H     0.45453  0.45453  0.00000  0.09095
      20     H     0.45365  0.45365  0.00000  0.09270
      21     H     0.44597  0.44597  0.00000  0.10807

   Total alpha = 29.00000, Total beta = 29.00000, Total charge = -0.00000

*** Psi4 exiting successfully. Buy a developer a beer!
