  ==> Input File <==

--------------------------------------------------------------------------
set {
	reference rhf
	basis 6-31G*
}

set_num_threads( 4 )
memory 2 gb

molecule MOL {
0 1

O	 2.317525	 0.261614	 -1.153837
C	 2.701189	 0.057885	 -0.047330
C	 2.530299	 0.988491	 1.128916
O	 3.347903	 -1.046386	 0.304773
C	 1.779209	 2.270322	 0.775520
H	 2.029621	 0.425757	 1.909841
H	 3.523024	 1.209912	 1.512538
C	 1.689054	 3.271623	 1.932138
H	 0.781557	 2.017524	 0.429249
H	 2.276927	 2.742156	 -0.064760
C	 0.846922	 2.807014	 3.123802
H	 1.264322	 4.195201	 1.545708
H	 2.692263	 3.521405	 2.274468
C	 0.697256	 3.882376	 4.201854
H	 -0.140105	 2.511965	 2.770894
H	 1.288940	 1.919950	 3.571809
C	 -0.138042	 3.427424	 5.399948
H	 0.242887	 4.769675	 3.764267
H	 1.684315	 4.185546	 4.547544
C	 -0.285867	 4.508376	 6.470177
H	 -1.124388	 3.123164	 5.056160
H	 0.316952	 2.543157	 5.841346
H	 -0.882537	 4.156057	 7.305919
H	 -0.769913	 5.394122	 6.068494
H	 0.682607	 4.810007	 6.859214
C	 4.728119	 -1.109107	 -0.004993
H	 4.882018	 -1.033965	 -1.071845
H	 5.068212	 -2.067527	 0.355250
H	 5.265056	 -0.311663	 0.488280

	symmetry c1
}
set optking {
	frozen_dihedral = ("
		1 2 4 26
	")
}

ee = optimize('scf')
oeprop('DIPOLE', 'QUADRUPOLE', 'MULLIKEN_CHARGES')
f=open( 'psi4out.xyz', 'w' )
f.write( "29  " )
f.write( str(ee) + "\n" )
f.write( MOL.save_string_xyz() )
f.close()
--------------------------------------------------------------------------

    Molecular point group: c1
  Charge       = 0
  Multiplicity = 1
  Basis Set: 6-31G*
  Basis Set:
  @DF-RHF Final Energy:  -501.02410399424286
    Total Energy =                       -501.0241039942426369
    Molecular point group: c1
  Basis Set: 6-31G*
  Basis Set:
  Basis Set: 6-31G*
  Basis Set:
  @DF-RHF Final Energy:  -501.02231078421630
    Total Energy =                       -501.0223107842161880
  Basis Set: 6-31G*
  Basis Set:
  Basis Set: 6-31G*
  Basis Set:
  @DF-RHF Final Energy:  -501.02508846732746
    Total Energy =                       -501.0250884673275777
  Basis Set: 6-31G*
  Basis Set:
  Basis Set: 6-31G*
  Basis Set:
  @DF-RHF Final Energy:  -501.02538133560711
    Total Energy =                       -501.0253813356072214
  Basis Set: 6-31G*
  Basis Set:
  Basis Set: 6-31G*
  Basis Set:
  @DF-RHF Final Energy:  -501.02538946131858
    Total Energy =                       -501.0253894613183547
  Basis Set: 6-31G*
  Basis Set:
  Charge       = 0
  Multiplicity = 1
  Basis Set: 6-31G*
  Basis Set:

    Orbital Energies (a.u.)
    -----------------------

    Doubly Occupied:

       1A    -20.585303     2A    -20.556812     3A    -11.374676
       4A    -11.290371     5A    -11.238282     6A    -11.221542
       7A    -11.219757     8A    -11.217411     9A    -11.216747
      10A    -11.215658    11A    -11.209822    12A     -1.458926
      13A     -1.366515    14A     -1.099506    15A     -1.067039
      16A     -1.015972    17A     -0.975132    18A     -0.935982
      19A     -0.865776    20A     -0.801974    21A     -0.792284
      22A     -0.761951    23A     -0.699445    24A     -0.677162
      25A     -0.672336    26A     -0.651828    27A     -0.625611
      28A     -0.618639    29A     -0.598475    30A     -0.587802
      31A     -0.564986    32A     -0.556131    33A     -0.537132
      34A     -0.531234    35A     -0.519675    36A     -0.503336
      37A     -0.492700    38A     -0.481983    39A     -0.473507
      40A     -0.465382    41A     -0.463548    42A     -0.450308
      43A     -0.442739    44A     -0.432190

  @DF-RHF Final Energy:  -501.02539030409594

   => Energetics <=

    Nuclear Repulsion Energy =            610.6928518526945027
    One-Electron Energy =               -1892.3693029463895527
    Two-Electron Energy =                 780.6510607895991143
    DFT Exchange-Correlation Energy =       0.0000000000000000
    Empirical Dispersion Energy =           0.0000000000000000
    PCM Polarization Energy =               0.0000000000000000
    EFP Energy =                            0.0000000000000000
    Total Energy =                       -501.0253903040959358
    Molecular point group: c1
  Basis Set: 6-31G*
  Basis Set:

  -Total Gradient:
     Atom            X                  Y                   Z
    ------   -----------------  -----------------  -----------------
       1       -0.004406997856    -0.002098703518     0.001491678724
       2        0.007020018429     0.003799307662    -0.000473165326
       3       -0.000022814631    -0.000037977910    -0.000044616229
       4       -0.003778000235    -0.003423358321    -0.004488864582
       5       -0.000017373515     0.000014009756     0.000022129899
       6        0.000020269910     0.000004507432    -0.000033886967
       7        0.000021384661     0.000001879810    -0.000000452129
       8        0.000028695385    -0.000005251843     0.000005657966
       9       -0.000000856465    -0.000010816994     0.000015057492
      10       -0.000010584763     0.000010867263     0.000003115706
      11       -0.000019915296     0.000006651531    -0.000005624534
      12        0.000008338010    -0.000001390758    -0.000011265228
      13        0.000009155810    -0.000004486183     0.000004314949
      14       -0.000002015534     0.000001989740    -0.000004787697
      15       -0.000014314931    -0.000002914684     0.000005480408
      16       -0.000007376908     0.000017350021     0.000005357336
      17       -0.000001412801    -0.000000711379    -0.000001758496
      18       -0.000003292988    -0.000003016728     0.000001480369
      19        0.000000606675     0.000003845659    -0.000002071232
      20        0.000006037426    -0.000001458329     0.000002240788
      21       -0.000000316281     0.000002409456    -0.000001134763
      22       -0.000001737082    -0.000001768568    -0.000000501982
      23        0.000001654195    -0.000000947948     0.000000371013
      24       -0.000000884845    -0.000001777361    -0.000000448016
      25        0.000000205141     0.000002188922     0.000000295791
      26        0.001154788564     0.001749423526     0.003519002266
      27       -0.000001600526    -0.000014884334     0.000001183542
      28        0.000004169321     0.000001073559    -0.000010011530
      29        0.000014171124    -0.000006039474     0.000001222470

  **** Optimization is complete! (in 6 steps) ****
    Final optimized geometry and variables:
    Molecular point group: c1

    Geometry (in Angstrom), charge = 0, multiplicity = 1:

    O            0.428272248554    -1.499363137970    -3.106355586904
    C            0.867764502267    -1.661375932211    -2.021143715434
    C            0.689278400620    -0.716185726168    -0.858975897776
    O            1.525251697970    -2.793540253353    -1.677669544247
    C           -0.074989537757     0.556555302187    -1.215224645045
    H            0.196144257360    -1.283455925455    -0.075655516348
    H            1.678683038436    -0.482740027517    -0.469891347592
    C           -0.177739192867     1.560932894027    -0.062308682155
    H           -1.068829690692     0.290054461473    -1.561511983647
    H            0.417508287757     1.032062635680    -2.057094784831
    C           -1.021757058768     1.093288660990     1.126837689482
    H           -0.607871544950     2.479887197121    -0.453602985053
    H            0.821951766802     1.819962617169     0.283818350004
    C           -1.183304488942     2.170245382058     2.201593991171
    H           -2.005062483879     0.790590349232     0.770381813820
    H           -0.575718509150     0.210285578610     1.578900187612
    C           -2.019710648176     1.712009143472     3.397652310392
    H           -1.642594152819     3.053025832457     1.760074314276
    H           -0.199811893177     2.481651134371     2.550238999628
    C           -2.178347365918     2.794034143082     4.465236489778
    H           -3.002757632308     1.400564132352     3.051020473911
    H           -1.560437095052     0.831603917941     3.842304148259
    H           -2.775217847852     2.439161781933     5.299718212421
    H           -2.667263578975     3.675596263302     4.060293471274
    H           -1.213235621290     3.103141497592     4.856793921028
    C            2.876171519963    -2.885166335057    -2.078084340785
    H            2.964131950186    -2.798623158706    -3.153551711747
    H            3.226230526189    -3.855557857472    -1.762367951455
    H            3.474828266317    -2.116913100190    -1.599197284480

  Mulliken Charges: (a.u.)
   Center  Symbol    Alpha    Beta     Spin     Total
       1     O     4.25471  4.25471  0.00000 -0.50943
       2     C     2.61208  2.61208  0.00000  0.77584
       3     C     3.21340  3.21340  0.00000 -0.42680
       4     O     4.31652  4.31652  0.00000 -0.63304
       5     C     3.15441  3.15441  0.00000 -0.30882
       6     H     0.39574  0.39574  0.00000  0.20852
       7     H     0.40821  0.40821  0.00000  0.18357
       8     C     3.15643  3.15643  0.00000 -0.31285
       9     H     0.41091  0.41091  0.00000  0.17819
      10     H     0.41060  0.41060  0.00000  0.17881
      11     C     3.15508  3.15508  0.00000 -0.31016
      12     H     0.41783  0.41783  0.00000  0.16433
      13     H     0.42465  0.42465  0.00000  0.15070
      14     C     3.15034  3.15034  0.00000 -0.30069
      15     H     0.42179  0.42179  0.00000  0.15641
      16     H     0.42374  0.42374  0.00000  0.15253
      17     C     3.15153  3.15153  0.00000 -0.30306
      18     H     0.42315  0.42315  0.00000  0.15369
      19     H     0.42428  0.42428  0.00000  0.15144
      20     C     3.23939  3.23939  0.00000 -0.47878
      21     H     0.42242  0.42242  0.00000  0.15516
      22     H     0.42338  0.42338  0.00000  0.15324
      23     H     0.41900  0.41900  0.00000  0.16200
      24     H     0.42146  0.42146  0.00000  0.15708
      25     H     0.42196  0.42196  0.00000  0.15607
      26     C     3.09329  3.09329  0.00000 -0.18658
      27     H     0.40764  0.40764  0.00000  0.18473
      28     H     0.40334  0.40334  0.00000  0.19331
      29     H     0.42271  0.42271  0.00000  0.15458

   Total alpha = 44.00000, Total beta = 44.00000, Total charge = -0.00000
