  ==> Input File <==

--------------------------------------------------------------------------
set {
	reference rhf
	basis 6-31G*
}

set_num_threads( 4 )
memory 2 gb

molecule MOL {
0 1

H	 -3.475380	 -0.383787	 -0.789925
O	 -3.114115	 -0.194748	 0.065275
C	 -1.776835	 -0.066256	 0.008374
C	 -1.068715	 -0.203868	 -1.181849
C	 -1.111226	 0.213140	 1.195374
H	 -1.592288	 -0.420430	 -2.097427
C	 0.302973	 -0.061436	 -1.180222
H	 -1.679551	 0.314671	 2.100344
C	 0.260901	 0.352756	 1.180861
H	 0.861974	 -0.164999	 -2.091207
C	 0.984182	 0.218375	 0.000000
H	 0.777191	 0.569273	 2.100441
C	 2.452467	 0.370529	 0.000000
O	 3.228994	 -0.533774	 0.000000
H	 2.809473	 1.405765	 0.000000

	symmetry c1
}
set optking {
	frozen_dihedral = ("
		7 11 13 14
	")
}

ee = optimize('scf')
oeprop('DIPOLE', 'QUADRUPOLE', 'MULLIKEN_CHARGES')
f=open( 'psi4out.xyz', 'w' )
f.write( "15  " )
f.write( str(ee) + "\n" )
f.write( MOL.save_string_xyz() )
f.close()
--------------------------------------------------------------------------

    Molecular point group: c1
  Charge       = 0
  Multiplicity = 1
  Basis Set: 6-31G*
  Basis Set:
  @DF-RHF Final Energy:  -418.27348837531565
    Total Energy =                       -418.2734883753157646
    Molecular point group: c1
  Basis Set: 6-31G*
  Basis Set:
  Basis Set: 6-31G*
  Basis Set:
  @DF-RHF Final Energy:  -418.27396454519624
    Total Energy =                       -418.2739645451964634
  Basis Set: 6-31G*
  Basis Set:
  Basis Set: 6-31G*
  Basis Set:
  @DF-RHF Final Energy:  -418.27315397218024
    Total Energy =                       -418.2731539721802392
  Basis Set: 6-31G*
  Basis Set:
  Basis Set: 6-31G*
  Basis Set:
  @DF-RHF Final Energy:  -418.27425448426015
    Total Energy =                       -418.2742544842601546
  Basis Set: 6-31G*
  Basis Set:
  Basis Set: 6-31G*
  Basis Set:
  @DF-RHF Final Energy:  -418.27426052458327
    Total Energy =                       -418.2742605245834966
  Basis Set: 6-31G*
  Basis Set:
  Charge       = 0
  Multiplicity = 1
  Basis Set: 6-31G*
  Basis Set:

    Orbital Energies (a.u.)
    -----------------------

    Doubly Occupied:

       1A    -20.603378     2A    -20.570856     3A    -11.334571
       4A    -11.313586     5A    -11.255391     6A    -11.254123
       7A    -11.244280     8A    -11.243004     9A    -11.237552
      10A     -1.423115    11A     -1.409523    12A     -1.168316
      13A     -1.037815    14A     -1.035982    15A     -0.886655
      16A     -0.861209    17A     -0.799615    18A     -0.752077
      19A     -0.708281    20A     -0.673287    21A     -0.653935
      22A     -0.628415    23A     -0.605219    24A     -0.601243
      25A     -0.589805    26A     -0.561215    27A     -0.528233
      28A     -0.502271    29A     -0.492580    30A     -0.421871
      31A     -0.354483    32A     -0.323621

  @DF-RHF Final Energy:  -418.27426148880102

   => Energetics <=

    Nuclear Repulsion Energy =            399.9854464283879452
    One-Electron Energy =               -1362.3684011952323090
    Two-Electron Energy =                 544.1086932780427787
    DFT Exchange-Correlation Energy =       0.0000000000000000
    Empirical Dispersion Energy =           0.0000000000000000
    PCM Polarization Energy =               0.0000000000000000
    EFP Energy =                            0.0000000000000000
    Total Energy =                       -418.2742614888015851
    Molecular point group: c1
  Basis Set: 6-31G*
  Basis Set:

  -Total Gradient:
     Atom            X                  Y                   Z
    ------   -----------------  -----------------  -----------------
       1        0.000006179215     0.000004389140    -0.000003428137
       2       -0.000008117919    -0.000051109648    -0.000003463244
       3        0.000012213406     0.000143444778     0.000155612539
       4        0.000119636371    -0.000043001039    -0.000064376173
       5       -0.000171062391    -0.000048290330    -0.000089341222
       6       -0.000003250726    -0.000004018416    -0.000000313583
       7       -0.000498444037     0.003237820346    -0.000589544346
       8        0.000018885111     0.000006999877     0.000013343797
       9        0.000174975097    -0.000006125578    -0.000109514295
      10       -0.000004873071     0.000006561374     0.000011773086
      11        0.000644272890    -0.004817319726     0.002715838405
      12       -0.000021200904     0.000007423032     0.000005380112
      13       -0.000174660125     0.001657055811    -0.006016224759
      14       -0.000036442723    -0.000081061713     0.003976805586
      15       -0.000058110188    -0.000012767908    -0.000002547766

  **** Optimization is complete! (in 6 steps) ****
    Final optimized geometry and variables:
    Molecular point group: c1

    Geometry (in Angstrom), charge = 0, multiplicity = 1:

    H           -3.491539202019    -0.381209578082    -0.786354692728
    O           -3.130351352248    -0.180652438857     0.065876593073
    C           -1.787407177418    -0.062404744147     0.004183372818
    C           -1.079357619814    -0.201958922641    -1.178348761368
    C           -1.115370601382     0.215630157248     1.187516016490
    H           -1.597756333913    -0.412032723435    -2.098437068407
    C            0.300240679856    -0.072753615942    -1.174419935934
    H           -1.679678204521     0.322986065308     2.094727662502
    C            0.257444912132     0.352686969703     1.177020063477
    H            0.841780128599    -0.190028117788    -2.096201646758
    C            0.982657665932     0.191860886780     0.000870495228
    H            0.768296376352     0.576518882346     2.097405923895
    C            2.470068901149     0.382172913760    -0.002750116786
    O            3.256707566735    -0.507558355307    -0.030116540925
    H            2.816845874673     1.418391138801     0.053779262465

  Mulliken Charges: (a.u.)
   Center  Symbol    Alpha    Beta     Spin     Total
       1     H     0.27006  0.27006  0.00000  0.45987
       2     O     4.37613  4.37613  0.00000 -0.75226
       3     C     2.79238  2.79238  0.00000  0.41525
       4     C     3.14215  3.14215  0.00000 -0.28429
       5     C     3.12101  3.12101  0.00000 -0.24202
       6     H     0.39950  0.39950  0.00000  0.20100
       7     C     3.09406  3.09406  0.00000 -0.18812
       8     H     0.38689  0.38689  0.00000  0.22623
       9     C     3.09679  3.09679  0.00000 -0.19359
      10     H     0.38849  0.38849  0.00000  0.22303
      11     C     3.04362  3.04362  0.00000 -0.08724
      12     H     0.39053  0.39053  0.00000  0.21893
      13     C     2.85224  2.85224  0.00000  0.29551
      14     O     4.22205  4.22205  0.00000 -0.44409
      15     H     0.42411  0.42411  0.00000  0.15179

   Total alpha = 32.00000, Total beta = 32.00000, Total charge =  0.00000
