  ==> Input File <==

--------------------------------------------------------------------------
set {
	reference rhf
	basis 6-31G*
}

set_num_threads( 1 )
memory 2 gb

molecule MOL {
0 1

H	 -3.498780	 -0.964398	 -0.081282
O	 -3.517110	 -0.026191	 -0.205115
C	 -2.306886	 0.532354	 0.237577
C	 -1.177863	 -0.397191	 -0.171080
H	 -2.156308	 1.517575	 -0.201710
H	 -2.315015	 0.655684	 1.319734
C	 0.198102	 0.111031	 0.262842
H	 -1.208843	 -0.518759	 -1.250427
H	 -1.368741	 -1.376554	 0.258909
C	 1.331804	 -0.827780	 -0.158768
H	 0.361943	 1.100838	 -0.156218
H	 0.217265	 0.229072	 1.345532
C	 2.723619	 -0.410569	 0.329459
H	 1.342964	 -0.912588	 -1.244120
H	 1.116806	 -1.824343	 0.220779
C	 3.243875	 0.895854	 -0.272975
H	 3.424222	 -1.207124	 0.091250
H	 2.714788	 -0.329854	 1.414619
H	 3.251977	 0.848779	 -1.358681
H	 2.637085	 1.747371	 0.016682
H	 4.259473	 1.094070	 0.055697

	symmetry c1
}
set optking {
	frozen_dihedral = ("
		2 3 4 8,
		8 4 7 10,
		4 7 10 14,
		16 13 10 14
	")
}

ee = energy('scf')
oeprop('DIPOLE', 'QUADRUPOLE', 'MULLIKEN_CHARGES')
f=open( 'psi4out.xyz', 'w' )
f.write( "21  " )
f.write( str(ee) + "\n" )
f.write( MOL.save_string_xyz() )
f.close()
--------------------------------------------------------------------------

    Molecular point group: c1

    Geometry (in Angstrom), charge = 0, multiplicity = 1:

       Center              X                  Y                   Z               Mass
    ------------   -----------------  -----------------  -----------------  -----------------
           H         -3.506061449593    -0.949567129348    -0.080087124046     1.007825032070
           O         -3.524391449593    -0.011360129348    -0.203920124046    15.994914619560
           C         -2.314167449593     0.547184870652     0.238771875954    12.000000000000
           C         -1.185144449593    -0.382360129348    -0.169885124046    12.000000000000
           H         -2.163589449593     1.532405870652    -0.200515124046     1.007825032070
           H         -2.322296449593     0.670514870652     1.320928875954     1.007825032070
           C          0.190820550407     0.125861870652     0.264036875954    12.000000000000
           H         -1.216124449593    -0.503928129348    -1.249232124046     1.007825032070
           H         -1.376022449593    -1.361723129348     0.260103875954     1.007825032070
           C          1.324522550407    -0.812949129348    -0.157573124046    12.000000000000
           H          0.354661550407     1.115668870652    -0.155023124046     1.007825032070
           H          0.209983550407     0.243902870652     1.346726875954     1.007825032070
           C          2.716337550407    -0.395738129348     0.330653875954    12.000000000000
           H          1.335682550407    -0.897757129348    -1.242925124046     1.007825032070
           H          1.109524550407    -1.809512129348     0.221973875954     1.007825032070
           C          3.236593550407     0.910684870652    -0.271780124046    12.000000000000
           H          3.416940550407    -1.192293129348     0.092444875954     1.007825032070
           H          2.707506550407    -0.315023129348     1.415813875954     1.007825032070
           H          3.244695550407     0.863609870652    -1.357486124046     1.007825032070
           H          2.629803550407     1.762201870652     0.017876875954     1.007825032070
           H          4.252191550407     1.108900870652     0.056891875954     1.007825032070

  Charge       = 0
  Multiplicity = 1
  Basis Set: 6-31G*
  Basis Set:

    Orbital Energies (a.u.)
    -----------------------

    Doubly Occupied:

       1A    -20.549455     2A    -11.267679     3A    -11.220706
       4A    -11.219195     5A    -11.218528     6A    -11.217902
       7A    -11.210737     8A     -1.358704     9A     -1.090831
      10A     -1.036500    11A     -0.956267    12A     -0.880149
      13A     -0.824140    14A     -0.782740    15A     -0.682507
      16A     -0.653312    17A     -0.623905    18A     -0.614750
      19A     -0.595647    20A     -0.576964    21A     -0.540491
      22A     -0.535398    23A     -0.506544    24A     -0.491781
      25A     -0.489371    26A     -0.465447    27A     -0.460403
      28A     -0.451282    29A     -0.423302

  @DF-RHF Final Energy:  -310.21005682639259

   => Energetics <=

    Nuclear Repulsion Energy =            313.2532124390700119
    One-Electron Energy =               -1041.0374572236069071
    Two-Electron Energy =                 417.5741879581442504
    DFT Exchange-Correlation Energy =       0.0000000000000000
    Empirical Dispersion Energy =           0.0000000000000000
    PCM Polarization Energy =               0.0000000000000000
    EFP Energy =                            0.0000000000000000
    Total Energy =                       -310.2100568263926448

  Mulliken Charges: (a.u.)
   Center  Symbol    Alpha    Beta     Spin     Total
       1     H     0.28116  0.28116  0.00000  0.43767
       2     O     4.37397  4.37397  0.00000 -0.74793
       3     C     2.97942  2.97942  0.00000  0.04116
       4     C     3.17674  3.17674  0.00000 -0.35348
       5     H     0.41810  0.41810  0.00000  0.16380
       6     H     0.43060  0.43060  0.00000  0.13880
       7     C     3.16123  3.16123  0.00000 -0.32246
       8     H     0.41337  0.41337  0.00000  0.17327
       9     H     0.42852  0.42852  0.00000  0.14295
      10     C     3.15202  3.15202  0.00000 -0.30404
      11     H     0.41902  0.41902  0.00000  0.16195
      12     H     0.42260  0.42260  0.00000  0.15481
      13     C     3.15268  3.15268  0.00000 -0.30536
      14     H     0.42288  0.42288  0.00000  0.15423
      15     H     0.42226  0.42226  0.00000  0.15547
      16     C     3.24149  3.24149  0.00000 -0.48298
      17     H     0.42033  0.42033  0.00000  0.15933
      18     H     0.42315  0.42315  0.00000  0.15371
      19     H     0.42172  0.42172  0.00000  0.15656
      20     H     0.42019  0.42019  0.00000  0.15962
      21     H     0.41854  0.41854  0.00000  0.16292

   Total alpha = 29.00000, Total beta = 29.00000, Total charge =  0.00000
