  ==> Input File <==

--------------------------------------------------------------------------
set {
	reference rhf
	basis cc-pvtz
}

set_num_threads( 4 )
memory 2 gb

molecule MOL {
0 1

H	 3.397997	 -0.284142	 -0.919280
C	 2.686896	 -0.478931	 -0.127022
C	 1.322304	 0.099773	 -0.484271
H	 2.634756	 -1.552412	 0.015422
H	 3.075922	 -0.037967	 0.783775
C	 0.308557	 -0.162619	 0.622645
H	 0.959471	 -0.341252	 -1.404370
H	 1.400316	 1.168302	 -0.642690
N	 -1.069352	 -0.004081	 0.085342
H	 0.371632	 -1.172932	 0.991288
H	 0.400391	 0.548875	 1.426218
O	 -1.584901	 -0.965470	 -0.377818
O	 -1.548033	 1.079343	 0.130056

	symmetry c1
}
set optking {
	frozen_dihedral = ("
		7 3 6 9
	")
}

ee = optimize('scf')
oeprop('DIPOLE', 'QUADRUPOLE', 'MULLIKEN_CHARGES')
f=open( 'psi4out.xyz', 'w' )
f.write( "13  " )
f.write( str(ee) + "\n" )
f.write( MOL.save_string_xyz() )
f.close()
--------------------------------------------------------------------------

    Molecular point group: c1
  Charge       = 0
  Multiplicity = 1
  Basis Set: CC-PVTZ
  Basis Set:
  @DF-RHF Final Energy:  -321.86028750215030
    Total Energy =                       -321.8602875021502996
    Molecular point group: c1
  Basis Set: CC-PVTZ
  Basis Set:
  Basis Set: CC-PVTZ
  Basis Set:
  @DF-RHF Final Energy:  -321.86012911517810
    Total Energy =                       -321.8601291151780970
  Basis Set: CC-PVTZ
  Basis Set:
  Basis Set: CC-PVTZ
  Basis Set:
  @DF-RHF Final Energy:  -321.85708841797396
    Total Energy =                       -321.8570884179739551
  Basis Set: CC-PVTZ
  Basis Set:
  Basis Set: CC-PVTZ
  Basis Set:
  @DF-RHF Final Energy:  -321.86017971420142
    Total Energy =                       -321.8601797142016494
  Basis Set: CC-PVTZ
  Basis Set:
  Basis Set: CC-PVTZ
  Basis Set:
  @DF-RHF Final Energy:  -321.86035124718831
    Total Energy =                       -321.8603512471883619
  Basis Set: CC-PVTZ
  Basis Set:
  Basis Set: CC-PVTZ
  Basis Set:
  @DF-RHF Final Energy:  -321.86042376413786
    Total Energy =                       -321.8604237641379200
  Basis Set: CC-PVTZ
  Basis Set:
  Charge       = 0
  Multiplicity = 1
  Basis Set: CC-PVTZ
  Basis Set:

    Orbital Energies (a.u.)
    -----------------------

    Doubly Occupied:

       1A    -20.590490     2A    -20.590385     3A    -15.836978
       4A    -11.297222     5A    -11.254497     6A    -11.237110
       7A     -1.636030     8A     -1.420348     9A     -1.133815
      10A     -1.028016    11A     -0.884317    12A     -0.834801
      13A     -0.761817    14A     -0.738552    15A     -0.727639
      16A     -0.670593    17A     -0.605406    18A     -0.590166
      19A     -0.550330    20A     -0.520943    21A     -0.513649
      22A     -0.486474    23A     -0.475288    24A     -0.453176

  @DF-RHF Final Energy:  -321.86042464262619

   => Energetics <=

    Nuclear Repulsion Energy =            248.0755471517798014
    One-Electron Energy =                -930.1958594891322036
    Two-Electron Energy =                 360.2598876947263307
    DFT Exchange-Correlation Energy =       0.0000000000000000
    Empirical Dispersion Energy =           0.0000000000000000
    PCM Polarization Energy =               0.0000000000000000
    EFP Energy =                            0.0000000000000000
    Total Energy =                       -321.8604246426260715
    Molecular point group: c1
  Basis Set: CC-PVTZ
  Basis Set:

  -Total Gradient:
     Atom            X                  Y                   Z
    ------   -----------------  -----------------  -----------------
       1       -0.000012135387     0.000004063013    -0.000000659288
       2        0.000002144446    -0.000009638930     0.000020586539
       3        0.001850801883    -0.004359729235     0.000714165301
       4        0.000005301738    -0.000008334591     0.000001812732
       5        0.000004390025    -0.000000476971     0.000000998291
       6       -0.000228785698     0.003863913144     0.000593857014
       7       -0.001551023041     0.002887322946    -0.000720513510
       8       -0.000002975274     0.000021374116     0.000000448521
       9       -0.000141132463    -0.002267481400    -0.000582469699
      10       -0.000011519260    -0.000023508736     0.000002282922
      11        0.000006528609    -0.000006025313    -0.000020951797
      12        0.000041240878    -0.000075724196    -0.000030536574
      13        0.000037163541    -0.000025753849     0.000020979548

  **** Optimization is complete! (in 7 steps) ****
    Final optimized geometry and variables:
    Molecular point group: c1

    Geometry (in Angstrom), charge = 0, multiplicity = 1:

    H            3.421193899651    -0.177533649887    -0.879841219449
    C            2.704477999217    -0.404557933896    -0.101310530956
    C            1.333849199218     0.154877919633    -0.460876556400
    H            2.670467493621    -1.481173563430     0.018103934594
    H            3.074522956843     0.024187969599     0.823635631363
    C            0.316126715712    -0.099349898910     0.648948994216
    H            0.967930445987    -0.281555878544    -1.382189778625
    H            1.400094794642     1.222121462763    -0.633111745532
    N           -1.060571255811     0.072107172198     0.113871554218
    H            0.363133406257    -1.115369369314     1.003804394207
    H            0.418967110262     0.597815211042     1.463417992335
    O           -1.603661991771    -0.893660169489    -0.306835572098
    O           -1.510757559754     1.168724144474     0.115977908074

  Mulliken Charges: (a.u.)
   Center  Symbol    Alpha    Beta     Spin     Total
       1     H     0.44207  0.44207  0.00000  0.11585
       2     C     3.15034  3.15034  0.00000 -0.30067
       3     C     3.09485  3.09485  0.00000 -0.18970
       4     H     0.45020  0.45020  0.00000  0.09959
       5     H     0.45225  0.45225  0.00000  0.09549
       6     C     3.03779  3.03779  0.00000 -0.07557
       7     H     0.43826  0.43826  0.00000  0.12348
       8     H     0.43984  0.43984  0.00000  0.12032
       9     N     3.27797  3.27797  0.00000  0.44405
      10     H     0.43679  0.43679  0.00000  0.12643
      11     H     0.43329  0.43329  0.00000  0.13342
      12     O     4.17223  4.17223  0.00000 -0.34446
      13     O     4.17412  4.17412  0.00000 -0.34824

   Total alpha = 24.00000, Total beta = 24.00000, Total charge = -0.00000
