                              Psi4 1.0.54 Driver

  ==> Input File <==

--------------------------------------------------------------------------
set {
	reference rhf
	basis cc-pvtz
}

set_num_threads( 4 )
memory 2 gb

molecule MOL {
0 1

H	 1.709756	 -2.949420	 -0.121088
C	 1.456162	 -1.950713	 -0.460292
C	 0.406568	 -1.334978	 0.454982
H	 1.078198	 -2.016952	 -1.473049
H	 2.370895	 -1.371535	 -0.483743
N	 0.000297	 0.000045	 0.046089
H	 -0.464479	 -1.975495	 0.443505
H	 0.767932	 -1.334693	 1.487138
C	 -1.359159	 0.315706	 0.454403
C	 0.953122	 1.019676	 0.454747
C	 -2.416729	 -0.286720	 -0.460526
H	 -1.478729	 1.390261	 0.442007
H	 -1.539692	 0.003361	 1.486760
C	 0.959851	 2.236994	 -0.459873
H	 1.943644	 0.586345	 0.442499
H	 0.772554	 1.331964	 1.487115
H	 -2.285276	 0.073129	 -1.473516
H	 -2.371743	 -1.368476	 -0.483210
H	 -3.408658	 -0.007405	 -0.121594
H	 1.206448	 1.943644	 -1.472811
H	 0.000192	 2.738293	 -0.482919
H	 1.697041	 2.956792	 -0.120383

	symmetry c1
}
ee,wfn = energy('scf', return_wfn=True)
oeprop( wfn, 'DIPOLE', 'QUADRUPOLE', 'MULLIKEN_CHARGES')
oeprop( wfn, 'GRID_ESP')
f=open( 'psi4out.xyz', 'w' )
f.write( "22  " )
f.write( str(ee) + "\n" )
f.write( MOL.save_string_xyz() )
f.close()
--------------------------------------------------------------------------

    Molecular point group: c1

    Geometry (in Angstrom), charge = 0, multiplicity = 1:

       Center              X                  Y                   Z               Mass
    ------------   -----------------  -----------------  -----------------  -----------------
           H          1.709755931642    -2.949420214349    -0.121087227922     1.007825032070
           C          1.456161931642    -1.950713214349    -0.460291227922    12.000000000000
           C          0.406567931642    -1.334978214349     0.454982772078    12.000000000000
           H          1.078197931642    -2.016952214349    -1.473048227922     1.007825032070
           H          2.370894931642    -1.371535214349    -0.483742227922     1.007825032070
           N          0.000296931642     0.000044785651     0.046089772078    14.003074004780
           H         -0.464479068358    -1.975495214349     0.443505772078     1.007825032070
           H          0.767931931642    -1.334693214349     1.487138772078     1.007825032070
           C         -1.359159068358     0.315705785651     0.454403772078    12.000000000000
           C          0.953121931642     1.019675785651     0.454747772078    12.000000000000
           C         -2.416729068358    -0.286720214349    -0.460525227922    12.000000000000
           H         -1.478729068358     1.390260785651     0.442007772078     1.007825032070
           H         -1.539692068358     0.003360785651     1.486760772078     1.007825032070
           C          0.959850931642     2.236993785651    -0.459872227922    12.000000000000
           H          1.943643931642     0.586344785651     0.442499772078     1.007825032070
           H          0.772553931642     1.331963785651     1.487115772078     1.007825032070
           H         -2.285276068358     0.073128785651    -1.473515227922     1.007825032070
           H         -2.371743068358    -1.368476214349    -0.483209227922     1.007825032070
           H         -3.408658068358    -0.007405214349    -0.121593227922     1.007825032070
           H          1.206447931642     1.943643785651    -1.472810227922     1.007825032070
           H          0.000191931642     2.738292785651    -0.482918227922     1.007825032070
           H          1.697040931642     2.956791785651    -0.120382227922     1.007825032070

  Charge       = 0
  Multiplicity = 1
  Basis Set: CC-PVTZ
  Basis Set:

    Orbital Energies (a.u.)
    -----------------------

    Doubly Occupied:

       1A    -15.533110     2A    -11.238731     3A    -11.238721
       4A    -11.238695     5A    -11.203738     6A    -11.203737
       7A    -11.203735     8A     -1.226276     9A     -1.024661
      10A     -1.024633    11A     -0.956949    12A     -0.846942
      13A     -0.846923    14A     -0.772841    15A     -0.647006
      16A     -0.646956    17A     -0.621842    18A     -0.592265
      19A     -0.592230    20A     -0.550801    21A     -0.533106
      22A     -0.519231    23A     -0.519203    24A     -0.494096
      25A     -0.494074    26A     -0.491270    27A     -0.462088
      28A     -0.462075    29A     -0.343942

  @DF-RHF Final Energy:  -290.47669540795147

   => Energetics <=

    Nuclear Repulsion Energy =            337.8302357447619784
    One-Electron Energy =               -1061.5540864042409339
    Two-Electron Energy =                 433.2471552515274880
    DFT Exchange-Correlation Energy =       0.0000000000000000
    Empirical Dispersion Energy =           0.0000000000000000
    PCM Polarization Energy =               0.0000000000000000
    EFP Energy =                            0.0000000000000000
    Total Energy =                       -290.4766954079515244

  Mulliken Charges: (a.u.)
   Center  Symbol    Alpha    Beta     Spin     Total
       1     H     0.45320  0.45320  0.00000  0.09360
       2     C     3.14105  3.14105  0.00000 -0.28210
       3     C     3.04472  3.04472  0.00000 -0.08945
       4     H     0.45169  0.45169  0.00000  0.09663
       5     H     0.45626  0.45626  0.00000  0.08748
       6     N     3.62378  3.62378  0.00000 -0.24755
       7     H     0.44920  0.44920  0.00000  0.10160
       8     H     0.46262  0.46262  0.00000  0.07476
       9     C     3.04470  3.04470  0.00000 -0.08939
      10     C     3.04467  3.04467  0.00000 -0.08935
      11     C     3.14107  3.14107  0.00000 -0.28214
      12     H     0.44919  0.44919  0.00000  0.10162
      13     H     0.46264  0.46264  0.00000  0.07471
      14     C     3.14107  3.14107  0.00000 -0.28213
      15     H     0.44918  0.44918  0.00000  0.10164
      16     H     0.46266  0.46266  0.00000  0.07468
      17     H     0.45169  0.45169  0.00000  0.09662
      18     H     0.45626  0.45626  0.00000  0.08747
      19     H     0.45320  0.45320  0.00000  0.09361
      20     H     0.45169  0.45169  0.00000  0.09662
      21     H     0.45627  0.45627  0.00000  0.08746
      22     H     0.45320  0.45320  0.00000  0.09360

   Total alpha = 29.00000, Total beta = 29.00000, Total charge = -0.00000

*** Psi4 exiting successfully. Buy a developer a beer!
