  ==> Input File <==

--------------------------------------------------------------------------
set {
	reference rhf
	basis 6-31G*
}

set_num_threads( 4 )
memory 2 gb

molecule MOL {
0 1

H	 1.909190	 1.639625	 -0.467157
O	 1.022853	 1.292306	 -0.490907
C	 1.050492	 0.053836	 0.000068
C	 -0.318135	 -0.576402	 0.000164
O	 2.055036	 -0.453294	 0.380472
C	 -1.454360	 0.441875	 -0.000474
H	 -0.374042	 -1.230163	 -0.866135
H	 -0.374274	 -1.229227	 0.867154
C	 -2.826123	 -0.230780	 0.000056
H	 -1.357605	 1.085198	 -0.868380
H	 -1.357504	 1.086451	 0.866496
H	 -2.959731	 -0.858053	 -0.876869
H	 -3.619374	 0.509403	 -0.000080
H	 -2.959371	 -0.857318	 0.877556

	symmetry c1
}
set optking {
	frozen_dihedral = ("
		2 3 4 7
	")
}

ee = optimize('scf')
oeprop('DIPOLE', 'QUADRUPOLE', 'MULLIKEN_CHARGES')
f=open( 'psi4out.xyz', 'w' )
f.write( "14  " )
f.write( str(ee) + "\n" )
f.write( MOL.save_string_xyz() )
f.close()
--------------------------------------------------------------------------

    Molecular point group: c1
  Charge       = 0
  Multiplicity = 1
  Basis Set: 6-31G*
  Basis Set:
  @DF-RHF Final Energy:  -305.87748795120461
    Total Energy =                       -305.8774879512044436
    Molecular point group: c1
  Basis Set: 6-31G*
  Basis Set:
  Basis Set: 6-31G*
  Basis Set:
  @DF-RHF Final Energy:  -305.87803302550208
    Total Energy =                       -305.8780330255019635
  Basis Set: 6-31G*
  Basis Set:
  Basis Set: 6-31G*
  Basis Set:
  @DF-RHF Final Energy:  -305.87753972975668
    Total Energy =                       -305.8775397297567906
  Basis Set: 6-31G*
  Basis Set:
  Basis Set: 6-31G*
  Basis Set:
  @DF-RHF Final Energy:  -305.87842112422823
    Total Energy =                       -305.8784211242283391
  Basis Set: 6-31G*
  Basis Set:
  Basis Set: 6-31G*
  Basis Set:
  @DF-RHF Final Energy:  -305.87843577140961
    Total Energy =                       -305.8784357714096132
  Basis Set: 6-31G*
  Basis Set:
  Basis Set: 6-31G*
  Basis Set:
  @DF-RHF Final Energy:  -305.87843713965651
    Total Energy =                       -305.8784371396567394
  Basis Set: 6-31G*
  Basis Set:
  Charge       = 0
  Multiplicity = 1
  Basis Set: 6-31G*
  Basis Set:

    Orbital Energies (a.u.)
    -----------------------

    Doubly Occupied:

       1A    -20.615340     2A    -20.547997     3A    -11.381783
       4A    -11.241448     5A    -11.230354     6A    -11.219591
       7A     -1.475831     8A     -1.364632     9A     -1.085175
      10A     -0.978256    11A     -0.846546    12A     -0.818319
      13A     -0.699517    14A     -0.680736    15A     -0.663096
      16A     -0.618191    17A     -0.590492    18A     -0.564316
      19A     -0.549703    20A     -0.524303    21A     -0.497230
      22A     -0.490729    23A     -0.468994    24A     -0.436954

  @DF-RHF Final Energy:  -305.87843752003994

   => Energetics <=

    Nuclear Repulsion Energy =            240.3784825893255572
    One-Electron Energy =                -893.3347792654885779
    Two-Electron Energy =                 347.0778591561230542
    DFT Exchange-Correlation Energy =       0.0000000000000000
    Empirical Dispersion Energy =           0.0000000000000000
    PCM Polarization Energy =               0.0000000000000000
    EFP Energy =                            0.0000000000000000
    Total Energy =                       -305.8784375200399381
    Molecular point group: c1
  Basis Set: 6-31G*
  Basis Set:

  -Total Gradient:
     Atom            X                  Y                   Z
    ------   -----------------  -----------------  -----------------
       1       -0.000003999291    -0.000006827010     0.000001521963
       2       -0.000123294560     0.000268802995     0.000625027109
       3        0.000222797806    -0.000492977036    -0.000761549938
       4       -0.000355426646     0.000836358285    -0.000304582533
       5       -0.000006322884     0.000008212497    -0.000001925271
       6        0.000008133890    -0.000007284593     0.000023548640
       7        0.000265773328    -0.000623151938     0.000426134837
       8       -0.000005644381     0.000011854693    -0.000006944195
       9       -0.000003886042     0.000000482662    -0.000009619947
      10        0.000000519635    -0.000003672509     0.000003936326
      11       -0.000001092159     0.000008597007     0.000003359515
      12        0.000003491506    -0.000005641949     0.000001624616
      13        0.000001703916    -0.000001635375    -0.000005252100
      14       -0.000002754123     0.000006882270     0.000004720978

  **** Optimization is complete! (in 7 steps) ****
    Final optimized geometry and variables:
    Molecular point group: c1

    Geometry (in Angstrom), charge = 0, multiplicity = 1:

    H            2.068414685906     1.481495269085    -0.420105542201
    O            1.159618287970     1.197608435664    -0.447973622957
    C            1.106398706961    -0.044608731480     0.026218420271
    C           -0.279885619494    -0.642668189663     0.013238850506
    O            2.078591209488    -0.617390059684     0.399610842224
    C           -1.444987450545     0.347710341049     0.009476079179
    H           -0.324266066638    -1.284352054251    -0.864288978541
    H           -0.330540270025    -1.305324087210     0.869444915378
    C           -2.794368956515    -0.368703978024     0.038824088553
    H           -1.382951890689     0.979893652114    -0.868660971150
    H           -1.363584181026     1.006563851774     0.869003363107
    H           -2.915613504864    -1.015514751658    -0.825513214819
    H           -3.611411202181     0.345155059517     0.034176096363
    H           -2.896641475182    -0.983147423054     0.928583972056

  Mulliken Charges: (a.u.)
   Center  Symbol    Alpha    Beta     Spin     Total
       1     H     0.26721  0.26721  0.00000  0.46559
       2     O     4.34789  4.34789  0.00000 -0.69577
       3     C     2.62306  2.62306  0.00000  0.75389
       4     C     3.21088  3.21088  0.00000 -0.42175
       5     O     4.28223  4.28223  0.00000 -0.56446
       6     C     3.15501  3.15501  0.00000 -0.31002
       7     H     0.39810  0.39810  0.00000  0.20380
       8     H     0.39596  0.39596  0.00000  0.20807
       9     C     3.24306  3.24306  0.00000 -0.48612
      10     H     0.40808  0.40808  0.00000  0.18384
      11     H     0.41481  0.41481  0.00000  0.17038
      12     H     0.41992  0.41992  0.00000  0.16015
      13     H     0.41455  0.41455  0.00000  0.17089
      14     H     0.41925  0.41925  0.00000  0.16151

   Total alpha = 24.00000, Total beta = 24.00000, Total charge = -0.00000
