                              Psi4 1.0.54 Driver

  ==> Input File <==

--------------------------------------------------------------------------
set {
	reference rhf
	basis cc-pvtz
}

set_num_threads( 4 )
memory 2 gb

molecule MOL {
0 1

H	 -2.097044	 -1.119458	 0.385624
C	 -1.687099	 -1.042323	 -0.616194
O	 -0.775228	 0.000056	 -0.739966
H	 -2.499393	 -0.827957	 -1.296178
H	 -1.261332	 -2.001961	 -0.890874
C	 0.406133	 -0.000384	 0.036994
C	 1.526415	 -0.003194	 -0.997339
C	 0.498772	 1.259027	 0.900673
C	 0.495883	 -1.257378	 0.904465
H	 1.452279	 0.872071	 -1.630204
H	 1.451276	 -0.881020	 -1.626529
H	 2.497919	 -0.002741	 -0.517601
H	 0.368981	 2.144239	 0.289753
H	 1.470064	 1.313479	 1.377660
H	 -0.248448	 1.271586	 1.684297
H	 0.363971	 -2.144195	 0.296316
H	 1.467114	 -1.312636	 1.381470
H	 -0.251246	 -1.265768	 1.688235

	symmetry c1
}
set optking {
	frozen_dihedral = ("
		2 3 6 7
	")
}

ee,wfn = optimize('scf', return_wfn=True)
oeprop( wfn, 'DIPOLE', 'QUADRUPOLE', 'MULLIKEN_CHARGES')
f=open( 'psi4out.xyz', 'w' )
f.write( "18  " )
f.write( str(ee) + "\n" )
f.write( MOL.save_string_xyz() )
f.close()
--------------------------------------------------------------------------

    Molecular point group: c1
  Charge       = 0
  Multiplicity = 1
  Basis Set: CC-PVTZ
  Basis Set:
  @DF-RHF Final Energy:  -271.26852780879051
    Total Energy =                       -271.2685278087905090
    Molecular point group: c1
  Basis Set: CC-PVTZ
  Basis Set:
  Basis Set: CC-PVTZ
  Basis Set:
  @DF-RHF Final Energy:  -271.23358733345748
    Total Energy =                       -271.2335873334574217
  Basis Set: CC-PVTZ
  Basis Set:
  Basis Set: CC-PVTZ
  Basis Set:
  @DF-RHF Final Energy:  -271.26996207811050
    Total Energy =                       -271.2699620781104386
  Basis Set: CC-PVTZ
  Basis Set:
  Basis Set: CC-PVTZ
  Basis Set:
  @DF-RHF Final Energy:  -271.27212234814317
    Total Energy =                       -271.2721223481433412
  Basis Set: CC-PVTZ
  Basis Set:
  @DF-RHF Final Energy:  -271.27211910512347
    Total Energy =                       -271.2721191051236360
  @DF-RHF Final Energy:  -271.27228540960067
    Total Energy =                       -271.2722854096006699
  Basis Set: CC-PVTZ
  Basis Set:
  @DF-RHF Final Energy:  -271.27228920150066
    Total Energy =                       -271.2722892015005982
  Basis Set: CC-PVTZ
  Basis Set:
  Basis Set: CC-PVTZ
  Basis Set:
  @DF-RHF Final Energy:  -271.27229919695299
    Total Energy =                       -271.2722991969529858
  Basis Set: CC-PVTZ
  Basis Set:
  Basis Set: CC-PVTZ
  Basis Set:
  @DF-RHF Final Energy:  -271.27230077773532
    Total Energy =                       -271.2723007777350404
  Basis Set: CC-PVTZ
  Basis Set:
  Charge       = 0
  Multiplicity = 1
  Basis Set: CC-PVTZ
  Basis Set:

    Orbital Energies (a.u.)
    -----------------------

    Doubly Occupied:

       1A    -20.536989     2A    -11.280738     3A    -11.259526
       4A    -11.211741     5A    -11.202151     6A    -11.202068
       7A     -1.369179     8A     -1.075589     9A     -0.951549
      10A     -0.935421    11A     -0.912270    12A     -0.752157
      13A     -0.657576    14A     -0.648128    15A     -0.638414
      16A     -0.581890    17A     -0.578620    18A     -0.547509
      19A     -0.544467    20A     -0.527020    21A     -0.515304
      22A     -0.491402    23A     -0.483923    24A     -0.443370
      25A     -0.398505

  @DF-RHF Final Energy:  -271.27230122044875

   => Energetics <=

    Nuclear Repulsion Energy =            271.9870944301551390
    One-Electron Energy =                -907.0277776378235330
    Two-Electron Energy =                 363.7683819872196977
    DFT Exchange-Correlation Energy =       0.0000000000000000
    Empirical Dispersion Energy =           0.0000000000000000
    PCM Polarization Energy =               0.0000000000000000
    EFP Energy =                            0.0000000000000000
    Total Energy =                       -271.2723012204486963
    Molecular point group: c1
  Basis Set: CC-PVTZ
  Basis Set:

  -Total Gradient:
     Atom            X                  Y                   Z
    ------   -----------------  -----------------  -----------------
       1       -0.000001961708     0.000004677635    -0.000011856198
       2       -0.000075594668     0.000038801865     0.000242201843
       3        0.000165508197    -0.000009555162    -0.000355777556
       4        0.000016600203    -0.000004972934     0.000006868399
       5       -0.000011865852     0.000005202573     0.000007281812
       6       -0.000086815411    -0.000244987086     0.000044702656
       7       -0.000004314269     0.000198463904     0.000067591826
       8       -0.000002049724     0.000012999763     0.000002185059
       9        0.000009760275    -0.000027400853    -0.000006386827
      10        0.000002534301     0.000000889637    -0.000005799623
      11        0.000001908835     0.000000815975     0.000000514544
      12       -0.000012467688     0.000002679822     0.000005693495
      13        0.000002975995     0.000003265691     0.000003561507
      14       -0.000001565618     0.000000353306     0.000001648463
      15        0.000001508804     0.000005231560     0.000003616272
      16        0.000001631156     0.000005384093     0.000009979709
      17       -0.000013215961     0.000001090283    -0.000004985120
      18        0.000007423134     0.000007059926    -0.000011040259

  **** Optimization is complete! (in 10 steps) ****
    Final optimized geometry and variables:
    Molecular point group: c1

    Geometry (in Angstrom), charge = 0, multiplicity = 1:

    H           -2.165274546006    -1.012082058531     0.468217119916
    C           -1.904513252183    -0.569734087570    -0.488116591875
    O           -0.915046768817     0.399501279058    -0.379223306657
    H           -2.781171019266    -0.070857160173    -0.876703445375
    H           -1.637768418449    -1.365716790976    -1.176566828495
    C            0.388683658081     0.103429785611     0.102193905232
    C            1.353754920088     0.461250638365    -1.025880310455
    C            0.614207346737     1.015094939445     1.306256302719
    C            0.587361792018    -1.355974389836     0.513116656904
    H            1.202117384813     1.488870287551    -1.330354193556
    H            1.181239134404    -0.173290033450    -1.887506880709
    H            2.385371141280     0.341675578708    -0.714210063120
    H            0.454184361216     2.047713270944     1.023707846455
    H            1.622414994401     0.914772865301     1.692436490552
    H           -0.082296192258     0.772360664337     2.100324806998
    H            0.440324285545    -2.035399538993    -0.316480771292
    H            1.603067976429    -1.484786088320     0.865321520052
    H           -0.076835357239    -1.644669881743     1.317497750392

  Mulliken Charges: (a.u.)
   Center  Symbol    Alpha    Beta     Spin     Total
       1     H     0.46945  0.46945  0.00000  0.06109
       2     C     3.04060  3.04060  0.00000 -0.08120
       3     O     4.20017  4.20017  0.00000 -0.40034
       4     H     0.44258  0.44258  0.00000  0.11484
       5     H     0.46959  0.46959  0.00000  0.06082
       6     C     2.86994  2.86994  0.00000  0.26011
       7     C     3.14151  3.14151  0.00000 -0.28303
       8     C     3.14121  3.14121  0.00000 -0.28242
       9     C     3.17705  3.17705  0.00000 -0.35410
      10     H     0.44789  0.44789  0.00000  0.10423
      11     H     0.45221  0.45221  0.00000  0.09557
      12     H     0.45788  0.45788  0.00000  0.08424
      13     H     0.44787  0.44787  0.00000  0.10427
      14     H     0.45810  0.45810  0.00000  0.08380
      15     H     0.45226  0.45226  0.00000  0.09547
      16     H     0.44471  0.44471  0.00000  0.11057
      17     H     0.44217  0.44217  0.00000  0.11566
      18     H     0.44479  0.44479  0.00000  0.11042

   Total alpha = 25.00000, Total beta = 25.00000, Total charge =  0.00000

*** Psi4 exiting successfully. Buy a developer a beer!
