  ==> Input File <==

--------------------------------------------------------------------------
set {
	reference rhf
	basis 6-31G*
}

set_num_threads( 4 )
memory 2 gb

molecule MOL {
0 1

O	 -0.988096	 -1.408613	 0.050699
C	 -0.676749	 -0.249230	 -0.009274
C	 -1.746085	 0.827156	 -0.009539
N	 0.623947	 0.147590	 -0.102813
H	 -1.701500	 1.431508	 -0.908902
H	 -2.703425	 0.330732	 0.036390
H	 -1.647323	 1.487769	 0.845106
C	 1.045084	 1.325749	 0.629622
C	 1.535008	 -0.299263	 -1.133607
H	 2.043375	 1.168754	 1.023050
H	 0.364293	 1.504178	 1.443641
H	 1.063937	 2.204048	 -0.011983
H	 2.540978	 -0.322257	 -0.731695
H	 1.295661	 -1.295326	 -1.470514
H	 1.532946	 0.366973	 -1.994385

	symmetry c1
}
set optking {
	frozen_dihedral = ("
		8 4 2 3
	")
}

ee = optimize('scf')
oeprop('DIPOLE', 'QUADRUPOLE', 'MULLIKEN_CHARGES')
f=open( 'psi4out.xyz', 'w' )
f.write( "15  " )
f.write( str(ee) + "\n" )
f.write( MOL.save_string_xyz() )
f.close()
--------------------------------------------------------------------------

    Molecular point group: c1
  Charge       = 0
  Multiplicity = 1
  Basis Set: 6-31G*
  Basis Set:
  @DF-RHF Final Energy:  -286.00831770454670
    Total Energy =                       -286.0083177045466982
    Molecular point group: c1
  Basis Set: 6-31G*
  Basis Set:
  Basis Set: 6-31G*
  Basis Set:
  @DF-RHF Final Energy:  -286.01367144018081
    Total Energy =                       -286.0136714401808149
  Basis Set: 6-31G*
  Basis Set:
  Basis Set: 6-31G*
  Basis Set:
  @DF-RHF Final Energy:  -286.01721534021686
    Total Energy =                       -286.0172153402165804
  Basis Set: 6-31G*
  Basis Set:
  Basis Set: 6-31G*
  Basis Set:
  @DF-RHF Final Energy:  -286.02024490758356
    Total Energy =                       -286.0202449075833329
  Basis Set: 6-31G*
  Basis Set:
  @DF-RHF Final Energy:  -286.02217001585655
    Total Energy =                       -286.0221700158566591
  @DF-RHF Final Energy:  -286.02369732626084
    Total Energy =                       -286.0236973262610718
  @DF-RHF Final Energy:  -286.02580943247654
    Total Energy =                       -286.0258094324765352
  @DF-RHF Final Energy:  -286.02691778829808
    Total Energy =                       -286.0269177882981353
  @DF-RHF Final Energy:  -286.02764611933458
    Total Energy =                       -286.0276461193344062
  @DF-RHF Final Energy:  -286.02773429506396
    Total Energy =                       -286.0277342950638513
  @DF-RHF Final Energy:  -286.02776018872794
    Total Energy =                       -286.0277601887279957
  @DF-RHF Final Energy:  -286.02776442296914
    Total Energy =                       -286.0277644229691418
  @DF-RHF Final Energy:  -286.02776750512987
    Total Energy =                       -286.0277675051298161
  @DF-RHF Final Energy:  -286.02776998170992
    Total Energy =                       -286.0277699817102075
  @DF-RHF Final Energy:  -286.02777197413434
    Total Energy =                       -286.0277719741345663
  @DF-RHF Final Energy:  -286.02777335254672
    Total Energy =                       -286.0277733525468875
  @DF-RHF Final Energy:  -286.02777070561012
    Total Energy =                       -286.0277707056100098
  @DF-RHF Final Energy:  -286.02777203485903
    Total Energy =                       -286.0277720348590265
  @DF-RHF Final Energy:  -286.02777355073567
    Total Energy =                       -286.0277735507357306
  @DF-RHF Final Energy:  -286.02777405583709
    Total Energy =                       -286.0277740558368578
  @DF-RHF Final Energy:  -286.02777432294829
    Total Energy =                       -286.0277743229481757
  @DF-RHF Final Energy:  -286.02777432461482
    Total Energy =                       -286.0277743246148248
  @DF-RHF Final Energy:  -286.02777431069404
    Total Energy =                       -286.0277743106939283
  @DF-RHF Final Energy:  -286.02777429187375
    Total Energy =                       -286.0277742918738682
  @DF-RHF Final Energy:  -286.02777427083754
    Total Energy =                       -286.0277742708375399
  @DF-RHF Final Energy:  -286.02777424887751
    Total Energy =                       -286.0277742488777903
  @DF-RHF Final Energy:  -286.02777422115162
    Total Energy =                       -286.0277742211516170
  @DF-RHF Final Energy:  -286.02777418854339
    Total Energy =                       -286.0277741885434466
  @DF-RHF Final Energy:  -286.02777418097230
    Total Energy =                       -286.0277741809719600
  @DF-RHF Final Energy:  -286.02777047256632
    Total Energy =                       -286.0277704725664876
  @DF-RHF Final Energy:  -286.02777208971190
    Total Energy =                       -286.0277720897116751
  @DF-RHF Final Energy:  -286.02777167868345
    Total Energy =                       -286.0277716786832229
  @DF-RHF Final Energy:  -286.02777281873898
    Total Energy =                       -286.0277728187389812
  @DF-RHF Final Energy:  -286.02777330734949
    Total Energy =                       -286.0277733073493209
  @DF-RHF Final Energy:  -286.02777356179001
    Total Energy =                       -286.0277735617903545
  @DF-RHF Final Energy:  -286.02777271207145
    Total Energy =                       -286.0277727120712825
  Basis Set: 6-31G*
  Basis Set:
  @DF-RHF Final Energy:  -286.02777237784426
    Total Energy =                       -286.0277723778441441
  Basis Set: 6-31G*
  Basis Set:
  Basis Set: 6-31G*
  Basis Set:
  @DF-RHF Final Energy:  -286.02777229718788
    Total Energy =                       -286.0277722971877665
  Basis Set: 6-31G*
  Basis Set:
  Basis Set: 6-31G*
  Basis Set:
  @DF-RHF Final Energy:  -286.02777159897232
    Total Energy =                       -286.0277715989724356
  Basis Set: 6-31G*
  Basis Set:
  Charge       = 0
  Multiplicity = 1
  Basis Set: 6-31G*
  Basis Set:

    Orbital Energies (a.u.)
    -----------------------

    Doubly Occupied:

       1A    -20.524509     2A    -15.580896     3A    -11.342508
       4A    -11.265424     5A    -11.246110     6A    -11.228356
       7A     -1.391670     8A     -1.242260     9A     -1.013473
      10A     -0.969981    11A     -0.914345    12A     -0.736627
      13A     -0.680507    14A     -0.658083    15A     -0.650582
      16A     -0.593395    17A     -0.578283    18A     -0.569181
      19A     -0.560645    20A     -0.542126    21A     -0.527561
      22A     -0.500348    23A     -0.416346    24A     -0.373421

  @DF-RHF Final Energy:  -286.02777156780218

   => Energetics <=

    Nuclear Repulsion Energy =            252.7099847094681877
    One-Electron Energy =                -889.2622415286790556
    Two-Electron Energy =                 350.5244852514084073
    DFT Exchange-Correlation Energy =       0.0000000000000000
    Empirical Dispersion Energy =           0.0000000000000000
    PCM Polarization Energy =               0.0000000000000000
    EFP Energy =                            0.0000000000000000
    Total Energy =                       -286.0277715678025174
    Molecular point group: c1
  Basis Set: 6-31G*
  Basis Set:

  -Total Gradient:
     Atom            X                  Y                   Z
    ------   -----------------  -----------------  -----------------
       1       -0.000400047777     0.000305163195     0.000146545708
       2        0.003564586003    -0.002601842356     0.006187939596
       3       -0.001217571005     0.001092786801    -0.003600581927
       4       -0.003689070332     0.003682661420    -0.005607273663
       5        0.000128296513    -0.000447380682     0.000309833345
       6       -0.000380937087    -0.000264264641    -0.000067223000
       7        0.000072924795     0.000041007354    -0.000141775482
       8        0.002619027269    -0.001564239033     0.002810571942
       9       -0.000045787418    -0.000128945714    -0.000373608090
      10       -0.000089322520     0.000121781230    -0.000137445109
      11       -0.000085441415    -0.000019115296     0.000124484964
      12       -0.000246360562    -0.000285781397     0.000105506778
      13       -0.000177337250     0.000008905182     0.000008715508
      14        0.000198051356     0.000161382466     0.000190820300
      15       -0.000251010568    -0.000102118530     0.000043489129

    Molecular point group: c1

    Geometry (in Angstrom), charge = 0, multiplicity = 1:

    O           -0.793410453940    -1.482412492098    -0.140867590313
    C           -0.635854138513    -0.311271978736     0.058936678748
    C           -1.778647299357     0.543657863142     0.573053437546
    N            0.533260082540     0.334431819937    -0.268992879759
    H           -1.861845892570     1.469283156437     0.017374779526
    H           -2.687598367355    -0.030308313888     0.468547105922
    H           -1.646700871206     0.788044457393     1.622605952009
    C            1.026034927995     1.420497830147     0.561226344506
    C            1.583902670508    -0.505507006076    -0.818964856080
    H            1.519607633487     1.053605071403     1.459800122293
    H            0.225094191737     2.082464345249     0.854539415601
    H            1.742753105403     2.001351385569    -0.004898629667
    H            2.079417420161    -1.096629445406    -0.052162819087
    H            1.166896805635    -1.178778950308    -1.549491320274
    H            2.318048388328     0.129599552818    -1.299312173898

  Mulliken Charges: (a.u.)
   Center  Symbol    Alpha    Beta     Spin     Total
       1     O     4.29418  4.29418  0.00000 -0.58836
       2     C     2.63364  2.63364  0.00000  0.73272
       3     C     3.29518  3.29518  0.00000 -0.59036
       4     N     3.81499  3.81499  0.00000 -0.62998
       5     H     0.40539  0.40539  0.00000  0.18922
       6     H     0.39167  0.39167  0.00000  0.21666
       7     H     0.40672  0.40672  0.00000  0.18657
       8     C     3.14941  3.14941  0.00000 -0.29883
       9     C     3.14319  3.14319  0.00000 -0.28638
      10     H     0.41739  0.41739  0.00000  0.16521
      11     H     0.40739  0.40739  0.00000  0.18522
      12     H     0.40899  0.40899  0.00000  0.18202
      13     H     0.41898  0.41898  0.00000  0.16204
      14     H     0.39452  0.39452  0.00000  0.21096
      15     H     0.41835  0.41835  0.00000  0.16329

   Total alpha = 24.00000, Total beta = 24.00000, Total charge = -0.00000
