  ==> Input File <==

--------------------------------------------------------------------------
set {
	reference rhf
	basis 6-31G*
}

set_num_threads( 4 )
memory 2 gb

molecule MOL {
0 1

H	 -4.257019	 0.291633	 0.393517
O	 -3.529335	 -0.173721	 0.006444
C	 -2.320395	 0.371948	 0.468289
C	 -1.177863	 -0.397191	 -0.171080
H	 -2.251837	 1.427130	 0.207145
H	 -2.257222	 0.299834	 1.553254
C	 0.198102	 0.111031	 0.262842
H	 -1.279883	 -0.326303	 -1.250568
H	 -1.287529	 -1.447496	 0.084476
C	 1.331804	 -0.827780	 -0.158768
H	 0.361943	 1.100838	 -0.156218
H	 0.217265	 0.229072	 1.345532
C	 2.723619	 -0.410569	 0.329459
H	 1.342964	 -0.912588	 -1.244120
H	 1.116806	 -1.824343	 0.220779
C	 3.243875	 0.895854	 -0.272975
H	 3.424222	 -1.207124	 0.091250
H	 2.714788	 -0.329854	 1.414619
H	 3.251977	 0.848779	 -1.358681
H	 2.637085	 1.747371	 0.016682
H	 4.259473	 1.094070	 0.055697

	symmetry c1
}
set optking {
	frozen_dihedral = ("
		8 4 7 10
	")
}

ee = optimize('scf')
oeprop('DIPOLE', 'QUADRUPOLE', 'MULLIKEN_CHARGES')
f=open( 'psi4out.xyz', 'w' )
f.write( "21  " )
f.write( str(ee) + "\n" )
f.write( MOL.save_string_xyz() )
f.close()
--------------------------------------------------------------------------

    Molecular point group: c1
  Charge       = 0
  Multiplicity = 1
  Basis Set: 6-31G*
  Basis Set:
  @DF-RHF Final Energy:  -310.21238935185261
    Total Energy =                       -310.2123893518528348
    Molecular point group: c1
  Basis Set: 6-31G*
  Basis Set:
  Basis Set: 6-31G*
  Basis Set:
  @DF-RHF Final Energy:  -310.21241800761106
    Total Energy =                       -310.2124180076109496
  Basis Set: 6-31G*
  Basis Set:
  Basis Set: 6-31G*
  Basis Set:
  @DF-RHF Final Energy:  -310.21240190663957
    Total Energy =                       -310.2124019066395704
  Basis Set: 6-31G*
  Basis Set:
  Basis Set: 6-31G*
  Basis Set:
  @DF-RHF Final Energy:  -310.21245908115765
    Total Energy =                       -310.2124590811575899
  Basis Set: 6-31G*
  Basis Set:
  Charge       = 0
  Multiplicity = 1
  Basis Set: 6-31G*
  Basis Set:

    Orbital Energies (a.u.)
    -----------------------

    Doubly Occupied:

       1A    -20.551793     2A    -11.267005     3A    -11.215698
       4A    -11.215154     5A    -11.213621     6A    -11.210652
       7A    -11.208149     8A     -1.358627     9A     -1.086127
      10A     -1.033187    11A     -0.954399    12A     -0.875480
      13A     -0.806994    14A     -0.779258    15A     -0.692468
      16A     -0.661755    17A     -0.620833    18A     -0.608343
      19A     -0.587815    20A     -0.565946    21A     -0.539910
      22A     -0.518962    23A     -0.509122    24A     -0.489528
      25A     -0.477991    26A     -0.459792    27A     -0.456290
      28A     -0.443159    29A     -0.433915

  @DF-RHF Final Energy:  -310.21245834495272

   => Energetics <=

    Nuclear Repulsion Energy =            312.3615505659049063
    One-Electron Energy =               -1039.4640710156436398
    Two-Electron Energy =                 416.8900621047860113
    DFT Exchange-Correlation Energy =       0.0000000000000000
    Empirical Dispersion Energy =           0.0000000000000000
    PCM Polarization Energy =               0.0000000000000000
    EFP Energy =                            0.0000000000000000
    Total Energy =                       -310.2124583449526654
    Molecular point group: c1
  Basis Set: 6-31G*
  Basis Set:

  -Total Gradient:
     Atom            X                  Y                   Z
    ------   -----------------  -----------------  -----------------
       1        0.000001323165    -0.000005807175     0.000004959273
       2       -0.000001636073    -0.000027490349     0.000014335368
       3        0.000001655468     0.000025939736     0.000088903182
       4        0.000849520021    -0.002161465336     0.000028810887
       5        0.000007377223    -0.000024527083    -0.000007868949
       6       -0.000033658557     0.000031049589     0.000039246275
       7       -0.000059678499     0.001153300192    -0.001301783026
       8       -0.000674370898     0.001639571848     0.000172823806
       9        0.000107614448     0.000037594009    -0.000040447166
      10       -0.000105825379    -0.000667936151     0.001004752632
      11       -0.000037014894    -0.000075744361    -0.000078575141
      12       -0.000065819855     0.000071106087     0.000052012775
      13       -0.000019468313     0.000046011130     0.000020414384
      14        0.000004331706    -0.000013848093    -0.000010865157
      15        0.000019027096     0.000007734246     0.000004760252
      16        0.000012743037    -0.000036800538    -0.000013078257
      17        0.000012895071     0.000005929419     0.000016433795
      18       -0.000029346648     0.000018270597     0.000000155386
      19       -0.000033665758     0.000007450165    -0.000000488117
      20        0.000029447779    -0.000007262937     0.000023680949
      21        0.000014549857    -0.000023074995    -0.000018183150

  **** Optimization is complete! (in 5 steps) ****
    Final optimized geometry and variables:
    Molecular point group: c1

    Geometry (in Angstrom), charge = 0, multiplicity = 1:

    H           -4.251926346613     0.373304971772     0.280567835611
    O           -3.523683210662    -0.091528523866    -0.106100105128
    C           -2.316555147396     0.411716130559     0.405853233688
    C           -1.172899720876    -0.360053463391    -0.230038750048
    H           -2.218918187460     1.473633481826     0.183545301274
    H           -2.284223257888     0.301145084439     1.488866135145
    C            0.200225310511     0.137551527325     0.227324676174
    H           -1.265729795821    -0.262984632846    -1.308124889115
    H           -1.295257050229    -1.412612342726     0.008250687922
    C            1.339379512619    -0.789218496512    -0.206276611355
    H            0.362254233790     1.140492006277    -0.158301531454
    H            0.213610807826     0.221105361911     1.313761633478
    C            2.732056904439    -0.355489569299     0.264818064052
    H            1.339899319480    -0.878670000811    -1.291554615388
    H            1.138235458874    -1.785994204161     0.179597185285
    C            3.239957759925     0.943980427225    -0.362623244580
    H            3.435960343518    -1.151315131544     0.034041214411
    H            2.730862847727    -0.257529784600     1.348654883642
    H            3.235387960068     0.880905743027    -1.447499209309
    H            2.633423779661     1.797482918765    -0.078411468549
    H            4.258604455488     1.150749229404    -0.048966609436

  Mulliken Charges: (a.u.)
   Center  Symbol    Alpha    Beta     Spin     Total
       1     H     0.28119  0.28119  0.00000  0.43763
       2     O     4.37183  4.37183  0.00000 -0.74366
       3     C     2.99013  2.99013  0.00000  0.01974
       4     C     3.15889  3.15889  0.00000 -0.31778
       5     H     0.43310  0.43310  0.00000  0.13381
       6     H     0.43276  0.43276  0.00000  0.13448
       7     C     3.16210  3.16210  0.00000 -0.32421
       8     H     0.41410  0.41410  0.00000  0.17181
       9     H     0.41499  0.41499  0.00000  0.17002
      10     C     3.15186  3.15186  0.00000 -0.30372
      11     H     0.42023  0.42023  0.00000  0.15955
      12     H     0.42507  0.42507  0.00000  0.14986
      13     C     3.15265  3.15265  0.00000 -0.30530
      14     H     0.42295  0.42295  0.00000  0.15409
      15     H     0.42101  0.42101  0.00000  0.15797
      16     C     3.24104  3.24104  0.00000 -0.48208
      17     H     0.42061  0.42061  0.00000  0.15878
      18     H     0.42367  0.42367  0.00000  0.15265
      19     H     0.42185  0.42185  0.00000  0.15630
      20     H     0.42071  0.42071  0.00000  0.15858
      21     H     0.41926  0.41926  0.00000  0.16147

   Total alpha = 29.00000, Total beta = 29.00000, Total charge =  0.00000
