  ==> Input File <==

--------------------------------------------------------------------------
set {
	reference rhf
	basis 6-31G*
}

set_num_threads( 1 )
memory 2 gb

molecule MOL {
0 1

H	 -3.345493	 -0.839388	 -0.658064
O	 -3.517110	 -0.026191	 -0.205115
C	 -2.306886	 0.532354	 0.237577
C	 -1.177863	 -0.397191	 -0.171080
H	 -2.156308	 1.517575	 -0.201710
H	 -2.315015	 0.655684	 1.319734
C	 0.198102	 0.111031	 0.262842
H	 -1.208843	 -0.518759	 -1.250427
H	 -1.368741	 -1.376554	 0.258909
C	 1.331804	 -0.827780	 -0.158768
H	 0.361943	 1.100838	 -0.156218
H	 0.217265	 0.229072	 1.345532
C	 2.723619	 -0.410569	 0.329459
H	 1.342964	 -0.912588	 -1.244120
H	 1.116806	 -1.824343	 0.220779
C	 3.243875	 0.895854	 -0.272975
H	 3.424222	 -1.207124	 0.091250
H	 2.714788	 -0.329854	 1.414619
H	 3.251977	 0.848779	 -1.358681
H	 2.637085	 1.747371	 0.016682
H	 4.259473	 1.094070	 0.055697

	symmetry c1
}
set optking {
	frozen_dihedral = ("
		2 3 4 8,
		8 4 7 10,
		4 7 10 14,
		16 13 10 14
	")
}

ee = energy('scf')
oeprop('DIPOLE', 'QUADRUPOLE', 'MULLIKEN_CHARGES')
f=open( 'psi4out.xyz', 'w' )
f.write( "21  " )
f.write( str(ee) + "\n" )
f.write( MOL.save_string_xyz() )
f.close()
--------------------------------------------------------------------------

    Molecular point group: c1

    Geometry (in Angstrom), charge = 0, multiplicity = 1:

       Center              X                  Y                   Z               Mass
    ------------   -----------------  -----------------  -----------------  -----------------
           H         -3.354287473295    -0.825791044115    -0.651175980879     1.007825032070
           O         -3.525904473295    -0.012594044115    -0.198226980879    15.994914619560
           C         -2.315680473295     0.545950955885     0.244465019121    12.000000000000
           C         -1.186657473295    -0.383594044115    -0.164191980879    12.000000000000
           H         -2.165102473295     1.531171955885    -0.194821980879     1.007825032070
           H         -2.323809473295     0.669280955885     1.326622019121     1.007825032070
           C          0.189307526705     0.124627955885     0.269730019121    12.000000000000
           H         -1.217637473295    -0.505162044115    -1.243538980879     1.007825032070
           H         -1.377535473295    -1.362957044115     0.265797019121     1.007825032070
           C          1.323009526705    -0.814183044115    -0.151879980879    12.000000000000
           H          0.353148526705     1.114434955885    -0.149329980879     1.007825032070
           H          0.208470526705     0.242668955885     1.352420019121     1.007825032070
           C          2.714824526705    -0.396972044115     0.336347019121    12.000000000000
           H          1.334169526705    -0.898991044115    -1.237231980879     1.007825032070
           H          1.108011526705    -1.810746044115     0.227667019121     1.007825032070
           C          3.235080526705     0.909450955885    -0.266086980879    12.000000000000
           H          3.415427526705    -1.193527044115     0.098138019121     1.007825032070
           H          2.705993526705    -0.316257044115     1.421507019121     1.007825032070
           H          3.243182526705     0.862375955885    -1.351792980879     1.007825032070
           H          2.628290526705     1.760967955885     0.023570019121     1.007825032070
           H          4.250678526705     1.107666955885     0.062585019121     1.007825032070

  Charge       = 0
  Multiplicity = 1
  Basis Set: 6-31G*
  Basis Set:

    Orbital Energies (a.u.)
    -----------------------

    Doubly Occupied:

       1A    -20.547917     2A    -11.267038     3A    -11.223510
       4A    -11.222610     5A    -11.219798     6A    -11.219174
       7A    -11.211634     8A     -1.357952     9A     -1.092512
      10A     -1.037851    11A     -0.956963    12A     -0.881033
      13A     -0.828630    14A     -0.784212    15A     -0.668476
      16A     -0.661016    17A     -0.626922    18A     -0.621976
      19A     -0.594150    20A     -0.576072    21A     -0.547268
      22A     -0.532077    23A     -0.507869    24A     -0.498491
      25A     -0.488134    26A     -0.467052    27A     -0.461738
      28A     -0.437952    29A     -0.433568

  @DF-RHF Final Energy:  -310.20853643382168

   => Energetics <=

    Nuclear Repulsion Energy =            313.4182887832458846
    One-Electron Energy =               -1041.3064774445031162
    Two-Electron Energy =                 417.6796522274370318
    DFT Exchange-Correlation Energy =       0.0000000000000000
    Empirical Dispersion Energy =           0.0000000000000000
    PCM Polarization Energy =               0.0000000000000000
    EFP Energy =                            0.0000000000000000
    Total Energy =                       -310.2085364338201998

  Mulliken Charges: (a.u.)
   Center  Symbol    Alpha    Beta     Spin     Total
       1     H     0.27778  0.27778  0.00000  0.44444
       2     O     4.37891  4.37891  0.00000 -0.75782
       3     C     2.96664  2.96664  0.00000  0.06672
       4     C     3.19210  3.19210  0.00000 -0.38420
       5     H     0.42602  0.42602  0.00000  0.14796
       6     H     0.42574  0.42574  0.00000  0.14851
       7     C     3.15987  3.15987  0.00000 -0.31973
       8     H     0.41944  0.41944  0.00000  0.16112
       9     H     0.41929  0.41929  0.00000  0.16142
      10     C     3.15243  3.15243  0.00000 -0.30486
      11     H     0.41840  0.41840  0.00000  0.16320
      12     H     0.42089  0.42089  0.00000  0.15822
      13     C     3.15285  3.15285  0.00000 -0.30570
      14     H     0.42341  0.42341  0.00000  0.15317
      15     H     0.42166  0.42166  0.00000  0.15668
      16     C     3.24159  3.24159  0.00000 -0.48317
      17     H     0.42009  0.42009  0.00000  0.15982
      18     H     0.42270  0.42270  0.00000  0.15460
      19     H     0.42186  0.42186  0.00000  0.15629
      20     H     0.42008  0.42008  0.00000  0.15985
      21     H     0.41827  0.41827  0.00000  0.16347

   Total alpha = 29.00000, Total beta = 29.00000, Total charge =  0.00000
