  ==> Input File <==

--------------------------------------------------------------------------
set {
	reference rhf
	basis cc-pvtz
}

set_num_threads( 4 )
memory 2 gb

molecule MOL {
0 1

H	 1.128311	 0.207724	 1.465118
C	 1.134565	 0.093781	 0.372499
C	 0.062554	 0.862911	 -0.350953
O	 1.948932	 -0.587720	 -0.146651
C	 0.345629	 1.000522	 -1.850134
H	 -0.047395	 1.829752	 0.122992
H	 -0.865266	 0.312760	 -0.211104
C	 1.557815	 1.873673	 -2.161361
H	 -0.533000	 1.418262	 -2.327709
H	 0.484228	 0.013386	 -2.282337
H	 1.424235	 2.876464	 -1.771331
H	 1.713199	 1.949548	 -3.230818
H	 2.465066	 1.471547	 -1.724067

	symmetry c1
}
set optking {
	frozen_dihedral = ("
		6 3 2 4
	")
}

ee = optimize('scf')
oeprop('DIPOLE', 'QUADRUPOLE', 'MULLIKEN_CHARGES')
f=open( 'psi4out.xyz', 'w' )
f.write( "13  " )
f.write( str(ee) + "\n" )
f.write( MOL.save_string_xyz() )
f.close()
--------------------------------------------------------------------------

    Molecular point group: c1
  Charge       = 0
  Multiplicity = 1
  Basis Set: CC-PVTZ
  Basis Set:
  @DF-RHF Final Energy:  -231.07062254242393
    Total Energy =                       -231.0706225424237914
    Molecular point group: c1
  Basis Set: CC-PVTZ
  Basis Set:
  Basis Set: CC-PVTZ
  Basis Set:
  @DF-RHF Final Energy:  -231.07032373866596
    Total Energy =                       -231.0703237386662749
  Basis Set: CC-PVTZ
  Basis Set:
  Basis Set: CC-PVTZ
  Basis Set:
  @DF-RHF Final Energy:  -231.07102871243472
    Total Energy =                       -231.0710287124348383
  Basis Set: CC-PVTZ
  Basis Set:
  Basis Set: CC-PVTZ
  Basis Set:
  @DF-RHF Final Energy:  -231.07149844801054
    Total Energy =                       -231.0714984480106580
  Basis Set: CC-PVTZ
  Basis Set:
  Basis Set: CC-PVTZ
  Basis Set:
  @DF-RHF Final Energy:  -231.07150852849745
    Total Energy =                       -231.0715085284973895
  Basis Set: CC-PVTZ
  Basis Set:
  Basis Set: CC-PVTZ
  Basis Set:
  @DF-RHF Final Energy:  -231.07151148469629
    Total Energy =                       -231.0715114846962024
  Basis Set: CC-PVTZ
  Basis Set:
  Charge       = 0
  Multiplicity = 1
  Basis Set: CC-PVTZ
  Basis Set:

    Orbital Energies (a.u.)
    -----------------------

    Doubly Occupied:

       1A    -20.553320     2A    -11.323783     3A    -11.236995
       4A    -11.224018     5A    -11.209583     6A     -1.409094
       7A     -1.079564     8A     -0.974009     9A     -0.851809
      10A     -0.765734    11A     -0.688950    12A     -0.640816
      13A     -0.628263    14A     -0.586148    15A     -0.565391
      16A     -0.525167    17A     -0.497695    18A     -0.485010
      19A     -0.482922    20A     -0.414192

  @DF-RHF Final Energy:  -231.07151165797481

   => Energetics <=

    Nuclear Repulsion Energy =            176.4218666662960970
    One-Electron Energy =                -662.7018280342772414
    Two-Electron Energy =                 255.2084497100063629
    DFT Exchange-Correlation Energy =       0.0000000000000000
    Empirical Dispersion Energy =           0.0000000000000000
    PCM Polarization Energy =               0.0000000000000000
    EFP Energy =                            0.0000000000000000
    Total Energy =                       -231.0715116579748099
    Molecular point group: c1
  Basis Set: CC-PVTZ
  Basis Set:

  -Total Gradient:
     Atom            X                  Y                   Z
    ------   -----------------  -----------------  -----------------
       1       -0.000003077499    -0.000004762639    -0.000001804001
       2        0.000827409657     0.001132315194     0.000036831657
       3        0.000603161150     0.000079220090    -0.000734915223
       4       -0.000673473846    -0.000836108622     0.000055151754
       5       -0.000021374178    -0.000008969867     0.000032197497
       6       -0.000738051571    -0.000357044011     0.000591472262
       7       -0.000008262746     0.000002764885     0.000008158276
       8        0.000011650905     0.000008025367    -0.000000735113
       9       -0.000002813351    -0.000005611981     0.000007839870
      10        0.000002243532    -0.000003152916    -0.000005202956
      11       -0.000000787999    -0.000002939515     0.000001207271
      12       -0.000001840246    -0.000003922204     0.000008344468
      13        0.000005216192     0.000000186225     0.000001454236

  **** Optimization is complete! (in 7 steps) ****
    Final optimized geometry and variables:
    Molecular point group: c1

    Geometry (in Angstrom), charge = 0, multiplicity = 1:

    H            0.009305548284    -0.497023854605     2.320569797289
    C            0.088968639995    -0.575432464856     1.229274266720
    C           -0.928194274693     0.230087385571     0.463993199944
    O            0.902817250364    -1.283296678236     0.745001961699
    C           -0.667143215217     0.362167917171    -1.032293912628
    H           -1.019555446873     1.200886179282     0.944769311457
    H           -1.880356200297    -0.267576177415     0.644539972002
    C            0.514250603651     1.268129819674    -1.367510952080
    H           -1.563893464451     0.753925849468    -1.500435815112
    H           -0.500005538044    -0.623303806532    -1.448791171124
    H            0.357836942064     2.271453819773    -0.983723848504
    H            0.645911551348     1.343727585721    -2.440317265871
    H            1.435373678590     0.885048793140    -0.947712989772

  Mulliken Charges: (a.u.)
   Center  Symbol    Alpha    Beta     Spin     Total
       1     H     0.45211  0.45211  0.00000  0.09577
       2     C     2.91738  2.91738  0.00000  0.16524
       3     C     3.09748  3.09748  0.00000 -0.19496
       4     O     4.16741  4.16741  0.00000 -0.33481
       5     C     3.08480  3.08480  0.00000 -0.16960
       6     H     0.44746  0.44746  0.00000  0.10508
       7     H     0.43935  0.43935  0.00000  0.12130
       8     C     3.15152  3.15152  0.00000 -0.30303
       9     H     0.44723  0.44723  0.00000  0.10554
      10     H     0.44540  0.44540  0.00000  0.10920
      11     H     0.45812  0.45812  0.00000  0.08377
      12     H     0.44730  0.44730  0.00000  0.10540
      13     H     0.44444  0.44444  0.00000  0.11112

   Total alpha = 20.00000, Total beta = 20.00000, Total charge = -0.00000
