  ==> Input File <==

--------------------------------------------------------------------------
set {
	reference rhf
	basis 6-31G*
}

set_num_threads( 4 )
memory 2 gb

molecule MOL {
0 1

H	 0.685167	 0.284690	 -4.192474
O	 1.585581	 0.006900	 -4.277084
C	 2.280794	 0.285435	 -3.088324
C	 1.905218	 -0.644901	 -1.940220
H	 3.330073	 0.167059	 -3.326388
H	 2.131404	 1.323574	 -2.793824
C	 0.447019	 -0.522257	 -1.491350
H	 2.108418	 -1.668217	 -2.245017
H	 2.561914	 -0.427964	 -1.099354
C	 0.115918	 -1.429151	 -0.302766
H	 -0.205063	 -0.765101	 -2.325725
H	 0.237434	 0.512597	 -1.220255
C	 -1.309753	 -1.282496	 0.241564
H	 0.288510	 -2.466227	 -0.584780
H	 0.815535	 -1.213953	 0.502173
C	 -2.037799	 -0.007733	 -0.193645
H	 -1.890610	 -2.142323	 -0.085726
H	 -1.285946	 -1.330893	 1.329189
C	 -3.489788	 0.042957	 0.286558
H	 -2.017067	 0.064384	 -1.280144
H	 -1.513726	 0.868678	 0.179924
C	 -4.216917	 1.317354	 -0.141063
H	 -4.025645	 -0.823308	 -0.095450
H	 -3.513059	 -0.038752	 1.371301
H	 -4.239342	 1.411634	 -1.223113
H	 -5.243387	 1.322503	 0.212445
H	 -3.726170	 2.201406	 0.256408

	symmetry c1
}
set optking {
	frozen_dihedral = ("
		14 10 13 16
	")
}

ee = optimize('scf')
oeprop('DIPOLE', 'QUADRUPOLE', 'MULLIKEN_CHARGES')
f=open( 'psi4out.xyz', 'w' )
f.write( "27  " )
f.write( str(ee) + "\n" )
f.write( MOL.save_string_xyz() )
f.close()
--------------------------------------------------------------------------

    Molecular point group: c1
  Charge       = 0
  Multiplicity = 1
  Basis Set: 6-31G*
  Basis Set:
  @DF-RHF Final Energy:  -388.27308605793104
    Total Energy =                       -388.2730860579310956
    Molecular point group: c1
  Basis Set: 6-31G*
  Basis Set:
  Basis Set: 6-31G*
  Basis Set:
  @DF-RHF Final Energy:  -388.27359691530341
    Total Energy =                       -388.2735969153031874
  Basis Set: 6-31G*
  Basis Set:
  Basis Set: 6-31G*
  Basis Set:
  @DF-RHF Final Energy:  -388.27502296037022
    Total Energy =                       -388.2750229603700518
  Basis Set: 6-31G*
  Basis Set:
  Basis Set: 6-31G*
  Basis Set:
  @DF-RHF Final Energy:  -388.27510935309664
    Total Energy =                       -388.2751093530958997
  Basis Set: 6-31G*
  Basis Set:
  Basis Set: 6-31G*
  Basis Set:
  @DF-RHF Final Energy:  -388.27510565990826
    Total Energy =                       -388.2751056599084905
  Basis Set: 6-31G*
  Basis Set:
  Basis Set: 6-31G*
  Basis Set:
  @DF-RHF Final Energy:  -388.27511757257997
    Total Energy =                       -388.2751175725802568
  Basis Set: 6-31G*
  Basis Set:
  Basis Set: 6-31G*
  Basis Set:
  @DF-RHF Final Energy:  -388.27511928369893
    Total Energy =                       -388.2751192836994960
  Basis Set: 6-31G*
  Basis Set:
  Charge       = 0
  Multiplicity = 1
  Basis Set: 6-31G*
  Basis Set:

    Orbital Energies (a.u.)
    -----------------------

    Doubly Occupied:

       1A    -20.552115     2A    -11.266883     3A    -11.219650
       4A    -11.217803     5A    -11.216522     6A    -11.216106
       7A    -11.215163     8A    -11.214993     9A    -11.210122
      10A     -1.358883    11A     -1.093685    12A     -1.061591
      13A     -1.009506    14A     -0.948388    15A     -0.890015
      16A     -0.820376    17A     -0.807056    18A     -0.769458
      19A     -0.693961    20A     -0.657100    21A     -0.633940
      22A     -0.612690    23A     -0.605066    24A     -0.584954
      25A     -0.574852    26A     -0.552758    27A     -0.543147
      28A     -0.528806    29A     -0.505386    30A     -0.497208
      31A     -0.489031    32A     -0.475601    33A     -0.467010
      34A     -0.454736    35A     -0.448937    36A     -0.442598
      37A     -0.423180

  @DF-RHF Final Energy:  -388.27511924330173

   => Energetics <=

    Nuclear Repulsion Energy =            461.5027217505156045
    One-Electron Energy =               -1440.9971278879513648
    Two-Electron Energy =                 591.2192868941341430
    DFT Exchange-Correlation Energy =       0.0000000000000000
    Empirical Dispersion Energy =           0.0000000000000000
    PCM Polarization Energy =               0.0000000000000000
    EFP Energy =                            0.0000000000000000
    Total Energy =                       -388.2751192433016740
    Molecular point group: c1
  Basis Set: 6-31G*
  Basis Set:

  -Total Gradient:
     Atom            X                  Y                   Z
    ------   -----------------  -----------------  -----------------
       1        0.000010674429     0.000002512330    -0.000011396101
       2        0.000006143144     0.000005755591    -0.000003693318
       3       -0.000006080009     0.000017121984     0.000008038389
       4        0.000001377932    -0.000014446457     0.000023886930
       5       -0.000000797036     0.000002442041     0.000000685248
       6       -0.000002665611     0.000003531048    -0.000008264404
       7        0.000030883204     0.000009518118    -0.000003886254
       8       -0.000002857030    -0.000000031228    -0.000006828813
       9        0.000003842700    -0.000011550229    -0.000000578311
      10        0.001362663485    -0.002220487581     0.004519725744
      11       -0.000022424997    -0.000026183155     0.000012959171
      12        0.000011440592    -0.000022864383    -0.000008748633
      13        0.001494367318     0.002956648391     0.003761501243
      14       -0.001599031449     0.001189792380    -0.004955557340
      15        0.000015816731    -0.000018810387     0.000002317729
      16       -0.001297330555    -0.001853991918    -0.003365586405
      17       -0.000008668176    -0.000003738128     0.000004378652
      18       -0.000002656146     0.000000370011    -0.000001602301
      19        0.000011787075    -0.000000197353     0.000027597537
      20       -0.000014395080     0.000002438845     0.000008576226
      21        0.000019981674    -0.000011831655     0.000004144428
      22       -0.000003788498    -0.000010077879    -0.000019154458
      23       -0.000003318504    -0.000000387541     0.000010625242
      24       -0.000002175805     0.000005155561     0.000005548549
      25        0.000002958742     0.000008750730    -0.000002780792
      26       -0.000003024137    -0.000003577128    -0.000006606928
      27       -0.000002723997    -0.000005862007     0.000004698979

  **** Optimization is complete! (in 8 steps) ****
    Final optimized geometry and variables:
    Molecular point group: c1

    Geometry (in Angstrom), charge = 0, multiplicity = 1:

    H            1.313658493759     0.532027455369    -2.950682281990
    O            2.193169048984     0.192720230950    -3.031122188239
    C            2.901659546456     0.428666287864    -1.841032437790
    C            2.455103819550    -0.464348947005    -0.688687411718
    H            3.940574331726     0.233217039400    -2.073694489505
    H            2.826465086249     1.476933327443    -1.554233984718
    C            1.006822611431    -0.233943343173    -0.249217487760
    H            2.587884613995    -1.501668310513    -0.984744801424
    H            3.121108509749    -0.287689302490     0.154437351552
    C            0.622863740341    -1.110235687742     0.950353488994
    H            0.341089509726    -0.453413514538    -1.080790910358
    H            0.871090313945     0.817618693920    -0.006838568745
    C           -0.841896245121    -1.002128395988     1.445774231810
    H            0.804895101017    -2.137764232659     0.647873107203
    H            1.305603004935    -0.892320221123     1.766917818946
    C           -1.623404992514     0.255818562292     1.051915070756
    H           -1.397805326603    -1.858328756449     1.070049112639
    H           -0.853282100031    -1.099216307769     2.528048253020
    C           -3.043575778115     0.259073069580     1.622254373383
    H           -1.678681710673     0.335402386741    -0.030242910112
    H           -1.102380269650     1.146279050240     1.399497407016
    C           -3.843850234551     1.498903784248     1.224487493880
    H           -3.568943521401    -0.632162583549     1.285431170275
    H           -2.996771067723     0.193027547027     2.707093090129
    H           -3.938706602615     1.575144936098     0.144857752943
    H           -4.845377297729     1.471747653134     1.642571293481
    H           -3.362744221795     2.406586077943     1.577968612398

  Mulliken Charges: (a.u.)
   Center  Symbol    Alpha    Beta     Spin     Total
       1     H     0.27992  0.27992  0.00000  0.44016
       2     O     4.37103  4.37103  0.00000 -0.74206
       3     C     2.99718  2.99718  0.00000  0.00563
       4     C     3.16090  3.16090  0.00000 -0.32180
       5     H     0.41447  0.41447  0.00000  0.17105
       6     H     0.43207  0.43207  0.00000  0.13585
       7     C     3.16550  3.16550  0.00000 -0.33101
       8     H     0.41529  0.41529  0.00000  0.16943
       9     H     0.42442  0.42442  0.00000  0.15115
      10     C     3.15311  3.15311  0.00000 -0.30621
      11     H     0.42469  0.42469  0.00000  0.15062
      12     H     0.42256  0.42256  0.00000  0.15487
      13     C     3.15549  3.15549  0.00000 -0.31098
      14     H     0.41919  0.41919  0.00000  0.16163
      15     H     0.42123  0.42123  0.00000  0.15754
      16     C     3.15351  3.15351  0.00000 -0.30702
      17     H     0.42205  0.42205  0.00000  0.15590
      18     H     0.42027  0.42027  0.00000  0.15947
      19     C     3.15136  3.15136  0.00000 -0.30271
      20     H     0.42350  0.42350  0.00000  0.15300
      21     H     0.42427  0.42427  0.00000  0.15146
      22     C     3.23912  3.23912  0.00000 -0.47824
      23     H     0.42283  0.42283  0.00000  0.15434
      24     H     0.42276  0.42276  0.00000  0.15447
      25     H     0.42233  0.42233  0.00000  0.15534
      26     H     0.41892  0.41892  0.00000  0.16216
      27     H     0.42203  0.42203  0.00000  0.15594

   Total alpha = 37.00000, Total beta = 37.00000, Total charge =  0.00000
