                              Psi4 1.0.54 Driver

  ==> Input File <==

--------------------------------------------------------------------------
set {
	reference rhf
	basis cc-pvtz
}

set_num_threads( 4 )
memory 2 gb

molecule MOL {
0 1

H	 -1.835082	 1.385983	 0.000069
C	 -1.300516	 0.441153	 -0.000028
O	 -0.006604	 0.654344	 -0.000106
O	 -1.828920	 -0.612308	 0.000113
C	 0.778803	 -0.038057	 -0.966304
C	 2.219427	 0.368679	 -0.766632
H	 0.424487	 0.219917	 -1.954164
H	 0.641823	 -1.101442	 -0.830615
H	 2.340952	 1.435905	 -0.901656
H	 2.845509	 -0.142096	 -1.488425
H	 2.559377	 0.107927	 0.227557

	symmetry c1
}
set optking {
	frozen_dihedral = ("
		5 3 2 4
	")
}

ee,wfn = optimize('scf', return_wfn=True)
oeprop( wfn, 'DIPOLE', 'QUADRUPOLE', 'MULLIKEN_CHARGES')
f=open( 'psi4out.xyz', 'w' )
f.write( "11  " )
f.write( str(ee) + "\n" )
f.write( MOL.save_string_xyz() )
f.close()
--------------------------------------------------------------------------

    Molecular point group: c1
  Charge       = 0
  Multiplicity = 1
  Basis Set: CC-PVTZ
  Basis Set:
  @DF-RHF Final Energy:  -266.91996776069698
    Total Energy =                       -266.9199677606970909
    Molecular point group: c1
  Basis Set: CC-PVTZ
  Basis Set:
  Basis Set: CC-PVTZ
  Basis Set:
  @DF-RHF Final Energy:  -266.91002343407638
    Total Energy =                       -266.9100234340762654
  Basis Set: CC-PVTZ
  Basis Set:
  Basis Set: CC-PVTZ
  Basis Set:
  @DF-RHF Final Energy:  -266.91987569724517
    Total Energy =                       -266.9198756972450610
  Basis Set: CC-PVTZ
  Basis Set:
  Basis Set: CC-PVTZ
  Basis Set:
  @DF-RHF Final Energy:  -266.92063039662020
    Total Energy =                       -266.9206303966201972
  Basis Set: CC-PVTZ
  Basis Set:
  Basis Set: CC-PVTZ
  Basis Set:
  @DF-RHF Final Energy:  -266.92079181309691
    Total Energy =                       -266.9207918130970825
  Basis Set: CC-PVTZ
  Basis Set:
  Basis Set: CC-PVTZ
  Basis Set:
  @DF-RHF Final Energy:  -266.92085977011300
    Total Energy =                       -266.9208597701130543
  Basis Set: CC-PVTZ
  Basis Set:
  Basis Set: CC-PVTZ
  Basis Set:
  @DF-RHF Final Energy:  -266.92086148744863
    Total Energy =                       -266.9208614874486329
  Basis Set: CC-PVTZ
  Basis Set:
  Charge       = 0
  Multiplicity = 1
  Basis Set: CC-PVTZ
  Basis Set:

    Orbital Energies (a.u.)
    -----------------------

    Doubly Occupied:

       1A    -20.593490     2A    -20.553053     3A    -11.372157
       4A    -11.294101     5A    -11.225555     6A     -1.472317
       7A     -1.379056     8A     -1.051624     9A     -0.897515
      10A     -0.813259    11A     -0.742654    12A     -0.690227
      13A     -0.668356    14A     -0.620254    15A     -0.564400
      16A     -0.550655    17A     -0.529647    18A     -0.511233
      19A     -0.466927    20A     -0.452499

  @DF-RHF Final Energy:  -266.92086164848661

   => Energetics <=

    Nuclear Repulsion Energy =            178.4136806997842939
    One-Electron Energy =                -717.7711253622887853
    Two-Electron Energy =                 272.4365830140176854
    DFT Exchange-Correlation Energy =       0.0000000000000000
    Empirical Dispersion Energy =           0.0000000000000000
    PCM Polarization Energy =               0.0000000000000000
    EFP Energy =                            0.0000000000000000
    Total Energy =                       -266.9208616484867775
    Molecular point group: c1
  Basis Set: CC-PVTZ
  Basis Set:

  -Total Gradient:
     Atom            X                  Y                   Z
    ------   -----------------  -----------------  -----------------
       1       -0.000004038954    -0.000000033736     0.000005072457
       2       -0.000486176216     0.001864206911    -0.017572682487
       3        0.001566737890    -0.007774773344     0.012879222950
       4       -0.000005987616     0.000563863646     0.009865472457
       5       -0.001056708271     0.005342452752    -0.005195264690
       6       -0.000008091321     0.000003179233     0.000009466509
       7       -0.000001770269    -0.000002603122    -0.000000594008
       8       -0.000001559799     0.000004758941     0.000004817654
       9       -0.000000218183    -0.000000806006    -0.000000593163
      10       -0.000006287995    -0.000000370164     0.000002363797
      11        0.000004100733     0.000000124887     0.000002718523

  **** Optimization is complete! (in 8 steps) ****
    Final optimized geometry and variables:
    Molecular point group: c1

    Geometry (in Angstrom), charge = 0, multiplicity = 1:

    H           -1.869642275797     1.201096648687     0.362513005109
    C           -1.296130160592     0.278820231260     0.317997021560
    O            0.005923813828     0.525282683804     0.303789819417
    O           -1.788975922019    -0.786121961875     0.381159643502
    C            0.816980457564    -0.199624091488    -0.617739251615
    C            2.255346514640     0.195619164943    -0.385014390466
    H            0.501336324781     0.053292025706    -1.622781438108
    H            0.669716224194    -1.259298607831    -0.468116569247
    H            2.389805771090     1.260308711151    -0.526556854438
    H            2.896249306904    -0.328916737039    -1.083718751731
    H            2.561994390458    -0.058952164187     0.621295346862

  Mulliken Charges: (a.u.)
   Center  Symbol    Alpha    Beta     Spin     Total
       1     H     0.45690  0.45690  0.00000  0.08620
       2     C     2.83928  2.83928  0.00000  0.32143
       3     O     4.15537  4.15537  0.00000 -0.31074
       4     O     4.17962  4.17962  0.00000 -0.35925
       5     C     2.97106  2.97106  0.00000  0.05788
       6     C     3.13439  3.13439  0.00000 -0.26878
       7     H     0.46178  0.46178  0.00000  0.07645
       8     H     0.44785  0.44785  0.00000  0.10431
       9     H     0.45043  0.45043  0.00000  0.09913
      10     H     0.45534  0.45534  0.00000  0.08932
      11     H     0.44797  0.44797  0.00000  0.10406

   Total alpha = 20.00000, Total beta = 20.00000, Total charge = -0.00000

*** Psi4 exiting successfully. Buy a developer a beer!
