  ==> Input File <==

--------------------------------------------------------------------------
set {
	reference rhf
	basis 6-31G*
}

set_num_threads( 4 )
memory 2 gb

molecule MOL {
0 1

H	 -0.847725	 1.222724	 2.981330
C	 -1.499764	 0.418707	 2.617978
C	 -2.194627	 0.703400	 1.310795
O	 -1.617650	 -0.583832	 3.244690
C	 -1.220012	 1.144545	 0.209990
H	 -2.751265	 -0.179879	 1.019796
H	 -2.910608	 1.503067	 1.496699
C	 -0.252658	 0.041456	 -0.226725
H	 -1.797438	 1.478104	 -0.647100
H	 -0.657490	 2.011971	 0.551892
C	 1.180775	 0.282413	 0.250794
H	 -0.266029	 -0.034465	 -1.312038
H	 -0.597733	 -0.921000	 0.146291
C	 2.148627	 -0.814315	 -0.201312
H	 1.516199	 1.249228	 -0.115937
H	 1.192670	 0.346017	 1.338083
C	 3.580890	 -0.659131	 0.322722
H	 2.166869	 -0.852443	 -1.289387
H	 1.762857	 -1.776509	 0.128956
C	 4.324889	 0.564933	 -0.213704
H	 4.142010	 -1.551473	 0.056605
H	 3.564836	 -0.624694	 1.410140
H	 4.342616	 0.565491	 -1.300421
H	 3.866655	 1.493402	 0.110242
H	 5.353900	 0.572371	 0.132816

	symmetry c1
}
set optking {
	frozen_dihedral = ("
		3 5 8 12
	")
}

ee = optimize('scf')
oeprop('DIPOLE', 'QUADRUPOLE', 'MULLIKEN_CHARGES')
f=open( 'psi4out.xyz', 'w' )
f.write( "25  " )
f.write( str(ee) + "\n" )
f.write( MOL.save_string_xyz() )
f.close()
--------------------------------------------------------------------------

    Molecular point group: c1
  Charge       = 0
  Multiplicity = 1
  Basis Set: 6-31G*
  Basis Set:
  @DF-RHF Final Energy:  -387.11667000324104
    Total Energy =                       -387.1166700032409835
    Molecular point group: c1
  Basis Set: 6-31G*
  Basis Set:
  Basis Set: 6-31G*
  Basis Set:
  @DF-RHF Final Energy:  -387.11679456952385
    Total Energy =                       -387.1167945695241315
  Basis Set: 6-31G*
  Basis Set:
  Basis Set: 6-31G*
  Basis Set:
  @DF-RHF Final Energy:  -387.11308044207789
    Total Energy =                       -387.1130804420780578
  Basis Set: 6-31G*
  Basis Set:
  Basis Set: 6-31G*
  Basis Set:
  @DF-RHF Final Energy:  -387.11707177014870
    Total Energy =                       -387.1170717701490958
  Basis Set: 6-31G*
  Basis Set:
  @DF-RHF Final Energy:  -387.11715268066678
    Total Energy =                       -387.1171526806666634
  @DF-RHF Final Energy:  -387.11715691545487
    Total Energy =                       -387.1171569154541885
  @DF-RHF Final Energy:  -387.11716677178862
    Total Energy =                       -387.1171667717885612
  Basis Set: 6-31G*
  Basis Set:
  @DF-RHF Final Energy:  -387.11716843153789
    Total Energy =                       -387.1171684315384027
  Basis Set: 6-31G*
  Basis Set:
  Basis Set: 6-31G*
  Basis Set:
  @DF-RHF Final Energy:  -387.11716970858214
    Total Energy =                       -387.1171697085831056
  Basis Set: 6-31G*
  Basis Set:
  Basis Set: 6-31G*
  Basis Set:
  @DF-RHF Final Energy:  -387.11717076613064
    Total Energy =                       -387.1171707661299024
  Basis Set: 6-31G*
  Basis Set:
  Charge       = 0
  Multiplicity = 1
  Basis Set: 6-31G*
  Basis Set:

    Orbital Energies (a.u.)
    -----------------------

    Doubly Occupied:

       1A    -20.562706     2A    -11.326164     3A    -11.235286
       4A    -11.234649     5A    -11.221694     6A    -11.218554
       7A    -11.215674     8A    -11.214589     9A    -11.209055
      10A     -1.402238    11A     -1.101034    12A     -1.067310
      13A     -1.010767    14A     -0.941272    15A     -0.877238
      16A     -0.816815    17A     -0.788333    18A     -0.778772
      19A     -0.667043    20A     -0.652718    21A     -0.642131
      22A     -0.615336    23A     -0.613010    24A     -0.576582
      25A     -0.572139    26A     -0.560688    27A     -0.532476
      28A     -0.519101    29A     -0.509676    30A     -0.503449
      31A     -0.484879    32A     -0.473285    33A     -0.459689
      34A     -0.457029    35A     -0.441615    36A     -0.408789

  @DF-RHF Final Energy:  -387.11717159842510

   => Energetics <=

    Nuclear Repulsion Energy =            449.7275954795051121
    One-Electron Energy =               -1415.8659621452334250
    Two-Electron Energy =                 579.0211950673028696
    DFT Exchange-Correlation Energy =       0.0000000000000000
    Empirical Dispersion Energy =           0.0000000000000000
    PCM Polarization Energy =               0.0000000000000000
    EFP Energy =                            0.0000000000000000
    Total Energy =                       -387.1171715984254433
    Molecular point group: c1
  Basis Set: 6-31G*
  Basis Set:

  -Total Gradient:
     Atom            X                  Y                   Z
    ------   -----------------  -----------------  -----------------
       1        0.000042272912    -0.000012569648    -0.000026257815
       2        0.000020289740    -0.000021745884    -0.000019218958
       3       -0.000786918303    -0.000381901443    -0.000849085992
       4       -0.000049407774     0.000016458575     0.000031399970
       5        0.000852511056     0.000327748720     0.001195664946
       6        0.000000615444     0.000008279258    -0.000025003337
       7       -0.000008112897    -0.000013087566     0.000029972228
       8        0.001093193963     0.001182561255    -0.000384327011
       9       -0.000035657422    -0.000032107808     0.000015168829
      10        0.000001568194     0.000016661270    -0.000029593558
      11       -0.000009726870     0.000015391354    -0.000023949807
      12       -0.001137651602    -0.001092820654     0.000098102044
      13        0.000016814106    -0.000016094692    -0.000007716920
      14       -0.000001052897    -0.000001176211     0.000000734166
      15       -0.000000584215     0.000000762858    -0.000004137760
      16        0.000002663964     0.000004108182    -0.000002196740
      17       -0.000001103697    -0.000001475766     0.000004187144
      18        0.000004572862     0.000001956665     0.000000760437
      19       -0.000004072582     0.000000184554    -0.000003337955
      20       -0.000000828157     0.000001015665     0.000001597738
      21       -0.000000002285     0.000000816958    -0.000003034016
      22        0.000000858882    -0.000003022662     0.000000265610
      23        0.000000651683    -0.000000327380    -0.000000002603
      24       -0.000000675638     0.000000031382    -0.000000751671
      25       -0.000000218461     0.000000353018     0.000000761031

  **** Optimization is complete! (in 11 steps) ****
    Final optimized geometry and variables:
    Molecular point group: c1

    Geometry (in Angstrom), charge = 0, multiplicity = 1:

    H           -1.497271321057     1.139400537087     2.252240587443
    C           -2.026441158117     0.292057531736     1.799640752904
    C           -2.736837321495     0.598746261482     0.507150420620
    O           -2.004161780823    -0.774576711222     2.324115899049
    C           -1.765382470202     1.043815759173    -0.599794141979
    H           -3.292598856949    -0.280824166657     0.204578727416
    H           -3.447115068919     1.400389823122     0.702686602569
    C           -0.768658744950    -0.052747283022    -1.037047274110
    H           -2.364515044147     1.358308171203    -1.447681839455
    H           -1.226904376829     1.930675526244    -0.273034964466
    C            0.668314567092     0.186377413594    -0.564589758562
    H           -0.778147126437    -0.138226057182    -2.120087580280
    H           -1.106319800989    -1.017084110525    -0.665546529495
    C            1.625050986067    -0.926480963195    -0.998892361041
    H            1.009345433316     1.144478619151    -0.948596552658
    H            0.687130620968     0.266593992896     0.521397941217
    C            3.059765386930    -0.775602355501    -0.480429091927
    H            1.641049708590    -0.982657863011    -2.086424289875
    H            1.230681798814    -1.878519186699    -0.650837491725
    C            3.813493575538     0.433820381481    -1.036815839350
    H            3.612425859027    -1.676904250902    -0.733507491368
    H            3.045348233711    -0.724794393249     0.606245776170
    H            3.833060982710     0.415628395605    -2.123305715075
    H            3.361909710072     1.371427772651    -0.729751167632
    H            4.841928834521     0.439896562977    -0.689069672451

  Mulliken Charges: (a.u.)
   Center  Symbol    Alpha    Beta     Spin     Total
       1     H     0.43198  0.43198  0.00000  0.13604
       2     C     2.83100  2.83100  0.00000  0.33800
       3     C     3.20756  3.20756  0.00000 -0.41512
       4     O     4.23841  4.23841  0.00000 -0.47682
       5     C     3.16797  3.16797  0.00000 -0.33594
       6     H     0.39992  0.39992  0.00000  0.20015
       7     H     0.40993  0.40993  0.00000  0.18015
       8     C     3.16241  3.16241  0.00000 -0.32482
       9     H     0.41024  0.41024  0.00000  0.17952
      10     H     0.41694  0.41694  0.00000  0.16613
      11     C     3.15652  3.15652  0.00000 -0.31303
      12     H     0.41705  0.41705  0.00000  0.16591
      13     H     0.41126  0.41126  0.00000  0.17748
      14     C     3.15378  3.15378  0.00000 -0.30756
      15     H     0.42114  0.42114  0.00000  0.15772
      16     H     0.42285  0.42285  0.00000  0.15431
      17     C     3.15298  3.15298  0.00000 -0.30597
      18     H     0.42444  0.42444  0.00000  0.15111
      19     H     0.41830  0.41830  0.00000  0.16340
      20     C     3.24120  3.24120  0.00000 -0.48239
      21     H     0.42019  0.42019  0.00000  0.15962
      22     H     0.42160  0.42160  0.00000  0.15681
      23     H     0.42247  0.42247  0.00000  0.15506
      24     H     0.42114  0.42114  0.00000  0.15773
      25     H     0.41874  0.41874  0.00000  0.16252

   Total alpha = 36.00000, Total beta = 36.00000, Total charge =  0.00000
