                              Psi4 1.0.54 Driver

  ==> Input File <==

--------------------------------------------------------------------------
set {
	reference rhf
	basis cc-pvtz
}

set_num_threads( 4 )
memory 2 gb

molecule MOL {
0 1

H	 2.342730	 0.877684	 -1.045694
C	 2.360424	 0.000000	 -0.411793
C	 1.173749	 0.000000	 0.526870
H	 3.286567	 0.000000	 0.151574
H	 2.342730	 -0.877684	 -1.045694
O	 0.000000	 0.000000	 -0.223739
H	 1.203779	 0.876757	 1.172538
H	 1.203779	 -0.876757	 1.172538
C	 -1.173749	 0.000000	 0.526870
C	 -1.470031	 1.412687	 0.980540
H	 -1.065772	 -0.657797	 1.388342
H	 -1.998972	 -0.384886	 -0.070928
H	 -0.658685	 1.794202	 1.587695
H	 -2.381016	 1.436737	 1.567610
H	 -1.592871	 2.067402	 0.126882

	symmetry c1
}
set optking {
	frozen_dihedral = ("
		11 9 6 3
	")
}

ee,wfn = optimize('scf', return_wfn=True)
oeprop( wfn, 'DIPOLE', 'QUADRUPOLE', 'MULLIKEN_CHARGES')
f=open( 'psi4out.xyz', 'w' )
f.write( "15  " )
f.write( str(ee) + "\n" )
f.write( MOL.save_string_xyz() )
f.close()
--------------------------------------------------------------------------

    Molecular point group: c1
  Charge       = 0
  Multiplicity = 1
  Basis Set: CC-PVTZ
  Basis Set:
  @DF-RHF Final Energy:  -232.22875982115204
    Total Energy =                       -232.2287598211518684
    Molecular point group: c1
  Basis Set: CC-PVTZ
  Basis Set:
  Basis Set: CC-PVTZ
  Basis Set:
  @DF-RHF Final Energy:  -232.22964338770629
    Total Energy =                       -232.2296433877064032
  Basis Set: CC-PVTZ
  Basis Set:
  Basis Set: CC-PVTZ
  Basis Set:
  @DF-RHF Final Energy:  -232.23070745545951
    Total Energy =                       -232.2307074554596511
  Basis Set: CC-PVTZ
  Basis Set:
  Basis Set: CC-PVTZ
  Basis Set:
  @DF-RHF Final Energy:  -232.23073502735937
    Total Energy =                       -232.2307350273593443
  Basis Set: CC-PVTZ
  Basis Set:
  Charge       = 0
  Multiplicity = 1
  Basis Set: CC-PVTZ
  Basis Set:

    Orbital Energies (a.u.)
    -----------------------

    Doubly Occupied:

       1A    -20.543708     2A    -11.266172     3A    -11.265893
       4A    -11.208894     5A    -11.206749     6A     -1.378055
       7A     -1.041747     8A     -0.986693     9A     -0.861965
      10A     -0.814076    11A     -0.674136    12A     -0.648099
      13A     -0.646328    14A     -0.574775    15A     -0.551542
      16A     -0.544416    17A     -0.523919    18A     -0.502154
      19A     -0.487898    20A     -0.458894    21A     -0.410196

  @DF-RHF Final Energy:  -232.23073651121521

   => Energetics <=

    Nuclear Repulsion Energy =            192.6841292797618337
    One-Electron Energy =                -696.6371184714919309
    Two-Electron Energy =                 271.7222526805151119
    DFT Exchange-Correlation Energy =       0.0000000000000000
    Empirical Dispersion Energy =           0.0000000000000000
    PCM Polarization Energy =               0.0000000000000000
    EFP Energy =                            0.0000000000000000
    Total Energy =                       -232.2307365112150137
    Molecular point group: c1
  Basis Set: CC-PVTZ
  Basis Set:

  -Total Gradient:
     Atom            X                  Y                   Z
    ------   -----------------  -----------------  -----------------
       1        0.000003207911    -0.000000882442    -0.000000335889
       2       -0.000008611904     0.000004055859    -0.000007271848
       3        0.000005482955    -0.000213242554     0.000015259376
       4       -0.000008671427     0.000000034893    -0.000000898120
       5        0.000001025619    -0.000001772204    -0.000002109303
       6        0.000016500375     0.000404206291     0.000001631267
       7       -0.000012257863     0.000004509068     0.000004958184
       8       -0.000014027304    -0.000002175919    -0.000004914103
       9       -0.000020483425    -0.000375952146    -0.000171083292
      10        0.000008155103    -0.000040235292    -0.000029750809
      11        0.000054140639     0.000186550536     0.000208040847
      12       -0.000016380873     0.000025301395    -0.000003643651
      13        0.000015254796    -0.000008913658    -0.000008838607
      14       -0.000027213190    -0.000001456091     0.000006087412
      15        0.000003878588     0.000019972264    -0.000007131464

  **** Optimization is complete! (in 5 steps) ****
    Final optimized geometry and variables:
    Molecular point group: c1

    Geometry (in Angstrom), charge = 0, multiplicity = 1:

    H            2.193940097330     0.538849476178    -1.365931787627
    C            2.195958644444    -0.336265229879    -0.728118957623
    C            1.032539275761    -0.290797636829     0.238556649529
    H            3.134827047807    -0.366063666984    -0.186688854863
    H            2.131902190931    -1.215314346090    -1.357159492085
    O           -0.155990643161    -0.264436245218    -0.491175231138
    H            1.115176300345     0.586273042906     0.876208422416
    H            1.048241709245    -1.165360728419     0.887287808174
    C           -1.337639534737    -0.257205310803     0.253177320426
    C           -1.742925706752     1.132823787790     0.717430226299
    H           -1.247441214216    -0.926368491715     1.106833446858
    H           -2.105996168117    -0.660693767604    -0.393626266997
    H           -1.017050318664     1.558793019552     1.399418000299
    H           -2.696499236114     1.088932755534     1.232712019541
    H           -1.842824764148     1.798238744936    -0.131469185949

  Mulliken Charges: (a.u.)
   Center  Symbol    Alpha    Beta     Spin     Total
       1     H     0.45144  0.45144  0.00000  0.09711
       2     C     3.13547  3.13547  0.00000 -0.27094
       3     C     2.96683  2.96683  0.00000  0.06634
       4     H     0.45938  0.45938  0.00000  0.08124
       5     H     0.45125  0.45125  0.00000  0.09750
       6     O     4.18336  4.18336  0.00000 -0.36672
       7     H     0.47327  0.47327  0.00000  0.05345
       8     H     0.47190  0.47190  0.00000  0.05620
       9     C     2.98148  2.98148  0.00000  0.03704
      10     C     3.14329  3.14329  0.00000 -0.28657
      11     H     0.47193  0.47193  0.00000  0.05614
      12     H     0.44982  0.44982  0.00000  0.10037
      13     H     0.45656  0.45656  0.00000  0.08688
      14     H     0.45349  0.45349  0.00000  0.09302
      15     H     0.45053  0.45053  0.00000  0.09894

   Total alpha = 21.00000, Total beta = 21.00000, Total charge = -0.00000

*** Psi4 exiting successfully. Buy a developer a beer!
