                              Psi4 1.0.54 Driver

  ==> Input File <==

--------------------------------------------------------------------------
set {
	reference rhf
	basis cc-pvtz
}

set_num_threads( 4 )
memory 2 gb

molecule MOL {
0 1

H	 -5.859517	 -2.103869	 2.466063
O	 -5.743569	 -2.380570	 3.355907
C	 -4.748469	 -3.367112	 3.431960
C	 -3.341483	 -2.826566	 3.224870
H	 -4.830155	 -3.793281	 4.422762
H	 -4.950377	 -4.165397	 2.720326
C	 -3.080981	 -2.275707	 1.824677
H	 -3.157048	 -2.051732	 3.962958
H	 -2.640515	 -3.631980	 3.430663
C	 -1.649459	 -1.772686	 1.644254
H	 -3.776082	 -1.467736	 1.622139
H	 -3.281290	 -3.052774	 1.088927
C	 -1.311023	 -1.277304	 0.237018
H	 -1.457724	 -0.977316	 2.360391
H	 -0.966131	 -2.578373	 1.898025
C	 -2.041121	 -0.006551	 -0.194127
H	 -0.241143	 -1.094266	 0.188227
H	 -1.513818	 -2.069442	 -0.480301
C	 -3.489218	 0.042606	 0.286507
H	 -2.022185	 0.066287	 -1.279394
H	 -1.518764	 0.869305	 0.178730
C	 -4.219984	 1.311773	 -0.139038
H	 -4.022855	 -0.824300	 -0.093339
H	 -3.510372	 -0.038577	 1.370031
H	 -4.244251	 1.405725	 -1.219696
H	 -5.244345	 1.313233	 0.215630
H	 -3.732090	 2.196311	 0.257073

	symmetry c1
}
set optking {
	frozen_dihedral = ("
		10 13 16 20
	")
}

ee,wfn = optimize('scf', return_wfn=True)
oeprop( wfn, 'DIPOLE', 'QUADRUPOLE', 'MULLIKEN_CHARGES')
f=open( 'psi4out.xyz', 'w' )
f.write( "27  " )
f.write( str(ee) + "\n" )
f.write( MOL.save_string_xyz() )
f.close()
--------------------------------------------------------------------------

    Molecular point group: c1
  Charge       = 0
  Multiplicity = 1
  Basis Set: CC-PVTZ
  Basis Set:
  @DF-RHF Final Energy:  -388.39775281285091
    Total Energy =                       -388.3977528128507402
    Molecular point group: c1
  Basis Set: CC-PVTZ
  Basis Set:
  Basis Set: CC-PVTZ
  Basis Set:
  @DF-RHF Final Energy:  -388.18443160319777
    Total Energy =                       -388.1844316031979361
  Basis Set: CC-PVTZ
  Basis Set:
  Basis Set: CC-PVTZ
  Basis Set:
  @DF-RHF Final Energy:  -388.32450440766428
    Total Energy =                       -388.3245044076638806
  Basis Set: CC-PVTZ
  Basis Set:
  Basis Set: CC-PVTZ
  Basis Set:
  @DF-RHF Final Energy:  -388.41144821035084
    Total Energy =                       -388.4114482103507271
  Basis Set: CC-PVTZ
  Basis Set:
  @DF-RHF Final Energy:  -388.41849666269695
    Total Energy =                       -388.4184966626964979
  @DF-RHF Final Energy:  -388.39712402765639
    Total Energy =                       -388.3971240276561048
  @DF-RHF Final Energy:  -388.41972226306530
    Total Energy =                       -388.4197222630650685
  @DF-RHF Final Energy:  -388.42013967801643
    Total Energy =                       -388.4201396780161986
  @DF-RHF Final Energy:  -388.42036641932845
    Total Energy =                       -388.4203664193285022
  Basis Set: CC-PVTZ
  Basis Set:
  @DF-RHF Final Energy:  -388.42036307070447
    Total Energy =                       -388.4203630707038428
  Basis Set: CC-PVTZ
  Basis Set:
  Basis Set: CC-PVTZ
  Basis Set:
  @DF-RHF Final Energy:  -388.42040209964074
    Total Energy =                       -388.4204020996412510
  Basis Set: CC-PVTZ
  Basis Set:
  Basis Set: CC-PVTZ
  Basis Set:
  @DF-RHF Final Energy:  -388.42040385107708
    Total Energy =                       -388.4204038510770260
  Basis Set: CC-PVTZ
  Basis Set:
  Charge       = 0
  Multiplicity = 1
  Basis Set: CC-PVTZ
  Basis Set:

    Orbital Energies (a.u.)
    -----------------------

    Doubly Occupied:

       1A    -20.545361     2A    -11.264922     3A    -11.215896
       4A    -11.214727     5A    -11.213958     6A    -11.213758
       7A    -11.212928     8A    -11.212830     9A    -11.206972
      10A     -1.363204    11A     -1.094427    12A     -1.060623
      13A     -1.010658    14A     -0.951346    15A     -0.886994
      16A     -0.833003    17A     -0.795857    18A     -0.771261
      19A     -0.696452    20A     -0.653469    21A     -0.633528
      22A     -0.619266    23A     -0.602415    24A     -0.587214
      25A     -0.573984    26A     -0.566107    27A     -0.540014
      28A     -0.515291    29A     -0.506691    30A     -0.503052
      31A     -0.488055    32A     -0.480378    33A     -0.469664
      34A     -0.453353    35A     -0.445071    36A     -0.443558
      37A     -0.425243

  @DF-RHF Final Energy:  -388.42040424456775

   => Energetics <=

    Nuclear Repulsion Energy =            471.2333138419072611
    One-Electron Energy =               -1460.7643768135158098
    Two-Electron Energy =                 601.1106587270412547
    DFT Exchange-Correlation Energy =       0.0000000000000000
    Empirical Dispersion Energy =           0.0000000000000000
    PCM Polarization Energy =               0.0000000000000000
    EFP Energy =                            0.0000000000000000
    Total Energy =                       -388.4204042445672940
    Molecular point group: c1
  Basis Set: CC-PVTZ
  Basis Set:

  -Total Gradient:
     Atom            X                  Y                   Z
    ------   -----------------  -----------------  -----------------
       1        0.000023456693    -0.000004767976    -0.000010142969
       2       -0.000029010008     0.000001804141     0.000023596535
       3        0.000014609164     0.000005791253    -0.000024096211
       4        0.000015448839     0.000006095839    -0.000015898673
       5       -0.000011648544     0.000003882071    -0.000008468325
       6       -0.000004914288     0.000005469276    -0.000005597714
       7       -0.000017343776    -0.000011996907    -0.000009367483
       8       -0.000005064635    -0.000000292433     0.000005790034
       9        0.000013307041     0.000001792649     0.000004762831
      10       -0.001574605616    -0.004038486730    -0.001227391889
      11       -0.000018649315    -0.000013788418     0.000009157570
      12        0.000020612100    -0.000004495109     0.000000262938
      13        0.001543086840     0.004921522373     0.001735682794
      14        0.000002370065     0.000006171662    -0.000002702892
      15        0.000008345880     0.000007293430    -0.000008310839
      16        0.003677302091     0.003831952045    -0.000070296430
      17       -0.000000892543     0.000000746418     0.000011921405
      18        0.000001437954     0.000003569677    -0.000002933357
      19       -0.000002863478    -0.000011001185     0.000002317673
      20       -0.003620491866    -0.004710127771    -0.000401419436
      21       -0.000005773949    -0.000018987644     0.000005231172
      22       -0.000018685234    -0.000000628551     0.000000720810
      23        0.000009906527     0.000012339910    -0.000007449486
      24       -0.000006316366     0.000010283502    -0.000009099085
      25        0.000001501601    -0.000006887120     0.000009690985
      26       -0.000017899130     0.000006365578    -0.000013784600
      27        0.000002773947    -0.000003619981     0.000007824645

  **** Optimization is complete! (in 13 steps) ****
    Final optimized geometry and variables:
    Molecular point group: c1

    Geometry (in Angstrom), charge = 0, multiplicity = 1:

    H           -1.860847942977    -2.341511431814     0.687528407079
    O           -2.194292478552    -2.112642596324     1.534922213099
    C           -1.136964868739    -1.926521559257     2.438642050828
    C           -0.353516343337    -0.644608585237     2.199026400167
    H           -1.589562909287    -1.896229584789     3.420570723719
    H           -0.466268868042    -2.783305085222     2.419273502052
    C            0.395823194916    -0.608263096636     0.869141866853
    H           -1.040080852992     0.194780267877     2.255655498091
    H            0.355180919833    -0.528122941155     3.015552375708
    C            1.221991418452     0.665991307379     0.693289462487
    H           -0.310477564918    -0.706976998351     0.054248775122
    H            1.062184296257    -1.466610252879     0.809100033448
    C            2.019342506479     0.757709332364    -0.617686190075
    H            0.578962806023     1.535399623269     0.801156674081
    H            1.923811742073     0.717696430967     1.520600880919
    C            1.326928543886     1.397605363246    -1.834835629459
    H            2.931007561072     1.315879113484    -0.435311839985
    H            2.340966702680    -0.245795068909    -0.885322037977
    C           -0.146423244586     1.056073444680    -2.063465466150
    H            1.856697729887     1.069432781285    -2.724599999391
    H            1.425556142832     2.477756128721    -1.778166206551
    C           -0.708946833267     1.745466383768    -3.303149405947
    H           -0.258082178541    -0.018333310051    -2.175926458971
    H           -0.741211931158     1.341083844760    -1.202790893291
    H           -0.162490887763     1.456696975701    -4.194882923735
    H           -1.750917567448     1.488800641017    -3.456265251031
    H           -0.644281346729     2.824758587193    -3.213155511401

  Mulliken Charges: (a.u.)
   Center  Symbol    Alpha    Beta     Spin     Total
       1     H     0.39207  0.39207  0.00000  0.21586
       2     O     4.20553  4.20553  0.00000 -0.41106
       3     C     2.97978  2.97978  0.00000  0.04044
       4     C     3.09064  3.09064  0.00000 -0.18129
       5     H     0.44866  0.44866  0.00000  0.10268
       6     H     0.46928  0.46928  0.00000  0.06144
       7     C     3.10356  3.10356  0.00000 -0.20713
       8     H     0.45105  0.45105  0.00000  0.09790
       9     H     0.45446  0.45446  0.00000  0.09108
      10     C     3.10810  3.10810  0.00000 -0.21621
      11     H     0.45225  0.45225  0.00000  0.09550
      12     H     0.45208  0.45208  0.00000  0.09584
      13     C     3.10269  3.10269  0.00000 -0.20539
      14     H     0.44933  0.44933  0.00000  0.10134
      15     H     0.44409  0.44409  0.00000  0.11183
      16     C     3.08703  3.08703  0.00000 -0.17407
      17     H     0.44321  0.44321  0.00000  0.11358
      18     H     0.45568  0.45568  0.00000  0.08865
      19     C     3.09360  3.09360  0.00000 -0.18720
      20     H     0.45100  0.45100  0.00000  0.09800
      21     H     0.45218  0.45218  0.00000  0.09564
      22     C     3.15146  3.15146  0.00000 -0.30292
      23     H     0.45560  0.45560  0.00000  0.08881
      24     H     0.44926  0.44926  0.00000  0.10148
      25     H     0.45490  0.45490  0.00000  0.09020
      26     H     0.44769  0.44769  0.00000  0.10463
      27     H     0.45480  0.45480  0.00000  0.09039

   Total alpha = 37.00000, Total beta = 37.00000, Total charge = -0.00000

*** Psi4 exiting successfully. Buy a developer a beer!
