  ==> Input File <==

--------------------------------------------------------------------------
set {
	reference rhf
	basis cc-pvtz
}

set_num_threads( 4 )
memory 2 gb

molecule MOL {
0 1

H	 3.459101	 0.139266	 -0.762951
C	 2.749156	 -0.051729	 0.031265
C	 1.322304	 0.099773	 -0.484271
H	 2.929445	 -1.053887	 0.403481
H	 2.954281	 0.646699	 0.834672
C	 0.308557	 -0.162619	 0.622645
H	 1.143368	 -0.594400	 -1.295960
H	 1.169532	 1.100095	 -0.870217
N	 -1.069352	 -0.004081	 0.085342
H	 0.371632	 -1.172932	 0.991288
H	 0.400391	 0.548875	 1.426218
O	 -1.303927	 0.985838	 -0.522615
O	 -1.848106	 -0.864645	 0.325994

	symmetry c1
}
set optking {
	frozen_dihedral = ("
		12 9 6 3
	")
}

ee = optimize('scf')
oeprop('DIPOLE', 'QUADRUPOLE', 'MULLIKEN_CHARGES')
f=open( 'psi4out.xyz', 'w' )
f.write( "13  " )
f.write( str(ee) + "\n" )
f.write( MOL.save_string_xyz() )
f.close()
--------------------------------------------------------------------------

    Molecular point group: c1
  Charge       = 0
  Multiplicity = 1
  Basis Set: CC-PVTZ
  Basis Set:
  @DF-RHF Final Energy:  -321.86060457120686
    Total Energy =                       -321.8606045712069204
    Molecular point group: c1
  Basis Set: CC-PVTZ
  Basis Set:
  Basis Set: CC-PVTZ
  Basis Set:
  @DF-RHF Final Energy:  -321.85749206722937
    Total Energy =                       -321.8574920672293160
  Basis Set: CC-PVTZ
  Basis Set:
  Basis Set: CC-PVTZ
  Basis Set:
  @DF-RHF Final Energy:  -321.86029631158840
    Total Energy =                       -321.8602963115886837
  Basis Set: CC-PVTZ
  Basis Set:
  Basis Set: CC-PVTZ
  Basis Set:
  @DF-RHF Final Energy:  -321.86105558349720
    Total Energy =                       -321.8610555834975457
  Basis Set: CC-PVTZ
  Basis Set:
  Basis Set: CC-PVTZ
  Basis Set:
  @DF-RHF Final Energy:  -321.86106251156752
    Total Energy =                       -321.8610625115675248
  Basis Set: CC-PVTZ
  Basis Set:
  Basis Set: CC-PVTZ
  Basis Set:
  @DF-RHF Final Energy:  -321.86106545720344
    Total Energy =                       -321.8610654572034377
  Basis Set: CC-PVTZ
  Basis Set:
  Charge       = 0
  Multiplicity = 1
  Basis Set: CC-PVTZ
  Basis Set:

    Orbital Energies (a.u.)
    -----------------------

    Doubly Occupied:

       1A    -20.592231     2A    -20.589501     3A    -15.837720
       4A    -11.298095     5A    -11.250508     6A    -11.235977
       7A     -1.636698     8A     -1.420829     9A     -1.132758
      10A     -1.027358    11A     -0.884531    12A     -0.830867
      13A     -0.763272    14A     -0.743432    15A     -0.729670
      16A     -0.666833    17A     -0.605203    18A     -0.583577
      19A     -0.551441    20A     -0.522046    21A     -0.510892
      22A     -0.487690    23A     -0.474460    24A     -0.454292

  @DF-RHF Final Energy:  -321.86106550686122

   => Energetics <=

    Nuclear Repulsion Energy =            247.7528694181349636
    One-Electron Energy =                -929.5680998557666044
    Two-Electron Energy =                 359.9541649307702187
    DFT Exchange-Correlation Energy =       0.0000000000000000
    Empirical Dispersion Energy =           0.0000000000000000
    PCM Polarization Energy =               0.0000000000000000
    EFP Energy =                            0.0000000000000000
    Total Energy =                       -321.8610655068613937
    Molecular point group: c1
  Basis Set: CC-PVTZ
  Basis Set:

  -Total Gradient:
     Atom            X                  Y                   Z
    ------   -----------------  -----------------  -----------------
       1       -0.000002936458     0.000001712927     0.000000862563
       2       -0.000005980459     0.000010862466     0.000002712429
       3        0.000009677586     0.000400750586     0.000099760307
       4       -0.000000938613    -0.000001901777    -0.000003982421
       5        0.000001899920    -0.000000144533     0.000004366497
       6        0.000042634332    -0.000676045504    -0.000321737767
       7       -0.000000872634    -0.000001957905    -0.000007251823
       8        0.000001852551    -0.000006909191     0.000002994058
       9       -0.000191165648     0.000552621377     0.000694110845
      10        0.000009385192     0.000001585792     0.000003375131
      11       -0.000006734728    -0.000001114218     0.000003186149
      12        0.000144874037    -0.000261439433    -0.000486317368
      13       -0.000001695077    -0.000018020586     0.000007921400

  **** Optimization is complete! (in 7 steps) ****
    Final optimized geometry and variables:
    Molecular point group: c1

    Geometry (in Angstrom), charge = 0, multiplicity = 1:

    H            3.485032379863     0.131168712414    -0.762387614625
    C            2.763689370230    -0.058131431896     0.021838718481
    C            1.344489497466     0.116193745795    -0.509395623742
    H            2.930251470372    -1.064471264488     0.389333344062
    H            2.968054562576     0.632092682638     0.832921677446
    C            0.322662785429    -0.150575931188     0.583277259173
    H            1.171474918045    -0.568329194901    -1.332403465860
    H            1.204987772794     1.117171350587    -0.890670939900
    N           -1.075064300382    -0.007467558903     0.084136881526
    H            0.388142926101    -1.147557945059     0.983046897275
    H            0.406318589471     0.569425684130     1.385435701587
    O           -1.341194298541     0.980506584964    -0.514536028526
    O           -1.832839212341    -0.883737182200     0.330925725108

  Mulliken Charges: (a.u.)
   Center  Symbol    Alpha    Beta     Spin     Total
       1     H     0.44149  0.44149  0.00000  0.11701
       2     C     3.15160  3.15160  0.00000 -0.30321
       3     C     3.09554  3.09554  0.00000 -0.19109
       4     H     0.45222  0.45222  0.00000  0.09556
       5     H     0.45236  0.45236  0.00000  0.09528
       6     C     3.04120  3.04120  0.00000 -0.08240
       7     H     0.44358  0.44358  0.00000  0.11285
       8     H     0.43318  0.43318  0.00000  0.13363
       9     N     3.27654  3.27654  0.00000  0.44692
      10     H     0.43206  0.43206  0.00000  0.13588
      11     H     0.43754  0.43754  0.00000  0.12491
      12     O     4.17352  4.17352  0.00000 -0.34703
      13     O     4.16916  4.16916  0.00000 -0.33832

   Total alpha = 24.00000, Total beta = 24.00000, Total charge =  0.00000
