  ==> Input File <==

--------------------------------------------------------------------------
set {
	reference rhf
	basis 6-31G*
}

set_num_threads( 1 )
memory 2 gb

molecule MOL {
0 1

O	 2.617943	 0.431530	 -1.172728
C	 2.701189	 0.057885	 -0.047330
C	 2.105429	 0.748211	 1.155711
O	 3.347903	 -1.046386	 0.304773
C	 1.339046	 2.020060	 0.799100
H	 1.476463	 0.022199	 1.660190
H	 2.920825	 0.962287	 1.842005
C	 0.817599	 2.788652	 2.018056
H	 0.512228	 1.768141	 0.141811
H	 1.992086	 2.667345	 0.223789
C	 -0.262098	 2.062394	 2.825469
H	 0.412970	 3.736476	 1.670740
H	 1.651157	 3.038690	 2.672786
C	 -0.827105	 2.913867	 3.964223
H	 -1.072076	 1.770907	 2.158544
H	 0.137774	 1.140471	 3.241562
C	 -1.903173	 2.196382	 4.781183
H	 -1.241671	 3.833327	 3.554390
H	 -0.016034	 3.214625	 4.625590
C	 -2.464904	 3.054871	 5.913948
H	 -2.713966	 1.894259	 4.121654
H	 -1.489416	 1.279253	 5.195260
H	 -3.224855	 2.519141	 6.474373
H	 -2.917539	 3.964378	 5.529092
H	 -1.683382	 3.345087	 6.610563
C	 4.728119	 -1.109107	 -0.004993
H	 4.882018	 -1.033965	 -1.071845
H	 5.068212	 -2.067527	 0.355250
H	 5.265056	 -0.311663	 0.488280

	symmetry c1
}
set optking {
	frozen_dihedral = ("
		21 17 14 11,
		17 14 11 15,
		15 11 8 5,
		6 3 5 9,
		11 8 5 9,
		2 4 26 27,
		6 3 2 1
	")
}

ee = energy('scf')
oeprop('DIPOLE', 'QUADRUPOLE', 'MULLIKEN_CHARGES')
f=open( 'psi4out.xyz', 'w' )
f.write( "29  " )
f.write( str(ee) + "\n" )
f.write( MOL.save_string_xyz() )
f.close()
--------------------------------------------------------------------------

    Molecular point group: c1

    Geometry (in Angstrom), charge = 0, multiplicity = 1:

       Center              X                  Y                   Z               Mass
    ------------   -----------------  -----------------  -----------------  -----------------
           O          1.477935205444    -0.826643526942    -3.024758640890    15.994914619560
           C          1.561181205444    -1.200288526942    -1.899360640890    12.000000000000
           C          0.965421205444    -0.509962526942    -0.696319640890    12.000000000000
           O          2.207895205444    -2.304559526942    -1.547257640890    15.994914619560
           C          0.199038205444     0.761886473058    -1.052930640890    12.000000000000
           H          0.336455205444    -1.235974526942    -0.191840640890     1.007825032070
           H          1.780817205444    -0.295886526942    -0.010025640890     1.007825032070
           C         -0.322408794556     1.530478473058     0.166025359110    12.000000000000
           H         -0.627779794556     0.509967473058    -1.710219640890     1.007825032070
           H          0.852078205444     1.409171473058    -1.628241640890     1.007825032070
           C         -1.402105794556     0.804220473058     0.973438359110    12.000000000000
           H         -0.727037794556     2.478302473058    -0.181290640890     1.007825032070
           H          0.511149205444     1.780516473058     0.820755359110     1.007825032070
           C         -1.967112794556     1.655693473058     2.112192359110    12.000000000000
           H         -2.212083794556     0.512733473058     0.306513359110     1.007825032070
           H         -1.002233794556    -0.117702526942     1.389531359110     1.007825032070
           C         -3.043180794556     0.938208473058     2.929152359110    12.000000000000
           H         -2.381678794556     2.575153473058     1.702359359110     1.007825032070
           H         -1.156041794556     1.956451473058     2.773559359110     1.007825032070
           C         -3.604911794556     1.796697473058     4.061917359110    12.000000000000
           H         -3.853973794556     0.636085473058     2.269623359110     1.007825032070
           H         -2.629423794556     0.021079473058     3.343229359110     1.007825032070
           H         -4.364862794556     1.260967473058     4.622342359110     1.007825032070
           H         -4.057546794556     2.706204473058     3.677061359110     1.007825032070
           H         -2.823389794556     2.086913473058     4.758532359110     1.007825032070
           C          3.588111205444    -2.367280526942    -1.857023640890    12.000000000000
           H          3.742010205444    -2.292138526942    -2.923875640890     1.007825032070
           H          3.928204205444    -3.325700526942    -1.496780640890     1.007825032070
           H          4.125048205444    -1.569836526942    -1.363750640890     1.007825032070

  Charge       = 0
  Multiplicity = 1
  Basis Set: 6-31G*
  Basis Set:

    Orbital Energies (a.u.)
    -----------------------

    Doubly Occupied:

       1A    -20.590083     2A    -20.551483     3A    -11.372971
       4A    -11.289466     5A    -11.235370     6A    -11.219091
       7A    -11.218032     8A    -11.216302     9A    -11.216054
      10A    -11.214783    11A    -11.209286    12A     -1.465021
      13A     -1.364563    14A     -1.098207    15A     -1.066351
      16A     -1.017432    17A     -0.978768    18A     -0.933261
      19A     -0.863668    20A     -0.800635    21A     -0.791343
      22A     -0.764182    23A     -0.699894    24A     -0.678971
      25A     -0.674080    26A     -0.651022    27A     -0.626909
      28A     -0.613233    29A     -0.596295    30A     -0.586470
      31A     -0.564725    32A     -0.555463    33A     -0.536826
      34A     -0.529464    35A     -0.518858    36A     -0.504749
      37A     -0.491811    38A     -0.479576    39A     -0.472420
      40A     -0.463723    41A     -0.462333    42A     -0.450824
      43A     -0.441654    44A     -0.431204

  @DF-RHF Final Energy:  -501.02902869917057

   => Energetics <=

    Nuclear Repulsion Energy =            611.0270597284031737
    One-Electron Energy =               -1893.0986940727680121
    Two-Electron Energy =                 781.0426056451939303
    DFT Exchange-Correlation Energy =       0.0000000000000000
    Empirical Dispersion Energy =           0.0000000000000000
    PCM Polarization Energy =               0.0000000000000000
    EFP Energy =                            0.0000000000000000
    Total Energy =                       -501.0290286991709081

  Mulliken Charges: (a.u.)
   Center  Symbol    Alpha    Beta     Spin     Total
       1     O     4.26867  4.26867  0.00000 -0.53733
       2     C     2.60820  2.60820  0.00000  0.78360
       3     C     3.21196  3.21196  0.00000 -0.42392
       4     O     4.31122  4.31122  0.00000 -0.62244
       5     C     3.15480  3.15480  0.00000 -0.30961
       6     H     0.39714  0.39714  0.00000  0.20571
       7     H     0.40656  0.40656  0.00000  0.18688
       8     C     3.15631  3.15631  0.00000 -0.31262
       9     H     0.41217  0.41217  0.00000  0.17565
      10     H     0.40998  0.40998  0.00000  0.18005
      11     C     3.15499  3.15499  0.00000 -0.30999
      12     H     0.41830  0.41830  0.00000  0.16341
      13     H     0.42480  0.42480  0.00000  0.15041
      14     C     3.15025  3.15025  0.00000 -0.30050
      15     H     0.42216  0.42216  0.00000  0.15568
      16     H     0.42376  0.42376  0.00000  0.15248
      17     C     3.15147  3.15147  0.00000 -0.30294
      18     H     0.42327  0.42327  0.00000  0.15347
      19     H     0.42429  0.42429  0.00000  0.15142
      20     C     3.23935  3.23935  0.00000 -0.47870
      21     H     0.42257  0.42257  0.00000  0.15486
      22     H     0.42344  0.42344  0.00000  0.15313
      23     H     0.41913  0.41913  0.00000  0.16174
      24     H     0.42152  0.42152  0.00000  0.15697
      25     H     0.42197  0.42197  0.00000  0.15606
      26     C     3.09454  3.09454  0.00000 -0.18908
      27     H     0.40335  0.40335  0.00000  0.19331
      28     H     0.40437  0.40437  0.00000  0.19125
      29     H     0.41947  0.41947  0.00000  0.16107

   Total alpha = 44.00000, Total beta = 44.00000, Total charge =  0.00000
