                              Psi4 1.0.54 Driver

  ==> Input File <==

--------------------------------------------------------------------------
set {
	reference rhf
	basis cc-pvtz
}

set_num_threads( 4 )
memory 2 gb

molecule MOL {
0 1

O	 1.310591	 1.006454	 0.806472
C	 0.860843	 0.273204	 -0.013120
C	 -0.623368	 -0.117453	 -0.005652
C	 1.764940	 -0.298088	 -1.087483
C	 -0.892588	 -1.253841	 -1.002900
C	 -1.473463	 1.100646	 -0.372896
C	 -0.981836	 -0.579025	 1.418506
H	 -0.609333	 -0.970024	 -2.010649
H	 -1.950451	 -1.487353	 -1.013175
H	 -0.360848	 -2.161259	 -0.746463
H	 -1.232203	 1.461623	 -1.364827
H	 -2.524364	 0.834451	 -0.354500
H	 -1.312381	 1.914833	 0.318657
H	 -2.035706	 -0.826342	 1.468082
H	 -0.425078	 -1.458934	 1.716857
H	 -0.788494	 0.205047	 2.140903
H	 1.612100	 0.250521	 -2.010214
H	 2.791496	 -0.176268	 -0.777948
H	 1.561206	 -1.340463	 -1.290412

	symmetry c1
}
set optking {
	frozen_dihedral = ("
		1 2 3 5
	")
}

ee,wfn = optimize('scf', return_wfn=True)
oeprop( wfn, 'DIPOLE', 'QUADRUPOLE', 'MULLIKEN_CHARGES')
f=open( 'psi4out.xyz', 'w' )
f.write( "19  " )
f.write( str(ee) + "\n" )
f.write( MOL.save_string_xyz() )
f.close()
--------------------------------------------------------------------------

    Molecular point group: c1
  Charge       = 0
  Multiplicity = 1
  Basis Set: CC-PVTZ
  Basis Set:
  @DF-RHF Final Energy:  -309.17059645868505
    Total Energy =                       -309.1705964586851110
    Molecular point group: c1
  Basis Set: CC-PVTZ
  Basis Set:
  Basis Set: CC-PVTZ
  Basis Set:
  @DF-RHF Final Energy:  -309.17099543091683
    Total Energy =                       -309.1709954309170598
  Basis Set: CC-PVTZ
  Basis Set:
  Basis Set: CC-PVTZ
  Basis Set:
  @DF-RHF Final Energy:  -309.17247631569512
    Total Energy =                       -309.1724763156952349
  Basis Set: CC-PVTZ
  Basis Set:
  Basis Set: CC-PVTZ
  Basis Set:
  @DF-RHF Final Energy:  -309.17281574095551
    Total Energy =                       -309.1728157409554001
  Basis Set: CC-PVTZ
  Basis Set:
  @DF-RHF Final Energy:  -309.17285114561668
    Total Energy =                       -309.1728511456167325
  @DF-RHF Final Energy:  -309.17295598952171
    Total Energy =                       -309.1729559895218244
  @DF-RHF Final Energy:  -309.17299197563386
    Total Energy =                       -309.1729919756339768
  @DF-RHF Final Energy:  -309.17301915268240
    Total Energy =                       -309.1730191526824001
  @DF-RHF Final Energy:  -309.17307783675068
    Total Energy =                       -309.1730778367505081
  @DF-RHF Final Energy:  -309.17308037277104
    Total Energy =                       -309.1730803727709826
  Basis Set: CC-PVTZ
  Basis Set:
  @DF-RHF Final Energy:  -309.17313117704526
    Total Energy =                       -309.1731311770451498
  Basis Set: CC-PVTZ
  Basis Set:
  Basis Set: CC-PVTZ
  Basis Set:
  @DF-RHF Final Energy:  -309.17313341295329
    Total Energy =                       -309.1731334129533479
  Basis Set: CC-PVTZ
  Basis Set:
  Basis Set: CC-PVTZ
  Basis Set:
  @DF-RHF Final Energy:  -309.17313828365184
    Total Energy =                       -309.1731382836517241
  Basis Set: CC-PVTZ
  Basis Set:
  Charge       = 0
  Multiplicity = 1
  Basis Set: CC-PVTZ
  Basis Set:

    Orbital Energies (a.u.)
    -----------------------

    Doubly Occupied:

       1A    -20.536350     2A    -11.318503     3A    -11.245514
       4A    -11.226097     5A    -11.219965     6A    -11.217259
       7A    -11.211341     8A     -1.398282     9A     -1.109140
      10A     -1.004703    11A     -0.943264    12A     -0.939248
      13A     -0.834093    14A     -0.705679    15A     -0.666876
      16A     -0.633703    17A     -0.623982    18A     -0.589458
      19A     -0.586816    20A     -0.573031    21A     -0.552264
      22A     -0.546753    23A     -0.523701    24A     -0.514876
      25A     -0.503069    26A     -0.472854    27A     -0.462887
      28A     -0.393784

  @DF-RHF Final Energy:  -309.17313886690107

   => Energetics <=

    Nuclear Repulsion Energy =            326.8178566785196040
    One-Electron Energy =               -1066.8750073557516771
    Two-Electron Energy =                 430.8840118103310033
    DFT Exchange-Correlation Energy =       0.0000000000000000
    Empirical Dispersion Energy =           0.0000000000000000
    PCM Polarization Energy =               0.0000000000000000
    EFP Energy =                            0.0000000000000000
    Total Energy =                       -309.1731388669011267
    Molecular point group: c1
  Basis Set: CC-PVTZ
  Basis Set:

  -Total Gradient:
     Atom            X                  Y                   Z
    ------   -----------------  -----------------  -----------------
       1       -0.000303818027     0.000829506044    -0.000649358304
       2        0.000317615861    -0.000937164205     0.000658915942
       3        0.000159348818    -0.000435011294     0.000560158838
       4       -0.000009172405     0.000014899279    -0.000002438118
       5       -0.000209987325     0.000529879690    -0.000579269224
       6        0.000010180881    -0.000012043540     0.000005413681
       7        0.000003315836     0.000012525417    -0.000005819522
       8       -0.000000692606    -0.000001253528    -0.000002506662
       9        0.000002133044     0.000002102529    -0.000002366202
      10        0.000000687112     0.000002069381     0.000003195430
      11        0.000000351663    -0.000002316318    -0.000005158432
      12        0.000008998796    -0.000009009896     0.000009804636
      13        0.000013763046     0.000009675240    -0.000001600249
      14       -0.000003767395     0.000000050216     0.000003437848
      15       -0.000001333040    -0.000001854130    -0.000004661712
      16       -0.000001328835     0.000000306971     0.000000823424
      17       -0.000001280309     0.000010637959    -0.000005030635
      18        0.000009557585     0.000008081208     0.000005780561
      19        0.000005427299    -0.000021081021     0.000010678702

  **** Optimization is complete! (in 14 steps) ****
    Final optimized geometry and variables:
    Molecular point group: c1

    Geometry (in Angstrom), charge = 0, multiplicity = 1:

    O            1.275668744423     1.041431148845     0.800987083461
    C            0.861184324705     0.281149999504    -0.013269618465
    C           -0.601006101994    -0.195565278925     0.061507415368
    C            1.753730156369    -0.173679759046    -1.146420995196
    C           -0.918394455005    -1.347199913161    -0.898698428513
    C           -1.472118855928     1.020581990917    -0.297836151861
    C           -0.893560872045    -0.632211165222     1.502507759439
    H           -0.760480235727    -1.074739746354    -1.934716039610
    H           -1.959295687034    -1.628521010314    -0.793103887250
    H           -0.322451364908    -2.227395066156    -0.686460575791
    H           -1.273089278293     1.367474288243    -1.306747956601
    H           -2.521495581215     0.754860795817    -0.241797524702
    H           -1.286575678312     1.839676186825     0.383008098780
    H           -1.935840980246    -0.914112594510     1.600216894198
    H           -0.290000817959    -1.488985117227     1.782687841517
    H           -0.683637133185     0.166607122452     2.198053877447
    H            1.321017255007     0.094073271628    -2.103289516523
    H            2.717911721769     0.298604854545    -1.040953868248
    H            1.871795703022    -1.250264852770    -1.136434639301

  Mulliken Charges: (a.u.)
   Center  Symbol    Alpha    Beta     Spin     Total
       1     O     4.18139  4.18139  0.00000 -0.36278
       2     C     2.84626  2.84626  0.00000  0.30749
       3     C     3.00572  3.00572  0.00000 -0.01144
       4     C     3.16303  3.16303  0.00000 -0.32606
       5     C     3.16557  3.16557  0.00000 -0.33113
       6     C     3.15356  3.15356  0.00000 -0.30713
       7     C     3.15349  3.15349  0.00000 -0.30698
       8     H     0.44569  0.44569  0.00000  0.10862
       9     H     0.44253  0.44253  0.00000  0.11495
      10     H     0.44539  0.44539  0.00000  0.10921
      11     H     0.44966  0.44966  0.00000  0.10068
      12     H     0.44901  0.44901  0.00000  0.10199
      13     H     0.43705  0.43705  0.00000  0.12590
      14     H     0.45081  0.45081  0.00000  0.09839
      15     H     0.45024  0.45024  0.00000  0.09953
      16     H     0.43492  0.43492  0.00000  0.13016
      17     H     0.44688  0.44688  0.00000  0.10623
      18     H     0.43171  0.43171  0.00000  0.13658
      19     H     0.44710  0.44710  0.00000  0.10580

   Total alpha = 28.00000, Total beta = 28.00000, Total charge = -0.00000

*** Psi4 exiting successfully. Buy a developer a beer!
