  ==> Input File <==

--------------------------------------------------------------------------
set {
	reference rhf
	basis cc-pvtz
}

set_num_threads( 4 )
memory 2 gb

molecule MOL {
0 1

H	 -1.875448	 0.780214	 -0.853968
N	 -1.851927	 0.161443	 -0.071573
C	 -0.561396	 -0.500007	 0.035200
H	 -2.584443	 -0.504943	 -0.200745
C	 0.575129	 0.507849	 -0.048832
H	 -0.478089	 -1.200753	 -0.788956
H	 -0.456191	 -1.081816	 0.952176
C	 1.951750	 -0.141983	 0.035101
H	 0.478254	 1.061643	 -0.975981
H	 0.467676	 1.231891	 0.755499
H	 2.101550	 -0.848142	 -0.774949
H	 2.738260	 0.600794	 -0.026526
H	 2.078939	 -0.679792	 0.968824

	symmetry c1
}
set optking {
	frozen_dihedral = ("
		1 2 3 6
	")
}

ee = optimize('scf')
oeprop('DIPOLE', 'QUADRUPOLE', 'MULLIKEN_CHARGES')
f=open( 'psi4out.xyz', 'w' )
f.write( "13  " )
f.write( str(ee) + "\n" )
f.write( MOL.save_string_xyz() )
f.close()
--------------------------------------------------------------------------

    Molecular point group: c1
  Charge       = 0
  Multiplicity = 1
  Basis Set: CC-PVTZ
  Basis Set:
  @DF-RHF Final Energy:  -173.35035016344335
    Total Energy =                       -173.3503501634432382
    Molecular point group: c1
  Basis Set: CC-PVTZ
  Basis Set:
  Basis Set: CC-PVTZ
  Basis Set:
  @DF-RHF Final Energy:  -173.35209640182728
    Total Energy =                       -173.3520964018273673
  Basis Set: CC-PVTZ
  Basis Set:
  Basis Set: CC-PVTZ
  Basis Set:
  @DF-RHF Final Energy:  -173.35231886212557
    Total Energy =                       -173.3523188621255713
  Basis Set: CC-PVTZ
  Basis Set:
  Basis Set: CC-PVTZ
  Basis Set:
  @DF-RHF Final Energy:  -173.35232227454642
    Total Energy =                       -173.3523222745465091
  Basis Set: CC-PVTZ
  Basis Set:
  Charge       = 0
  Multiplicity = 1
  Basis Set: CC-PVTZ
  Basis Set:

    Orbital Energies (a.u.)
    -----------------------

    Doubly Occupied:

       1A    -15.525800     2A    -11.238037     3A    -11.212262
       4A    -11.207903     5A     -1.178025     6A     -1.037092
       7A     -0.899540     8A     -0.802135     9A     -0.658284
      10A     -0.636754    11A     -0.604544    12A     -0.563775
      13A     -0.535357    14A     -0.493718    15A     -0.476717
      16A     -0.470172    17A     -0.382989

  @DF-RHF Final Energy:  -173.35232283820122

   => Energetics <=

    Nuclear Repulsion Energy =            132.0579316219685495
    One-Electron Energy =                -494.9742964993182568
    Two-Electron Energy =                 189.5640420391483758
    DFT Exchange-Correlation Energy =       0.0000000000000000
    Empirical Dispersion Energy =           0.0000000000000000
    PCM Polarization Energy =               0.0000000000000000
    EFP Energy =                            0.0000000000000000
    Total Energy =                       -173.3523228382013031
    Molecular point group: c1
  Basis Set: CC-PVTZ
  Basis Set:

  -Total Gradient:
     Atom            X                  Y                   Z
    ------   -----------------  -----------------  -----------------
       1        0.000583473543     0.001158971972     0.000877982341
       2       -0.000908802463    -0.001735169357    -0.000829245082
       3        0.000947610742     0.001631322226    -0.000929276561
       4       -0.000003096132    -0.000009996792    -0.000010821729
       5       -0.000040284747    -0.000019379346     0.000016943075
       6       -0.000581630988    -0.001017911820     0.000858845207
       7        0.000002534882     0.000021143693     0.000009660737
       8        0.000013988376    -0.000002482281     0.000002902070
       9       -0.000014964702    -0.000019292665     0.000009072251
      10       -0.000004440986    -0.000011394099    -0.000002096542
      11       -0.000005932640     0.000002398898     0.000001159226
      12        0.000011879437    -0.000001426185    -0.000002224058
      13       -0.000000334322     0.000003215755    -0.000002900935

  **** Optimization is complete! (in 5 steps) ****
    Final optimized geometry and variables:
    Molecular point group: c1

    Geometry (in Angstrom), charge = 0, multiplicity = 1:

    H           -1.912133157639     0.777404948652    -0.807197079990
    N           -1.853411079204     0.163746091465    -0.022020997685
    C           -0.562268446681    -0.502311826520     0.025853385453
    H           -2.602224291415    -0.491288684124    -0.091260409369
    C            0.573740522741     0.507083078637    -0.025246248301
    H           -0.432604140520    -1.236510212967    -0.770683948004
    H           -0.505692573129    -1.052558883989     0.959872023671
    C            1.949447913430    -0.142273337767     0.073920815096
    H            0.507158380078     1.070900076703    -0.952932638120
    H            0.439213112576     1.220632103145     0.780379535706
    H            2.115011694649    -0.842163940661    -0.738359163363
    H            2.735829304073     0.602053074219     0.032746149189
    H            2.059046019694    -0.686400253374     1.006011425804

  Mulliken Charges: (a.u.)
   Center  Symbol    Alpha    Beta     Spin     Total
       1     H     0.43052  0.43052  0.00000  0.13895
       2     N     3.69098  3.69098  0.00000 -0.38196
       3     C     3.01794  3.01794  0.00000 -0.03588
       4     H     0.42981  0.42981  0.00000  0.14038
       5     C     3.08071  3.08071  0.00000 -0.16142
       6     H     0.47061  0.47061  0.00000  0.05878
       7     H     0.45896  0.45896  0.00000  0.08208
       8     C     3.15228  3.15228  0.00000 -0.30456
       9     H     0.46065  0.46065  0.00000  0.07871
      10     H     0.44861  0.44861  0.00000  0.10277
      11     H     0.45664  0.45664  0.00000  0.08672
      12     H     0.44780  0.44780  0.00000  0.10441
      13     H     0.45450  0.45450  0.00000  0.09101

   Total alpha = 17.00000, Total beta = 17.00000, Total charge =  0.00000
