  ==> Input File <==

--------------------------------------------------------------------------
set {
	reference rhf
	basis 6-31G*
}

set_num_threads( 4 )
memory 2 gb

molecule MOL {
0 1

O	 -0.682937	 1.318834	 -0.186099
C	 -0.860635	 0.152188	 -0.042321
C	 -2.173363	 -0.477127	 0.338347
O	 0.083258	 -0.765189	 -0.202595
H	 -2.477673	 -1.180929	 -0.427595
H	 -2.923125	 0.290956	 0.455536
H	 -2.058825	 -1.029004	 1.264191
C	 1.391937	 -0.334737	 -0.569838
C	 1.610931	 -0.435624	 -2.068007
H	 2.121962	 -0.915360	 -0.026624
H	 1.441868	 0.692817	 -0.239476
H	 2.585142	 -0.030994	 -2.324750
H	 1.574469	 -1.467282	 -2.394688
H	 0.855467	 0.129729	 -2.602859

	symmetry c1
}
set optking {
	frozen_dihedral = ("
		10 8 4 2
	")
}

ee = optimize('scf')
oeprop('DIPOLE', 'QUADRUPOLE', 'MULLIKEN_CHARGES')
f=open( 'psi4out.xyz', 'w' )
f.write( "14  " )
f.write( str(ee) + "\n" )
f.write( MOL.save_string_xyz() )
f.close()
--------------------------------------------------------------------------

    Molecular point group: c1
  Charge       = 0
  Multiplicity = 1
  Basis Set: 6-31G*
  Basis Set:
  @DF-RHF Final Energy:  -305.87320908097382
    Total Energy =                       -305.8732090809737656
    Molecular point group: c1
  Basis Set: 6-31G*
  Basis Set:
  Basis Set: 6-31G*
  Basis Set:
  @DF-RHF Final Energy:  -305.87458880984013
    Total Energy =                       -305.8745888098400201
  Basis Set: 6-31G*
  Basis Set:
  Basis Set: 6-31G*
  Basis Set:
  @DF-RHF Final Energy:  -305.87453347429090
    Total Energy =                       -305.8745334742909563
  Basis Set: 6-31G*
  Basis Set:
  Basis Set: 6-31G*
  Basis Set:
  @DF-RHF Final Energy:  -305.87492601091549
    Total Energy =                       -305.8749260109158286
  Basis Set: 6-31G*
  Basis Set:
  Basis Set: 6-31G*
  Basis Set:
  @DF-RHF Final Energy:  -305.87494171352972
    Total Energy =                       -305.8749417135296653
  Basis Set: 6-31G*
  Basis Set:
  Charge       = 0
  Multiplicity = 1
  Basis Set: 6-31G*
  Basis Set:

    Orbital Energies (a.u.)
    -----------------------

    Doubly Occupied:

       1A    -20.601465     2A    -20.544331     3A    -11.376234
       4A    -11.284241     5A    -11.233166     6A    -11.220581
       7A     -1.466719     8A     -1.362999     9A     -1.055901
      10A     -0.999165    11A     -0.880602    12A     -0.769464
      13A     -0.698642    14A     -0.682043    15A     -0.656468
      16A     -0.611302    17A     -0.585056    18A     -0.569271
      19A     -0.560795    20A     -0.528146    21A     -0.518548
      22A     -0.494289    23A     -0.449119    24A     -0.439861

  @DF-RHF Final Energy:  -305.87494381595616

   => Energetics <=

    Nuclear Repulsion Energy =            247.5971316906433231
    One-Electron Energy =                -907.7673361113284045
    Two-Electron Energy =                 354.2952606047288100
    DFT Exchange-Correlation Energy =       0.0000000000000000
    Empirical Dispersion Energy =           0.0000000000000000
    PCM Polarization Energy =               0.0000000000000000
    EFP Energy =                            0.0000000000000000
    Total Energy =                       -305.8749438159562715
    Molecular point group: c1
  Basis Set: 6-31G*
  Basis Set:

  -Total Gradient:
     Atom            X                  Y                   Z
    ------   -----------------  -----------------  -----------------
       1        0.000034276036    -0.000021574310    -0.000008906828
       2        0.000300295939     0.000071086324     0.001301800338
       3       -0.000023823729     0.000001892122     0.000006431856
       4       -0.000453733640     0.000077326485    -0.001656397611
       5        0.000000915822     0.000003291073     0.000002948249
       6       -0.000010213568    -0.000002870143     0.000002626102
       7       -0.000001430821     0.000000473445    -0.000002772202
       8        0.000170739615    -0.001121567217    -0.000770561707
       9        0.000006141376    -0.000003514233     0.000017931947
      10       -0.000046052480     0.000978233623     0.001109143051
      11        0.000017142680     0.000014571221    -0.000001361755
      12        0.000003034778    -0.000000386855    -0.000005839581
      13        0.000003234592     0.000003893639    -0.000001145255
      14       -0.000000526601    -0.000000855176     0.000006103397

  **** Optimization is complete! (in 6 steps) ****
    Final optimized geometry and variables:
    Molecular point group: c1

    Geometry (in Angstrom), charge = 0, multiplicity = 1:

    O           -0.623200111380     1.409676168248     0.272884126153
    C           -0.769277977672     0.238988475383     0.416434168327
    C           -2.060727808525    -0.422368190440     0.815531045634
    O            0.191882882062    -0.658609675770     0.241168171804
    H           -2.359327494325    -1.131594291776     0.052285415889
    H           -2.827022859200     0.327167350770     0.945227647180
    H           -1.919195030043    -0.973406441001     1.738059882940
    C            1.500726013836    -0.212867240954    -0.107244102069
    C            1.730329825565    -0.355325387577    -1.599303737531
    H            2.174768102276    -0.838490438474     0.461091431034
    H            1.624888444443     0.809473817548     0.211971660052
    H            2.748915041852    -0.073124139206    -1.847017101325
    H            1.571455117855    -1.379720122518    -1.917183442251
    H            1.055601828534     0.288567132011    -2.152044480927

  Mulliken Charges: (a.u.)
   Center  Symbol    Alpha    Beta     Spin     Total
       1     O     4.28388  4.28388  0.00000 -0.56776
       2     C     2.61997  2.61997  0.00000  0.76006
       3     C     3.28188  3.28188  0.00000 -0.56376
       4     O     4.30758  4.30758  0.00000 -0.61517
       5     H     0.40044  0.40044  0.00000  0.19912
       6     H     0.39711  0.39711  0.00000  0.20579
       7     H     0.40038  0.40038  0.00000  0.19924
       8     C     3.01064  3.01064  0.00000 -0.02127
       9     C     3.25013  3.25013  0.00000 -0.50026
      10     H     0.41138  0.41138  0.00000  0.17725
      11     H     0.39765  0.39765  0.00000  0.20471
      12     H     0.41747  0.41747  0.00000  0.16507
      13     H     0.41314  0.41314  0.00000  0.17371
      14     H     0.40837  0.40837  0.00000  0.18326

   Total alpha = 24.00000, Total beta = 24.00000, Total charge =  0.00000
