  ==> Input File <==

--------------------------------------------------------------------------
set {
	reference rhf
	basis 6-31G*
}

set_num_threads( 4 )
memory 2 gb

molecule MOL {
0 1

H	 2.740166	 0.016990	 -0.432265
N	 1.762132	 0.228464	 -0.441740
C	 1.228324	 0.221682	 0.907969
C	 1.050065	 -0.701608	 -1.298850
H	 1.776080	 0.941605	 1.506670
H	 1.319309	 -0.755350	 1.388354
C	 -0.242355	 0.608481	 0.864128
H	 1.468731	 -0.650313	 -2.298278
H	 1.130254	 -1.734561	 -0.952124
C	 -0.420503	 -0.314238	 -1.341324
H	 -0.328769	 1.645032	 0.524727
H	 -0.662756	 0.551416	 1.862904
N	 -0.975995	 -0.298722	 0.000000
H	 -0.969557	 -1.037659	 -1.935250
H	 -0.518853	 0.660495	 -1.828481
C	 -2.393863	 -0.024976	 0.000000
H	 -2.854032	 -0.467193	 -0.876721
H	 -2.854032	 -0.467193	 0.876721
H	 -2.623281	 1.044943	 0.000000

	symmetry c1
}
set optking {
	frozen_dihedral = ("
		7 13 16 19
	")
}

ee = optimize('scf')
oeprop('DIPOLE', 'QUADRUPOLE', 'MULLIKEN_CHARGES')
f=open( 'psi4out.xyz', 'w' )
f.write( "19  " )
f.write( str(ee) + "\n" )
f.write( MOL.save_string_xyz() )
f.close()
--------------------------------------------------------------------------

    Molecular point group: c1
  Charge       = 0
  Multiplicity = 1
  Basis Set: 6-31G*
  Basis Set:
  @DF-RHF Final Energy:  -305.19747350814720
    Total Energy =                       -305.1974735081469134
    Molecular point group: c1
  Basis Set: 6-31G*
  Basis Set:
  Basis Set: 6-31G*
  Basis Set:
  @DF-RHF Final Energy:  -305.19765790824675
    Total Energy =                       -305.1976579082469243
  Basis Set: 6-31G*
  Basis Set:
  Basis Set: 6-31G*
  Basis Set:
  @DF-RHF Final Energy:  -305.19767985528580
    Total Energy =                       -305.1976798552859691
  Basis Set: 6-31G*
  Basis Set:
  Charge       = 0
  Multiplicity = 1
  Basis Set: 6-31G*
  Basis Set:

    Orbital Energies (a.u.)
    -----------------------

    Doubly Occupied:

       1A    -15.541171     2A    -15.536403     3A    -11.238441
       4A    -11.238354     5A    -11.237117     6A    -11.237101
       7A    -11.234885     8A     -1.246733     9A     -1.185153
      10A     -1.022481    11A     -0.964296    12A     -0.860171
      13A     -0.857561    14A     -0.757797    15A     -0.691003
      16A     -0.632271    17A     -0.625728    18A     -0.607868
      19A     -0.603030    20A     -0.579192    21A     -0.543493
      22A     -0.529997    23A     -0.512780    24A     -0.489803
      25A     -0.465358    26A     -0.456182    27A     -0.363061
      28A     -0.346142

  @DF-RHF Final Energy:  -305.19768102590854

   => Energetics <=

    Nuclear Repulsion Energy =            339.7711239662083926
    One-Electron Energy =               -1086.7304609142101981
    Two-Electron Energy =                 441.7616559220931549
    DFT Exchange-Correlation Energy =       0.0000000000000000
    Empirical Dispersion Energy =           0.0000000000000000
    PCM Polarization Energy =               0.0000000000000000
    EFP Energy =                            0.0000000000000000
    Total Energy =                       -305.1976810259086506
    Molecular point group: c1
  Basis Set: 6-31G*
  Basis Set:

  -Total Gradient:
     Atom            X                  Y                   Z
    ------   -----------------  -----------------  -----------------
       1       -0.000022228444    -0.000003210475     0.000004239017
       2       -0.000018879159     0.000003975059     0.000005856797
       3        0.000025908162    -0.000031388487     0.000023735367
       4        0.000056558348     0.000021471494    -0.000029935221
       5       -0.000005783559    -0.000001553340    -0.000004089691
       6        0.000018870130    -0.000009936847     0.000005256253
       7        0.000425283158     0.002226969984    -0.002819284286
       8        0.000032956496    -0.000001350426    -0.000007826247
       9       -0.000016237555     0.000017524080    -0.000003289936
      10       -0.000032156010    -0.000044749741     0.000107645063
      11       -0.000016908336     0.000026912461     0.000002920692
      12        0.000015455686     0.000006129092     0.000001684029
      13       -0.000642979987    -0.003037335147     0.005098489550
      14       -0.000012888358     0.000006287990     0.000000338833
      15        0.000011759727    -0.000008853337     0.000001597396
      16        0.000155003877     0.000812003679    -0.007251238581
      17        0.000025315292    -0.000016820331     0.000000994210
      18       -0.000013658336    -0.000001302895     0.000031746014
      19        0.000014608871     0.000035227185     0.004831160742

  **** Optimization is complete! (in 4 steps) ****
    Final optimized geometry and variables:
    Molecular point group: c1

    Geometry (in Angstrom), charge = 0, multiplicity = 1:

    H            2.750800325834     0.050528443755    -0.233883486224
    N            1.773823813323     0.266452179080    -0.247915946643
    C            1.232120833091     0.258877594285     1.098471213698
    C            1.062004576307    -0.657203534049    -1.111996990265
    H            1.773587576840     0.981417055473     1.699877809259
    H            1.322895649910    -0.717031306929     1.580982731014
    C           -0.238932656265     0.641491768368     1.043524338233
    H            1.483939027000    -0.601704772381    -2.109940902325
    H            1.138463090049    -1.692185440404    -0.770563621354
    C           -0.408418345793    -0.269011918292    -1.157644457970
    H           -0.327821121415     1.673423503179     0.692341540643
    H           -0.663739975307     0.594885326890     2.041592974870
    N           -0.970527579297    -0.273150588293     0.184039116458
    H           -0.950967659400    -0.987000440574    -1.763250433716
    H           -0.503105538888     0.710845083472    -1.634656384133
    C           -2.390993498513     0.012574531952     0.191751661599
    H           -2.875315485817    -0.450238641604    -0.658770504128
    H           -2.840371827730    -0.395059015699     1.092842242543
    H           -2.608354084138     1.083212412996     0.187658721165

  Mulliken Charges: (a.u.)
   Center  Symbol    Alpha    Beta     Spin     Total
       1     H     0.32956  0.32956  0.00000  0.34088
       2     N     3.85427  3.85427  0.00000 -0.70854
       3     C     3.06288  3.06288  0.00000 -0.12577
       4     C     3.06331  3.06331  0.00000 -0.12662
       5     H     0.41765  0.41765  0.00000  0.16469
       6     H     0.42748  0.42748  0.00000  0.14505
       7     C     3.05753  3.05753  0.00000 -0.11506
       8     H     0.41770  0.41770  0.00000  0.16461
       9     H     0.42756  0.42756  0.00000  0.14488
      10     C     3.05688  3.05688  0.00000 -0.11377
      11     H     0.42708  0.42708  0.00000  0.14584
      12     H     0.41829  0.41829  0.00000  0.16342
      13     N     3.78696  3.78696  0.00000 -0.57393
      14     H     0.41849  0.41849  0.00000  0.16301
      15     H     0.42796  0.42796  0.00000  0.14407
      16     C     3.14070  3.14070  0.00000 -0.28140
      17     H     0.41813  0.41813  0.00000  0.16374
      18     H     0.41625  0.41625  0.00000  0.16749
      19     H     0.43129  0.43129  0.00000  0.13741

   Total alpha = 28.00000, Total beta = 28.00000, Total charge =  0.00000
