                              Psi4 1.0.54 Driver

  ==> Input File <==

--------------------------------------------------------------------------
set {
	reference rhf
	basis cc-pvtz
}

set_num_threads( 4 )
memory 2 gb

molecule MOL {
0 1

H	 -2.698799	 -0.000846	 0.036018
C	 -1.694291	 -0.000483	 0.434279
O	 -0.828718	 -0.000608	 -0.655022
H	 -1.576855	 0.881100	 1.056504
H	 -1.576401	 -0.881658	 1.057001
C	 -1.356145	 -0.215020	 -1.940994
C	 -1.967163	 -1.602756	 -2.099479
C	 -2.311738	 0.891150	 -2.373982
H	 -0.482248	 -0.164443	 -2.578461
H	 -1.277733	 -2.360562	 -1.748087
H	 -2.178788	 -1.793838	 -3.145160
H	 -2.898105	 -1.705484	 -1.554157
H	 -1.861253	 1.862851	 -2.213037
H	 -2.535994	 0.790681	 -3.429628
H	 -3.251762	 0.854656	 -1.835870

	symmetry c1
}
set optking {
	frozen_dihedral = ("
		6 3 2 1
	")
}

ee,wfn = optimize('scf', return_wfn=True)
oeprop( wfn, 'DIPOLE', 'QUADRUPOLE', 'MULLIKEN_CHARGES')
f=open( 'psi4out.xyz', 'w' )
f.write( "15  " )
f.write( str(ee) + "\n" )
f.write( MOL.save_string_xyz() )
f.close()
--------------------------------------------------------------------------

    Molecular point group: c1
  Charge       = 0
  Multiplicity = 1
  Basis Set: CC-PVTZ
  Basis Set:
  @DF-RHF Final Energy:  -232.22177315513824
    Total Energy =                       -232.2217731551382940
    Molecular point group: c1
  Basis Set: CC-PVTZ
  Basis Set:
  Basis Set: CC-PVTZ
  Basis Set:
  @DF-RHF Final Energy:  -232.22325409818217
    Total Energy =                       -232.2232540981822808
  Basis Set: CC-PVTZ
  Basis Set:
  Basis Set: CC-PVTZ
  Basis Set:
  @DF-RHF Final Energy:  -232.22398705596032
    Total Energy =                       -232.2239870559603219
  Basis Set: CC-PVTZ
  Basis Set:
  Basis Set: CC-PVTZ
  Basis Set:
  @DF-RHF Final Energy:  -232.22400367697873
    Total Energy =                       -232.2240036769788389
  Basis Set: CC-PVTZ
  Basis Set:
  Basis Set: CC-PVTZ
  Basis Set:
  @DF-RHF Final Energy:  -232.22401073184679
    Total Energy =                       -232.2240107318468745
  Basis Set: CC-PVTZ
  Basis Set:
  Basis Set: CC-PVTZ
  Basis Set:
  @DF-RHF Final Energy:  -232.22400903163549
    Total Energy =                       -232.2240090316356600
  Basis Set: CC-PVTZ
  Basis Set:
  Charge       = 0
  Multiplicity = 1
  Basis Set: CC-PVTZ
  Basis Set:

    Orbital Energies (a.u.)
    -----------------------

    Doubly Occupied:

       1A    -20.539491     2A    -11.273245     3A    -11.258923
       4A    -11.208826     5A    -11.208385     6A     -1.371213
       7A     -1.051016     8A     -0.940383     9A     -0.931730
      10A     -0.781816    11A     -0.677172    12A     -0.640359
      13A     -0.633680    14A     -0.570389    15A     -0.563637
      16A     -0.552468    17A     -0.538010    18A     -0.501280
      19A     -0.498576    20A     -0.443517    21A     -0.406003

  @DF-RHF Final Energy:  -232.22401120464431

   => Energetics <=

    Nuclear Repulsion Energy =            198.8805410781313583
    One-Electron Energy =                -709.0288680899928977
    Two-Electron Energy =                 277.9243158072175675
    DFT Exchange-Correlation Energy =       0.0000000000000000
    Empirical Dispersion Energy =           0.0000000000000000
    PCM Polarization Energy =               0.0000000000000000
    EFP Energy =                            0.0000000000000000
    Total Energy =                       -232.2240112046439435
    Molecular point group: c1
  Basis Set: CC-PVTZ
  Basis Set:

  -Total Gradient:
     Atom            X                  Y                   Z
    ------   -----------------  -----------------  -----------------
       1        0.000038304686    -0.001062497820     0.000017640768
       2       -0.000083876849     0.001805655526    -0.000107816969
       3        0.000207367816    -0.001581984894     0.000189441208
       4       -0.000004718313     0.000002996789     0.000005348176
       5       -0.000005304610    -0.000003064419     0.000005120447
       6       -0.000143173161     0.000845662634    -0.000091582617
       7       -0.000008822725    -0.000004603353    -0.000008119164
       8       -0.000003870661    -0.000001694504    -0.000005922954
       9       -0.000004914875    -0.000001009202    -0.000002935557
      10       -0.000001963946     0.000002460587     0.000000295659
      11        0.000000768422    -0.000002211135    -0.000000857400
      12        0.000005277051     0.000001154633    -0.000001813297
      13       -0.000001678924    -0.000001166387     0.000000948653
      14        0.000001404385     0.000001626519     0.000001249060
      15        0.000005201707    -0.000001324975    -0.000000996013

  **** Optimization is complete! (in 7 steps) ****
    Final optimized geometry and variables:
    Molecular point group: c1

    Geometry (in Angstrom), charge = 0, multiplicity = 1:

    H           -1.070640092243     0.159592249548     1.488940167868
    C           -0.019645144159     0.204150466327     1.744271891370
    O            0.816022933154     0.214672848407     0.626651952748
    H            0.151808636684     1.104664807578     2.320744475065
    H            0.205579799665    -0.652576119804     2.370849425183
    C            0.272773049130    -0.042658909884    -0.644084703159
    C           -0.337051217450    -1.436167964603    -0.744202469345
    C           -0.684115131020     1.053806366686    -1.098228051482
    H            1.137319794815    -0.013739418315    -1.295528839158
    H            0.376798227511    -2.181798601563    -0.416301183540
    H           -0.607557425348    -1.651881951594    -1.771459993625
    H           -1.232958002534    -1.533415801181    -0.141619962770
    H           -0.211587672412     2.023642486288    -1.004032698832
    H           -0.953048252709     0.904638559801    -2.137775962246
    H           -1.601688966602     1.063721645950    -0.521472465103

  Mulliken Charges: (a.u.)
   Center  Symbol    Alpha    Beta     Spin     Total
       1     H     0.46940  0.46940  0.00000  0.06121
       2     C     3.03850  3.03850  0.00000 -0.07700
       3     O     4.18759  4.18759  0.00000 -0.37518
       4     H     0.45036  0.45036  0.00000  0.09927
       5     H     0.45697  0.45697  0.00000  0.08606
       6     C     2.93946  2.93946  0.00000  0.12107
       7     C     3.15494  3.15494  0.00000 -0.30988
       8     C     3.15477  3.15477  0.00000 -0.30954
       9     H     0.44606  0.44606  0.00000  0.10789
      10     H     0.44498  0.44498  0.00000  0.11004
      11     H     0.45021  0.45021  0.00000  0.09958
      12     H     0.45572  0.45572  0.00000  0.08855
      13     H     0.44483  0.44483  0.00000  0.11034
      14     H     0.45084  0.45084  0.00000  0.09832
      15     H     0.45537  0.45537  0.00000  0.08926

   Total alpha = 21.00000, Total beta = 21.00000, Total charge =  0.00000

*** Psi4 exiting successfully. Buy a developer a beer!
