  ==> Input File <==

--------------------------------------------------------------------------
set {
	reference rhf
	basis 6-31G*
}

set_num_threads( 4 )
memory 2 gb

molecule MOL {
0 1

O	 1.694389	 -0.470537	 -0.437342
C	 0.861134	 0.272526	 -0.014869
C	 -0.623889	 -0.118271	 -0.003699
C	 1.268707	 1.634626	 0.518586
C	 -0.895332	 -1.256461	 -1.002431
C	 -1.473649	 1.103340	 -0.370799
C	 -0.983900	 -0.581483	 1.422328
H	 -0.615301	 -0.972064	 -2.012700
H	 -1.954261	 -1.493213	 -1.010207
H	 -0.360539	 -2.164946	 -0.747760
H	 -1.227476	 1.468527	 -1.361691
H	 -2.526716	 0.838935	 -0.358521
H	 -1.314819	 1.915855	 0.325860
H	 -2.039679	 -0.828001	 1.472951
H	 -0.427637	 -1.464071	 1.720694
H	 -0.789023	 0.202493	 2.147048
H	 1.292309	 1.605599	 1.603971
H	 2.262232	 1.864490	 0.159160
H	 0.582542	 2.420941	 0.228572

	symmetry c1
}
set optking {
	frozen_dihedral = ("
		1 2 3 5
	")
}

ee = optimize('scf')
oeprop('DIPOLE', 'QUADRUPOLE', 'MULLIKEN_CHARGES')
f=open( 'psi4out.xyz', 'w' )
f.write( "19  " )
f.write( str(ee) + "\n" )
f.write( MOL.save_string_xyz() )
f.close()
--------------------------------------------------------------------------

    Molecular point group: c1
  Charge       = 0
  Multiplicity = 1
  Basis Set: 6-31G*
  Basis Set:
  @DF-RHF Final Energy:  -309.05960258770074
    Total Energy =                       -309.0596025877009652
    Molecular point group: c1
  Basis Set: 6-31G*
  Basis Set:
  Basis Set: 6-31G*
  Basis Set:
  @DF-RHF Final Energy:  -309.05990814067553
    Total Energy =                       -309.0599081406752475
  Basis Set: 6-31G*
  Basis Set:
  Basis Set: 6-31G*
  Basis Set:
  @DF-RHF Final Energy:  -309.06156422128475
    Total Energy =                       -309.0615642212846410
  Basis Set: 6-31G*
  Basis Set:
  Basis Set: 6-31G*
  Basis Set:
  @DF-RHF Final Energy:  -309.06194005597399
    Total Energy =                       -309.0619400559741621
  Basis Set: 6-31G*
  Basis Set:
  @DF-RHF Final Energy:  -309.06211973605292
    Total Energy =                       -309.0621197360530346
  @DF-RHF Final Energy:  -309.06226495672990
    Total Energy =                       -309.0622649567303597
  @DF-RHF Final Energy:  -309.06242282453110
    Total Energy =                       -309.0624228245309268
  @DF-RHF Final Energy:  -309.06256585499881
    Total Energy =                       -309.0625658549986952
  @DF-RHF Final Energy:  -309.06269763706968
    Total Energy =                       -309.0626976370697321
  @DF-RHF Final Energy:  -309.06298510868083
    Total Energy =                       -309.0629851086807776
  Basis Set: 6-31G*
  Basis Set:
  @DF-RHF Final Energy:  -309.06304239052946
    Total Energy =                       -309.0630423905294606
  Basis Set: 6-31G*
  Basis Set:
  Basis Set: 6-31G*
  Basis Set:
  @DF-RHF Final Energy:  -309.06302958705578
    Total Energy =                       -309.0630295870556097
  Basis Set: 6-31G*
  Basis Set:
  Basis Set: 6-31G*
  Basis Set:
  @DF-RHF Final Energy:  -309.06307795459088
    Total Energy =                       -309.0630779545907671
  Basis Set: 6-31G*
  Basis Set:
  Charge       = 0
  Multiplicity = 1
  Basis Set: 6-31G*
  Basis Set:

    Orbital Energies (a.u.)
    -----------------------

    Doubly Occupied:

       1A    -20.548249     2A    -11.322864     3A    -11.246425
       4A    -11.226923     5A    -11.224397     6A    -11.223793
       7A    -11.208744     8A     -1.394600     9A     -1.109587
      10A     -1.002220    11A     -0.946514    12A     -0.935096
      13A     -0.834919    14A     -0.703651    15A     -0.664509
      16A     -0.631693    17A     -0.620334    18A     -0.596082
      19A     -0.591141    20A     -0.565864    21A     -0.546194
      22A     -0.545207    23A     -0.524533    24A     -0.512691
      25A     -0.499201    26A     -0.471607    27A     -0.465316
      28A     -0.392414

  @DF-RHF Final Energy:  -309.06307815350988

   => Energetics <=

    Nuclear Repulsion Energy =            326.3052511720674147
    One-Electron Energy =               -1065.6271201754398135
    Two-Electron Energy =                 430.2587908498625211
    DFT Exchange-Correlation Energy =       0.0000000000000000
    Empirical Dispersion Energy =           0.0000000000000000
    PCM Polarization Energy =               0.0000000000000000
    EFP Energy =                            0.0000000000000000
    Total Energy =                       -309.0630781535098777
    Molecular point group: c1
  Basis Set: 6-31G*
  Basis Set:

  -Total Gradient:
     Atom            X                  Y                   Z
    ------   -----------------  -----------------  -----------------
       1        0.000063625864    -0.000206782864     0.000393876335
       2       -0.000006933205     0.000292275780    -0.000560360304
       3        0.000084161536    -0.000335255252     0.000424640036
       4       -0.000039325120     0.000026274730    -0.000093909993
       5       -0.000072724965     0.000202195454    -0.000209716889
       6        0.000014103644    -0.000019588101     0.000000749932
       7       -0.000005051112    -0.000015012905     0.000005678448
       8        0.000005754680     0.000009009585    -0.000007866558
       9       -0.000006225210     0.000013729548    -0.000005441283
      10       -0.000001159572     0.000021840236     0.000004626059
      11       -0.000007020980    -0.000006403046    -0.000002467609
      12       -0.000006949792     0.000000200144    -0.000002543861
      13        0.000020446949     0.000014575402     0.000025327119
      14        0.000003901080    -0.000001657596     0.000003496485
      15       -0.000001152370    -0.000006979234    -0.000005395626
      16       -0.000000913762    -0.000001627688    -0.000006683225
      17       -0.000017658107     0.000020069189     0.000021279852
      18       -0.000015057323    -0.000022592387     0.000001268201
      19       -0.000011822236     0.000015729005     0.000013442883

  **** Optimization is complete! (in 14 steps) ****
    Final optimized geometry and variables:
    Molecular point group: c1

    Geometry (in Angstrom), charge = 0, multiplicity = 1:

    O            1.693469392479    -0.558803405601    -0.512226633969
    C            0.881512727215     0.190992184948    -0.060882847385
    C           -0.606203202227    -0.188354984403    -0.008329175181
    C            1.320892925904     1.532120806207     0.498017475799
    C           -0.878266154239    -1.315150466978    -1.011667391172
    C           -1.502571321470     1.018057105192    -0.334012746885
    C           -0.906036416745    -0.687489341553     1.419521627830
    H           -0.661636476500    -0.996676641946    -2.025725901991
    H           -1.922777327203    -1.608412519520    -0.965336087923
    H           -0.267051872879    -2.182678015833    -0.802748302486
    H           -1.286495027730     1.418544990295    -1.320404324890
    H           -2.543956540181     0.713404085826    -0.325881188105
    H           -1.393157732612     1.820958996121     0.386693655147
    H           -1.944254120403    -0.995629901271     1.491964492254
    H           -0.284408942941    -1.540427614491     1.670727674518
    H           -0.740564601316     0.083564210830     2.165412594577
    H            0.845280691291     1.760365012776     1.444816026412
    H            2.394729657979     1.520824311307     0.622038088376
    H            1.058239328477     2.323935562691    -0.197079369841

  Mulliken Charges: (a.u.)
   Center  Symbol    Alpha    Beta     Spin     Total
       1     O     4.26455  4.26455  0.00000 -0.52911
       2     C     2.72511  2.72511  0.00000  0.54977
       3     C     3.06839  3.06839  0.00000 -0.13678
       4     C     3.28964  3.28964  0.00000 -0.57927
       5     C     3.22759  3.22759  0.00000 -0.45518
       6     C     3.24152  3.24152  0.00000 -0.48305
       7     C     3.24099  3.24099  0.00000 -0.48197
       8     H     0.41635  0.41635  0.00000  0.16731
       9     H     0.42328  0.42328  0.00000  0.15344
      10     H     0.40516  0.40516  0.00000  0.18969
      11     H     0.41579  0.41579  0.00000  0.16843
      12     H     0.41360  0.41360  0.00000  0.17279
      13     H     0.41728  0.41728  0.00000  0.16544
      14     H     0.41312  0.41312  0.00000  0.17376
      15     H     0.40864  0.40864  0.00000  0.18271
      16     H     0.41875  0.41875  0.00000  0.16251
      17     H     0.41006  0.41006  0.00000  0.17987
      18     H     0.39586  0.39586  0.00000  0.20828
      19     H     0.40432  0.40432  0.00000  0.19137

   Total alpha = 28.00000, Total beta = 28.00000, Total charge = -0.00000
