  ==> Input File <==

--------------------------------------------------------------------------
set {
	reference rhf
	basis 6-31G*
}

set_num_threads( 4 )
memory 2 gb

molecule MOL {
0 1

H	 -3.301617	 0.570527	 0.000000
C	 -2.250981	 0.344174	 0.000000
C	 -1.813665	 -0.976045	 0.000000
C	 -1.315303	 1.358057	 0.000000
H	 -2.528860	 -1.779366	 0.000000
C	 -0.467298	 -1.270142	 0.000000
H	 -1.635074	 2.385107	 0.000000
C	 0.047081	 1.078114	 0.000000
H	 -0.115948	 -2.285222	 0.000000
C	 0.472063	 -0.241155	 0.000000
H	 0.749976	 1.888426	 0.000000
O	 1.765256	 -0.628444	 0.000000
C	 2.549293	 -0.429893	 -1.140586
H	 2.152915	 -0.969992	 -1.994113
H	 3.530217	 -0.813766	 -0.903435
H	 2.630079	 0.623302	 -1.388754

	symmetry c1
}
set optking {
	frozen_dihedral = ("
		13 12 10 8
	")
}

ee = optimize('scf')
oeprop('DIPOLE', 'QUADRUPOLE', 'MULLIKEN_CHARGES')
f=open( 'psi4out.xyz', 'w' )
f.write( "16  " )
f.write( str(ee) + "\n" )
f.write( MOL.save_string_xyz() )
f.close()
--------------------------------------------------------------------------

    Molecular point group: c1
  Charge       = 0
  Multiplicity = 1
  Basis Set: 6-31G*
  Basis Set:
  @DF-RHF Final Energy:  -344.57878758112236
    Total Energy =                       -344.5787875811220715
    Molecular point group: c1
  Basis Set: 6-31G*
  Basis Set:
  Basis Set: 6-31G*
  Basis Set:
  @DF-RHF Final Energy:  -344.58018979368836
    Total Energy =                       -344.5801897936884757
  Basis Set: 6-31G*
  Basis Set:
  Basis Set: 6-31G*
  Basis Set:
  @DF-RHF Final Energy:  -344.58036052476336
    Total Energy =                       -344.5803605247632504
  Basis Set: 6-31G*
  Basis Set:
  Basis Set: 6-31G*
  Basis Set:
  @DF-RHF Final Energy:  -344.58038340575769
    Total Energy =                       -344.5803834057576864
  Basis Set: 6-31G*
  Basis Set:
  Basis Set: 6-31G*
  Basis Set:
  @DF-RHF Final Energy:  -344.58038637830566
    Total Energy =                       -344.5803863783055476
  Basis Set: 6-31G*
  Basis Set:
  Charge       = 0
  Multiplicity = 1
  Basis Set: 6-31G*
  Basis Set:

    Orbital Energies (a.u.)
    -----------------------

    Doubly Occupied:

       1A    -20.572664     2A    -11.286414     3A    -11.275590
       4A    -11.233708     5A    -11.232840     6A    -11.226301
       7A    -11.225707     8A    -11.223998     9A     -1.400976
      10A     -1.147515    11A     -1.017549    12A     -1.014692
      13A     -0.933933    14A     -0.834227    15A     -0.806204
      16A     -0.714470    17A     -0.666236    18A     -0.662414
      19A     -0.636977    20A     -0.612800    21A     -0.596144
      22A     -0.584422    23A     -0.529866    24A     -0.506921
      25A     -0.504861    26A     -0.482933    27A     -0.438330
      28A     -0.335146    29A     -0.319097

  @DF-RHF Final Energy:  -344.58038681250900

   => Energetics <=

    Nuclear Repulsion Energy =            348.0261630317257868
    One-Electron Energy =               -1157.1672253262408958
    Two-Electron Energy =                 464.5606754820063315
    DFT Exchange-Correlation Energy =       0.0000000000000000
    Empirical Dispersion Energy =           0.0000000000000000
    PCM Polarization Energy =               0.0000000000000000
    EFP Energy =                            0.0000000000000000
    Total Energy =                       -344.5803868125087774
    Molecular point group: c1
  Basis Set: 6-31G*
  Basis Set:

  -Total Gradient:
     Atom            X                  Y                   Z
    ------   -----------------  -----------------  -----------------
       1       -0.000000001237    -0.000010508382    -0.000002284585
       2       -0.000006161388     0.000022819681    -0.000030323886
       3       -0.000005659300    -0.000013547458     0.000017867830
       4       -0.000001411122    -0.000033364435     0.000036013722
       5       -0.000018480748     0.000002064951    -0.000001246424
       6        0.000015405837    -0.000062917483    -0.000001668380
       7        0.000005887871     0.000003025396    -0.000001909915
       8        0.000059534072    -0.000028186241    -0.000416440819
       9       -0.000005452969     0.000021719859    -0.000007281833
      10       -0.000064525736     0.000279483547     0.000692190280
      11        0.000001443745    -0.000000444041    -0.000013758701
      12       -0.000082815358    -0.000539515500    -0.000365045941
      13        0.000097612349     0.000362551340     0.000072388112
      14        0.000006236747     0.000000083218     0.000009064655
      15       -0.000005232593    -0.000001537838     0.000003920231
      16        0.000003619825    -0.000001726615     0.000008515653

  **** Optimization is complete! (in 6 steps) ****
    Final optimized geometry and variables:
    Molecular point group: c1

    Geometry (in Angstrom), charge = 0, multiplicity = 1:

    H           -3.250578494230     0.715726995608     0.145378555494
    C           -2.204627945806     0.467361563454     0.149221293366
    C           -1.801502373321    -0.857995159718     0.172994282279
    C           -1.248880732729     1.471259776169     0.137341167718
    H           -2.535651359836    -1.643818968284     0.187381987794
    C           -0.454089014606    -1.180782212811     0.175907102502
    H           -1.552542545343     2.502972304400     0.128222477532
    C            0.099969678722     1.157216698182     0.146445202064
    H           -0.125641339804    -2.203598853387     0.197434400159
    C            0.495059628157    -0.172076823190     0.162590251874
    H            0.842960163035     1.933901308458     0.157343971617
    O            1.813134851478    -0.514354150831     0.200719011254
    C            2.557000697626    -0.258579071334    -0.963107594819
    H            2.142428808563    -0.791421539174    -1.813045661052
    H            3.560974989176    -0.609900125655    -0.773711722908
    H            2.588879085875     0.800818217342    -1.192994594586

  Mulliken Charges: (a.u.)
   Center  Symbol    Alpha    Beta     Spin     Total
       1     H     0.39999  0.39999  0.00000  0.20003
       2     C     3.10640  3.10640  0.00000 -0.21280
       3     C     3.09647  3.09647  0.00000 -0.19293
       4     C     3.09609  3.09609  0.00000 -0.19218
       5     H     0.39833  0.39833  0.00000  0.20333
       6     C     3.12129  3.12129  0.00000 -0.24259
       7     H     0.39859  0.39859  0.00000  0.20281
       8     C     3.12338  3.12338  0.00000 -0.24675
       9     H     0.39359  0.39359  0.00000  0.21281
      10     C     2.79898  2.79898  0.00000  0.40203
      11     H     0.39604  0.39604  0.00000  0.20792
      12     O     4.33211  4.33211  0.00000 -0.66422
      13     C     3.08280  3.08280  0.00000 -0.16559
      14     H     0.42188  0.42188  0.00000  0.15625
      15     H     0.40989  0.40989  0.00000  0.18021
      16     H     0.42416  0.42416  0.00000  0.15167

   Total alpha = 29.00000, Total beta = 29.00000, Total charge = -0.00000
