  ==> Input File <==

--------------------------------------------------------------------------
set {
	reference rhf
	basis 6-31G*
}

set_num_threads( 4 )
memory 2 gb

molecule MOL {
0 1

H	 0.208662	 -3.478264	 -0.044560
O	 0.709245	 -2.691056	 0.146426
C	 -0.091181	 -1.639730	 -0.028071
C	 0.624473	 -0.343591	 0.253101
O	 -1.224125	 -1.757791	 -0.364992
C	 -0.265902	 0.883932	 0.072916
H	 1.023885	 -0.413995	 1.259524
H	 1.487475	 -0.302978	 -0.406694
C	 -1.728698	 0.646073	 0.462102
H	 -0.209144	 1.219470	 -0.958188
H	 0.135059	 1.692851	 0.673903
C	 -2.482460	 -0.343073	 -0.431425
H	 -2.245265	 1.602650	 0.432430
H	 -1.779332	 0.308348	 1.496285
C	 -3.960546	 -0.461025	 -0.060175
H	 -2.395034	 -0.026811	 -1.468912
H	 -2.024850	 -1.327147	 -0.371646
H	 -4.472726	 -1.168004	 -0.705284
H	 -4.465146	 0.496508	 -0.151489
H	 -4.081218	 -0.800940	 0.964585

	symmetry c1
}
set optking {
	frozen_dihedral = ("
		7 4 6 10
	")
}

ee = optimize('scf')
oeprop('DIPOLE', 'QUADRUPOLE', 'MULLIKEN_CHARGES')
f=open( 'psi4out.xyz', 'w' )
f.write( "20  " )
f.write( str(ee) + "\n" )
f.write( MOL.save_string_xyz() )
f.close()
--------------------------------------------------------------------------

    Molecular point group: c1
  Charge       = 0
  Multiplicity = 1
  Basis Set: 6-31G*
  Basis Set:
  @DF-RHF Final Energy:  -383.64075502285414
    Total Energy =                       -383.6407550228541368
    Molecular point group: c1
  Basis Set: 6-31G*
  Basis Set:
  Basis Set: 6-31G*
  Basis Set:
  @DF-RHF Final Energy:  -383.80802188853914
    Total Energy =                       -383.8080218885393151
  Basis Set: 6-31G*
  Basis Set:
  Basis Set: 6-31G*
  Basis Set:
  @DF-RHF Final Energy:  -383.85864707008841
    Total Energy =                       -383.8586470700884092
  Basis Set: 6-31G*
  Basis Set:
  Basis Set: 6-31G*
  Basis Set:
  @DF-RHF Final Energy:  -383.90316736923273
    Total Energy =                       -383.9031673692326194
  Basis Set: 6-31G*
  Basis Set:
  @DF-RHF Final Energy:  -383.92159301709921
    Total Energy =                       -383.9215930170990987
  @DF-RHF Final Energy:  -383.92962026477966
    Total Energy =                       -383.9296202647797145
  @DF-RHF Final Energy:  -383.93440474225855
    Total Energy =                       -383.9344047422584936
  @DF-RHF Final Energy:  -383.93616203105063
    Total Energy =                       -383.9361620310509124
  @DF-RHF Final Energy:  -383.93722176917430
    Total Energy =                       -383.9372217691746982
  @DF-RHF Final Energy:  -383.93795493085179
    Total Energy =                       -383.9379549308516744
  @DF-RHF Final Energy:  -383.93854853911591
    Total Energy =                       -383.9385485391162547
  @DF-RHF Final Energy:  -383.93902617377171
    Total Energy =                       -383.9390261737712535
  @DF-RHF Final Energy:  -383.93942298546636
    Total Energy =                       -383.9394229854664218
  @DF-RHF Final Energy:  -383.93974100049280
    Total Energy =                       -383.9397410004927451
  @DF-RHF Final Energy:  -383.94016396752534
    Total Energy =                       -383.9401639675249953
  @DF-RHF Final Energy:  -383.94027623830851
    Total Energy =                       -383.9402762383085701
  @DF-RHF Final Energy:  -383.94041635341358
    Total Energy =                       -383.9404163534136387
  @DF-RHF Final Energy:  -383.94047634708437
    Total Energy =                       -383.9404763470843136
  @DF-RHF Final Energy:  -383.94054273360962
    Total Energy =                       -383.9405427336095045
  @DF-RHF Final Energy:  -383.94056997701199
    Total Energy =                       -383.9405699770117053
  @DF-RHF Final Energy:  -383.94057934354993
    Total Energy =                       -383.9405793435500982
  @DF-RHF Final Energy:  -383.94058578462455
    Total Energy =                       -383.9405857846246590
  @DF-RHF Final Energy:  -383.94059773692999
    Total Energy =                       -383.9405977369299308
  @DF-RHF Final Energy:  -383.94060051851994
    Total Energy =                       -383.9406005185197728
  @DF-RHF Final Energy:  -383.94058997426254
    Total Energy =                       -383.9405899742627071
  @DF-RHF Final Energy:  -383.94060831534239
    Total Energy =                       -383.9406083153423879
  @DF-RHF Final Energy:  -383.94061488280414
    Total Energy =                       -383.9406148828041978
  @DF-RHF Final Energy:  -383.94049512816821
    Total Energy =                       -383.9404951281679814
  @DF-RHF Final Energy:  -383.94018143472863
    Total Energy =                       -383.9401814347285153
  @DF-RHF Final Energy:  -383.94061881520071
    Total Energy =                       -383.9406188152008781
  @DF-RHF Final Energy:  -383.94062644313573
    Total Energy =                       -383.9406264431357840
  Basis Set: 6-31G*
  Basis Set:
  @DF-RHF Final Energy:  -383.94063155173268
    Total Energy =                       -383.9406315517326220
  Basis Set: 6-31G*
  Basis Set:
  Basis Set: 6-31G*
  Basis Set:
  @DF-RHF Final Energy:  -383.94063256036947
    Total Energy =                       -383.9406325603694086
  Basis Set: 6-31G*
  Basis Set:
  Basis Set: 6-31G*
  Basis Set:
  @DF-RHF Final Energy:  -383.94063403053400
    Total Energy =                       -383.9406340305340564
  Basis Set: 6-31G*
  Basis Set:
  Charge       = 0
  Multiplicity = 1
  Basis Set: 6-31G*
  Basis Set:

    Orbital Energies (a.u.)
    -----------------------

    Doubly Occupied:

       1A    -20.615261     2A    -20.551713     3A    -11.383336
       4A    -11.241574     5A    -11.227189     6A    -11.215475
       7A    -11.205918     8A    -11.202362     9A     -1.476818
      10A     -1.366731    11A     -1.088938    12A     -1.036474
      13A     -0.954110    14A     -0.871336    15A     -0.807603
      16A     -0.779350    17A     -0.703747    18A     -0.688056
      19A     -0.658948    20A     -0.627872    21A     -0.600048
      22A     -0.589447    23A     -0.559197    24A     -0.553381
      25A     -0.552751    26A     -0.498789    27A     -0.495949
      28A     -0.480214    29A     -0.464491    30A     -0.459497
      31A     -0.451886    32A     -0.437412

  @DF-RHF Final Energy:  -383.94063385935181

   => Energetics <=

    Nuclear Repulsion Energy =            388.2373099181055522
    One-Electron Energy =               -1292.6641415063049863
    Two-Electron Energy =                 520.4861977288477419
    DFT Exchange-Correlation Energy =       0.0000000000000000
    Empirical Dispersion Energy =           0.0000000000000000
    PCM Polarization Energy =               0.0000000000000000
    EFP Energy =                            0.0000000000000000
    Total Energy =                       -383.9406338593516921
    Molecular point group: c1
  Basis Set: 6-31G*
  Basis Set:

  -Total Gradient:
     Atom            X                  Y                   Z
    ------   -----------------  -----------------  -----------------
       1       -0.000000883192    -0.000000314317     0.000000604825
       2       -0.000130610351     0.000028903269     0.000116058996
       3        0.000183034840    -0.000020666605     0.000176270437
       4       -0.005056684770    -0.003497263956     0.003508106650
       5        0.000150579740    -0.000054675108    -0.000141670063
       6       -0.003855020268    -0.004898685390    -0.000990045150
       7        0.004655649293     0.003478129468    -0.002871760006
       8       -0.000026112343     0.000152833408    -0.000039651173
       9       -0.000094967356     0.000239377837    -0.000116949325
      10        0.004094868946     0.004691708995     0.000326504444
      11        0.000070454164    -0.000026940440     0.000004271554
      12        0.000049132666    -0.000140927341     0.000023762414
      13        0.000003096991     0.000010362094     0.000007111334
      14       -0.000014063291     0.000007572469    -0.000010285455
      15       -0.000010341535    -0.000003295956     0.000001250525
      16        0.000005929290    -0.000002688247     0.000017448807
      17       -0.000025629894     0.000035776989    -0.000007644107
      18       -0.000003390546     0.000001053974     0.000000508736
      19        0.000000109167    -0.000000277282     0.000001671494
      20        0.000004848446     0.000000016137    -0.000005564937

  **** Optimization is complete! (in 35 steps) ****
    Final optimized geometry and variables:
    Molecular point group: c1

    Geometry (in Angstrom), charge = 0, multiplicity = 1:

    H            1.733485153950    -2.670324690947     0.759842832174
    O            1.981770184080    -1.761947196972     0.902795144069
    C            1.277191835053    -1.005164828445     0.064779833772
    C            1.655778249978     0.448575868906     0.156843109776
    O            0.483066788458    -1.470291208328    -0.687992455360
    C            0.556664222794     1.460317728108    -0.202855161832
    H            2.095554206685     0.661044896800     1.123460979671
    H            2.479850526113     0.567073988941    -0.545769654757
    C           -0.845491472907     1.202121547721     0.391036933001
    H            0.514372548651     1.576050080323    -1.280577252613
    H            0.920435595492     2.419842400756     0.153951080000
    C           -1.912131162270     0.878965326623    -0.658244972513
    H           -1.162128916879     2.078770352074     0.950224582466
    H           -0.803877025082     0.392162483738     1.115176812983
    C           -3.285236233495     0.617942892849    -0.041243900277
    H           -1.983786417627     1.711826216202    -1.355470944491
    H           -1.597063725414     0.015686949732    -1.232609387888
    H           -4.025007752821     0.406081320788    -0.807098314571
    H           -3.634258778568     1.476373996386     0.526776809329
    H           -3.255519419800    -0.234047599091     0.632237551962

  Mulliken Charges: (a.u.)
   Center  Symbol    Alpha    Beta     Spin     Total
       1     H     0.26794  0.26794  0.00000  0.46413
       2     O     4.34930  4.34930  0.00000 -0.69859
       3     C     2.62130  2.62130  0.00000  0.75741
       4     C     3.21590  3.21590  0.00000 -0.43179
       5     O     4.28170  4.28170  0.00000 -0.56341
       6     C     3.15417  3.15417  0.00000 -0.30835
       7     H     0.39741  0.39741  0.00000  0.20518
       8     H     0.39679  0.39679  0.00000  0.20643
       9     C     3.15708  3.15708  0.00000 -0.31416
      10     H     0.41016  0.41016  0.00000  0.17967
      11     H     0.41568  0.41568  0.00000  0.16864
      12     C     3.15615  3.15615  0.00000 -0.31230
      13     H     0.42064  0.42064  0.00000  0.15871
      14     H     0.42180  0.42180  0.00000  0.15640
      15     C     3.24084  3.24084  0.00000 -0.48169
      16     H     0.42673  0.42673  0.00000  0.14654
      17     H     0.40104  0.40104  0.00000  0.19793
      18     H     0.41941  0.41941  0.00000  0.16118
      19     H     0.42465  0.42465  0.00000  0.15069
      20     H     0.42131  0.42131  0.00000  0.15738

   Total alpha = 32.00000, Total beta = 32.00000, Total charge =  0.00000
