  ==> Input File <==

--------------------------------------------------------------------------
set {
	reference rhf
	basis 6-31G*
}

set_num_threads( 4 )
memory 2 gb

molecule MOL {
0 1

H	 -3.261111	 -0.295142	 1.469456
C	 -3.306842	 -0.277400	 0.373456
C	 -2.660244	 0.921717	 -0.272021
O	 -3.838538	 -1.161155	 -0.216482
C	 -1.618517	 0.530748	 -1.329473
H	 -3.440115	 1.545975	 -0.692513
H	 -2.171253	 1.486792	 0.520591
C	 -2.223387	 -0.151400	 -2.559150
H	 -1.088776	 1.427048	 -1.638186
H	 -0.872384	 -0.121197	 -0.877799
C	 -1.175357	 -0.524976	 -3.609335
H	 -2.964217	 0.509491	 -3.004393
H	 -2.762655	 -1.047017	 -2.256496
C	 -1.785557	 -1.192402	 -4.844709
H	 -0.633210	 0.371296	 -3.900033
H	 -0.441989	 -1.195972	 -3.164002
C	 -0.765070	 -1.659406	 -5.889020
H	 -2.490297	 -0.507143	 -5.313169
H	 -2.368339	 -2.052980	 -4.523021
C	 0.006759	 -0.529804	 -6.573050
H	 -1.290149	 -2.232120	 -6.649441
H	 -0.062276	 -2.347304	 -5.423403
H	 -0.671879	 0.183061	 -7.034073
H	 0.634328	 0.014422	 -5.875232
H	 0.652532	 -0.922021	 -7.352882

	symmetry c1
}
set optking {
	frozen_dihedral = ("
		6 3 2 4
	")
}

ee = optimize('scf')
oeprop('DIPOLE', 'QUADRUPOLE', 'MULLIKEN_CHARGES')
f=open( 'psi4out.xyz', 'w' )
f.write( "25  " )
f.write( str(ee) + "\n" )
f.write( MOL.save_string_xyz() )
f.close()
--------------------------------------------------------------------------

    Molecular point group: c1
  Charge       = 0
  Multiplicity = 1
  Basis Set: 6-31G*
  Basis Set:
  @DF-RHF Final Energy:  -387.11800895969498
    Total Energy =                       -387.1180089596949756
    Molecular point group: c1
  Basis Set: 6-31G*
  Basis Set:
  Basis Set: 6-31G*
  Basis Set:
  @DF-RHF Final Energy:  -387.11929264328421
    Total Energy =                       -387.1192926432839840
  Basis Set: 6-31G*
  Basis Set:
  Basis Set: 6-31G*
  Basis Set:
  @DF-RHF Final Energy:  -387.11931925180335
    Total Energy =                       -387.1193192518030628
  Basis Set: 6-31G*
  Basis Set:
  Basis Set: 6-31G*
  Basis Set:
  @DF-RHF Final Energy:  -387.11917541270674
    Total Energy =                       -387.1191754127073636
  Basis Set: 6-31G*
  Basis Set:
  @DF-RHF Final Energy:  -387.11944240914590
    Total Energy =                       -387.1194424091453357
  Basis Set: 6-31G*
  Basis Set:
  @DF-RHF Final Energy:  -387.11943934266571
    Total Energy =                       -387.1194393426650322
  Basis Set: 6-31G*
  Basis Set:
  Basis Set: 6-31G*
  Basis Set:
  @DF-RHF Final Energy:  -387.11944268749409
    Total Energy =                       -387.1194426874940291
  Basis Set: 6-31G*
  Basis Set:
  Basis Set: 6-31G*
  Basis Set:
  @DF-RHF Final Energy:  -387.11944992540447
    Total Energy =                       -387.1194499254040693
  Basis Set: 6-31G*
  Basis Set:
  Charge       = 0
  Multiplicity = 1
  Basis Set: 6-31G*
  Basis Set:

    Orbital Energies (a.u.)
    -----------------------

    Doubly Occupied:

       1A    -20.564108     2A    -11.328977     3A    -11.236470
       4A    -11.228959     5A    -11.212923     6A    -11.211590
       7A    -11.210514     8A    -11.210326     9A    -11.206597
      10A     -1.404254    11A     -1.094693    12A     -1.063110
      13A     -1.008509    14A     -0.940261    15A     -0.873821
      16A     -0.812755    17A     -0.779562    18A     -0.771537
      19A     -0.681963    20A     -0.656069    21A     -0.628557
      22A     -0.612080    23A     -0.597615    24A     -0.589366
      25A     -0.563136    26A     -0.553414    27A     -0.536628
      28A     -0.513081    29A     -0.504738    30A     -0.496590
      31A     -0.480995    32A     -0.472758    33A     -0.457801
      34A     -0.452736    35A     -0.436434    36A     -0.405849

  @DF-RHF Final Energy:  -387.11944954616820

   => Energetics <=

    Nuclear Repulsion Energy =            442.9580624777182720
    One-Electron Energy =               -1402.5574675123270936
    Two-Electron Energy =                 572.4799554884401687
    DFT Exchange-Correlation Energy =       0.0000000000000000
    Empirical Dispersion Energy =           0.0000000000000000
    PCM Polarization Energy =               0.0000000000000000
    EFP Energy =                            0.0000000000000000
    Total Energy =                       -387.1194495461686529
    Molecular point group: c1
  Basis Set: 6-31G*
  Basis Set:

  -Total Gradient:
     Atom            X                  Y                   Z
    ------   -----------------  -----------------  -----------------
       1        0.000003928884     0.000062979359    -0.000021130249
       2        0.001346320296    -0.000650936843    -0.000111508836
       3       -0.000515898739     0.000734103464     0.000781419130
       4       -0.000850351968     0.000425515052    -0.000112233264
       5        0.000000526717    -0.000023481847     0.000066565963
       6        0.000006812076    -0.000550135048    -0.000701159786
       7        0.000045030100    -0.000020194601    -0.000015351764
       8       -0.000006610118     0.000161501712     0.000022954037
       9        0.000002238630     0.000020830838     0.000034584308
      10        0.000012287031    -0.000038346529    -0.000017007222
      11        0.000035635310    -0.000032710820     0.000041288385
      12       -0.000022490257    -0.000007412510     0.000014382711
      13       -0.000028984092    -0.000082189468     0.000007221487
      14       -0.000018849866     0.000017303752    -0.000008401197
      15       -0.000058238016    -0.000003270051     0.000048270687
      16        0.000035178532    -0.000001154086    -0.000022082384
      17        0.000014237191    -0.000027704120     0.000019010797
      18       -0.000001515704     0.000002577124    -0.000015885807
      19       -0.000008566485     0.000015495843     0.000006701231
      20       -0.000003063851     0.000005932003    -0.000000012277
      21        0.000000454495     0.000009349201     0.000006243842
      22        0.000009261348    -0.000015296195    -0.000011362670
      23        0.000001103723    -0.000000975715    -0.000005983062
      24        0.000001382572    -0.000000204832    -0.000014021019
      25        0.000000172191    -0.000001575682     0.000007496953

  **** Optimization is complete! (in 9 steps) ****
    Final optimized geometry and variables:
    Molecular point group: c1

    Geometry (in Angstrom), charge = 0, multiplicity = 1:

    H           -1.305087872611     0.321789389219     4.357999808474
    C           -1.333059795751     0.210601163993     3.268460452093
    C           -0.761894049381     1.364943382055     2.472763643515
    O           -1.810512949265    -0.767808680819     2.790038761097
    C            0.266399821788     0.951717299443     1.404963817122
    H           -1.597816613200     1.872938243248     1.995647126977
    H           -0.314651446651     2.070542156371     3.165928001449
    C           -0.337244966127     0.300520159225     0.158487027231
    H            0.811348471971     1.844918647957     1.110216745285
    H            0.999019037664     0.282549529327     1.850629360995
    C            0.722756053798    -0.065615289900    -0.882671793556
    H           -1.054547999124     0.989183813802    -0.286066992174
    H           -0.894600687840    -0.583848467116     0.443014897104
    C            0.121053802885    -0.697217734366    -2.141010153462
    H            1.287066277848     0.825648233143    -1.146710318683
    H            1.435836953830    -0.760222366860    -0.440663348510
    C            1.149229369806    -1.178684026278    -3.171067228556
    H           -0.553103328889     0.015119689714    -2.614365972889
    H           -0.493335955512    -1.544346640718    -1.844210892506
    C            1.971807564092    -0.062927151051    -3.818249179333
    H            0.624293549056    -1.722340452824    -3.952754860771
    H            1.819538220195    -1.895877686537    -2.701598878091
    H            1.326752331103     0.676005366669    -4.286333192781
    H            2.596184305039     0.452942182194    -3.096303796107
    H            2.626305157236    -0.462662858536    -4.586824585788

  Mulliken Charges: (a.u.)
   Center  Symbol    Alpha    Beta     Spin     Total
       1     H     0.42684  0.42684  0.00000  0.14632
       2     C     2.84320  2.84320  0.00000  0.31361
       3     C     3.20663  3.20663  0.00000 -0.41326
       4     O     4.23551  4.23551  0.00000 -0.47102
       5     C     3.15555  3.15555  0.00000 -0.31110
       6     H     0.40071  0.40071  0.00000  0.19858
       7     H     0.41346  0.41346  0.00000  0.17307
       8     C     3.15713  3.15713  0.00000 -0.31425
       9     H     0.41727  0.41727  0.00000  0.16546
      10     H     0.41787  0.41787  0.00000  0.16426
      11     C     3.15524  3.15524  0.00000 -0.31049
      12     H     0.42606  0.42606  0.00000  0.14787
      13     H     0.39913  0.39913  0.00000  0.20174
      14     C     3.15269  3.15269  0.00000 -0.30537
      15     H     0.42382  0.42382  0.00000  0.15235
      16     H     0.42385  0.42385  0.00000  0.15230
      17     C     3.15238  3.15238  0.00000 -0.30477
      18     H     0.42477  0.42477  0.00000  0.15046
      19     H     0.41965  0.41965  0.00000  0.16071
      20     C     3.24098  3.24098  0.00000 -0.48197
      21     H     0.42101  0.42101  0.00000  0.15798
      22     H     0.42331  0.42331  0.00000  0.15338
      23     H     0.42269  0.42269  0.00000  0.15462
      24     H     0.42066  0.42066  0.00000  0.15869
      25     H     0.41959  0.41959  0.00000  0.16081

   Total alpha = 36.00000, Total beta = 36.00000, Total charge = -0.00000
