                              Psi4 1.0.54 Driver

  ==> Input File <==

--------------------------------------------------------------------------
set {
	reference rhf
	basis cc-pvtz
}

set_num_threads( 4 )
memory 2 gb

molecule MOL {
0 1

H	 -0.000342	 -0.223902	 -3.352295
C	 -0.027146	 0.371068	 -2.446756
C	 0.024493	 -0.518541	 -1.216015
H	 -0.932586	 0.964979	 -2.449855
H	 0.819708	 1.049865	 -2.473332
N	 -0.042516	 0.263377	 0.000000
H	 -0.822211	 -1.197105	 -1.225584
H	 0.921114	 -1.142847	 -1.255206
C	 0.024493	 -0.518541	 1.216015
H	 0.682568	 0.950412	 0.000000
C	 1.067331	 0.036766	 2.171482
H	 -0.951473	 -0.487103	 1.689250
H	 0.237374	 -1.572209	 1.016797
H	 0.847468	 1.068001	 2.418009
H	 1.094143	 -0.540228	 3.088580
H	 2.058791	 0.001005	 1.730617

	symmetry c1
}
set optking {
	frozen_dihedral = ("
		12 9 6 3
	")
}

ee,wfn = optimize('scf', return_wfn=True)
oeprop( wfn, 'DIPOLE', 'QUADRUPOLE', 'MULLIKEN_CHARGES')
f=open( 'psi4out.xyz', 'w' )
f.write( "16  " )
f.write( str(ee) + "\n" )
f.write( MOL.save_string_xyz() )
f.close()
--------------------------------------------------------------------------

    Molecular point group: c1
  Charge       = 0
  Multiplicity = 1
  Basis Set: CC-PVTZ
  Basis Set:
  @DF-RHF Final Energy:  -212.38933852587758
    Total Energy =                       -212.3893385258775197
    Molecular point group: c1
  Basis Set: CC-PVTZ
  Basis Set:
  Basis Set: CC-PVTZ
  Basis Set:
  @DF-RHF Final Energy:  -212.38975220485992
    Total Energy =                       -212.3897522048599171
  Basis Set: CC-PVTZ
  Basis Set:
  Basis Set: CC-PVTZ
  Basis Set:
  @DF-RHF Final Energy:  -212.38983570816967
    Total Energy =                       -212.3898357081693007
  Basis Set: CC-PVTZ
  Basis Set:
  Basis Set: CC-PVTZ
  Basis Set:
  @DF-RHF Final Energy:  -212.38983748883149
    Total Energy =                       -212.3898374888316880
  Basis Set: CC-PVTZ
  Basis Set:
  Charge       = 0
  Multiplicity = 1
  Basis Set: CC-PVTZ
  Basis Set:

    Orbital Energies (a.u.)
    -----------------------

    Doubly Occupied:

       1A    -15.526154     2A    -11.239131     3A    -11.238761
       4A    -11.211391     5A    -11.206037     6A     -1.203854
       7A     -1.029562     8A     -0.964364     9A     -0.836288
      10A     -0.822849    11A     -0.646698    12A     -0.629347
      13A     -0.620166    14A     -0.583269    15A     -0.553608
      16A     -0.522452    17A     -0.506975    18A     -0.495313
      19A     -0.486895    20A     -0.472605    21A     -0.357432

  @DF-RHF Final Energy:  -212.38983762885275

   => Energetics <=

    Nuclear Repulsion Energy =            189.7381941794277225
    One-Electron Energy =                -661.9497606454847300
    Two-Electron Energy =                 259.8217288372044891
    DFT Exchange-Correlation Energy =       0.0000000000000000
    Empirical Dispersion Energy =           0.0000000000000000
    PCM Polarization Energy =               0.0000000000000000
    EFP Energy =                            0.0000000000000000
    Total Energy =                       -212.3898376288524901
    Molecular point group: c1
  Basis Set: CC-PVTZ
  Basis Set:

  -Total Gradient:
     Atom            X                  Y                   Z
    ------   -----------------  -----------------  -----------------
       1        0.000001282386     0.000001486606    -0.000005273665
       2        0.000003535738    -0.000003906757     0.000000474869
       3        0.002024296573     0.000147883770    -0.000033344118
       4        0.000002753457    -0.000003819236     0.000003778562
       5       -0.000000259325     0.000001013376    -0.000000952518
       6       -0.002731952225     0.000325166893     0.000356622312
       7        0.000001485612    -0.000001620433     0.000001204549
       8       -0.000001977139     0.000008785118     0.000002622231
       9       -0.000032116838    -0.002620026724    -0.001640122987
      10        0.000003567351     0.000000971612     0.000004355571
      11       -0.000007818168    -0.000001082253     0.000001556103
      12        0.000747144317     0.002152431183     0.001296584392
      13       -0.000001202099    -0.000005478305     0.000007149818
      14        0.000002776408     0.000001251198    -0.000000443208
      15        0.000001226991    -0.000002701870     0.000007090041
      16       -0.000012743037    -0.000000354178    -0.000001301954

  **** Optimization is complete! (in 5 steps) ****
    Final optimized geometry and variables:
    Molecular point group: c1

    Geometry (in Angstrom), charge = 0, multiplicity = 1:

    H           -0.243066333665    -0.137907841972    -3.305342778877
    C           -0.263789940852     0.449877932621    -2.394912609493
    C           -0.214583343161    -0.449812382513    -1.171843934997
    H           -1.165163662077     1.049918570202    -2.390675426844
    H            0.587512161440     1.123405720269    -2.417828789177
    N           -0.265734520684     0.326134122645     0.049891713198
    H           -1.068133482812    -1.119676570376    -1.185570937429
    H            0.675435504077    -1.082477490241    -1.220623568742
    C           -0.193499533271    -0.446876663471     1.282641089443
    H            0.457672473207     1.011907075490     0.035088010254
    C            0.857440811782     0.096209377823     2.240760953461
    H           -1.156318799367    -0.419773367930     1.783776947884
    H            0.026929427772    -1.489093831096     1.067062023054
    H            0.662134972399     1.137857259101     2.473139673058
    H            0.853766294987    -0.457655756380     3.172191004538
    H            1.851913633145     0.026629299720     1.811785526675

  Mulliken Charges: (a.u.)
   Center  Symbol    Alpha    Beta     Spin     Total
       1     H     0.45368  0.45368  0.00000  0.09265
       2     C     3.14385  3.14385  0.00000 -0.28770
       3     C     3.02105  3.02105  0.00000 -0.04211
       4     H     0.44932  0.44932  0.00000  0.10136
       5     H     0.45979  0.45979  0.00000  0.08042
       6     N     3.63903  3.63903  0.00000 -0.27807
       7     H     0.45793  0.45793  0.00000  0.08413
       8     H     0.47479  0.47479  0.00000  0.05042
       9     C     3.01948  3.01948  0.00000 -0.03896
      10     H     0.44553  0.44553  0.00000  0.10894
      11     C     3.15111  3.15111  0.00000 -0.30222
      12     H     0.45821  0.45821  0.00000  0.08357
      13     H     0.46746  0.46746  0.00000  0.06508
      14     H     0.45187  0.45187  0.00000  0.09627
      15     H     0.45062  0.45062  0.00000  0.09877
      16     H     0.45629  0.45629  0.00000  0.08743

   Total alpha = 21.00000, Total beta = 21.00000, Total charge =  0.00000

*** Psi4 exiting successfully. Buy a developer a beer!
