  ==> Input File <==

--------------------------------------------------------------------------
set {
	reference rhf
	basis cc-pvtz
}

set_num_threads( 4 )
memory 2 gb

molecule MOL {
0 1

H	 -2.247920	 -1.640083	 -1.875741
N	 -1.337429	 -1.652802	 -1.468416
C	 -1.344082	 -1.029041	 -0.158065
H	 -0.725970	 -1.155308	 -2.080474
C	 0.042323	 -1.045523	 0.443811
H	 -1.701284	 -0.000054	 -0.169771
H	 -2.002498	 -1.594437	 0.492217
O	 0.881195	 -0.248324	 -0.336237
H	 0.006981	 -0.665146	 1.463732
H	 0.415725	 -2.066610	 0.473519
C	 2.208068	 -0.234417	 0.074171
H	 2.725499	 -1.027054	 -0.446768
H	 2.688377	 0.712084	 -0.164856
H	 2.295137	 -0.403407	 1.144883

	symmetry c1
}
set optking {
	frozen_dihedral = ("
		5 8 11 13
	")
}

ee = optimize('scf')
oeprop('DIPOLE', 'QUADRUPOLE', 'MULLIKEN_CHARGES')
f=open( 'psi4out.xyz', 'w' )
f.write( "14  " )
f.write( str(ee) + "\n" )
f.write( MOL.save_string_xyz() )
f.close()
--------------------------------------------------------------------------

    Molecular point group: c1
  Charge       = 0
  Multiplicity = 1
  Basis Set: CC-PVTZ
  Basis Set:
  @DF-RHF Final Energy:  -248.22353371105311
    Total Energy =                       -248.2235337110530509
    Molecular point group: c1
  Basis Set: CC-PVTZ
  Basis Set:
  Basis Set: CC-PVTZ
  Basis Set:
  @DF-RHF Final Energy:  -248.22427900463916
    Total Energy =                       -248.2242790046388450
  Basis Set: CC-PVTZ
  Basis Set:
  Basis Set: CC-PVTZ
  Basis Set:
  @DF-RHF Final Energy:  -248.22443152754713
    Total Energy =                       -248.2244315275473809
  Basis Set: CC-PVTZ
  Basis Set:
  Charge       = 0
  Multiplicity = 1
  Basis Set: CC-PVTZ
  Basis Set:

    Orbital Energies (a.u.)
    -----------------------

    Doubly Occupied:

       1A    -20.549009     2A    -15.523373     3A    -11.264150
       4A    -11.263384     5A    -11.239624     6A     -1.382212
       7A     -1.175792     8A     -1.000455     9A     -0.907762
      10A     -0.815572    11A     -0.685008    12A     -0.674902
      13A     -0.645749    14A     -0.611557    15A     -0.607714
      16A     -0.541478    17A     -0.533922    18A     -0.496661
      19A     -0.473929    20A     -0.417780    21A     -0.383740

  @DF-RHF Final Energy:  -248.22443201736229

   => Energetics <=

    Nuclear Repulsion Energy =            194.5618910262750774
    One-Electron Energy =                -723.1851000719209424
    Two-Electron Energy =                 280.3987770282833480
    DFT Exchange-Correlation Energy =       0.0000000000000000
    Empirical Dispersion Energy =           0.0000000000000000
    PCM Polarization Energy =               0.0000000000000000
    EFP Energy =                            0.0000000000000000
    Total Energy =                       -248.2244320173624601
    Molecular point group: c1
  Basis Set: CC-PVTZ
  Basis Set:

  -Total Gradient:
     Atom            X                  Y                   Z
    ------   -----------------  -----------------  -----------------
       1        0.000005026428     0.000002698305    -0.000016089878
       2       -0.000013050526    -0.000001581865    -0.000013773028
       3        0.000033633707    -0.000028073665    -0.000012908315
       4       -0.000001083842     0.000008569866    -0.000014659277
       5       -0.000433331745     0.001860511970     0.001491894241
       6        0.000018412504    -0.000008047980     0.000004566324
       7        0.000009655575    -0.000002452409     0.000015228276
       8        0.000471123105    -0.002308890972    -0.001425780814
       9       -0.000006251592    -0.000021924139     0.000030495275
      10        0.000003656664     0.000034657202    -0.000040033290
      11        0.000757575068    -0.000556604796    -0.002495198754
      12       -0.000010498575    -0.000000947141    -0.000018531877
      13       -0.000806484691     0.001020420129     0.002494767998
      14       -0.000028382082     0.000001665495     0.000000023119

  **** Optimization is complete! (in 4 steps) ****
    Final optimized geometry and variables:
    Molecular point group: c1

    Geometry (in Angstrom), charge = 0, multiplicity = 1:

    H           -2.353041756446    -0.787124909407    -1.576995094658
    N           -1.443195176395    -0.805586765182    -1.168482037836
    C           -1.448998178665    -0.188734089758     0.145134698412
    H           -0.829267844303    -0.306829844359    -1.777028131658
    C           -0.064448606740    -0.216860043856     0.750613392212
    H           -1.798958626564     0.842811915565     0.137700475263
    H           -2.112783762945    -0.752825125948     0.791187908877
    O            0.779352216444     0.580728952174    -0.024928978235
    H           -0.099039194793     0.160231911639     1.771133570869
    H            0.299343936312    -1.241502164142     0.776735182061
    C            2.114034051735     0.593181614143     0.369854606681
    H            2.678015401138    -0.197666041305    -0.115927303445
    H            2.537326744461     1.553581766274     0.109162717956
    H            2.210689462812     0.472265289169     1.445655867343

  Mulliken Charges: (a.u.)
   Center  Symbol    Alpha    Beta     Spin     Total
       1     H     0.43028  0.43028  0.00000  0.13943
       2     N     3.69421  3.69421  0.00000 -0.38842
       3     C     3.02336  3.02336  0.00000 -0.04673
       4     H     0.42233  0.42233  0.00000  0.15533
       5     C     2.96801  2.96801  0.00000  0.06399
       6     H     0.46472  0.46472  0.00000  0.07055
       7     H     0.45871  0.45871  0.00000  0.08257
       8     O     4.18232  4.18232  0.00000 -0.36464
       9     H     0.46883  0.46883  0.00000  0.06235
      10     H     0.46973  0.46973  0.00000  0.06053
      11     C     3.02950  3.02950  0.00000 -0.05899
      12     H     0.46303  0.46303  0.00000  0.07395
      13     H     0.45177  0.45177  0.00000  0.09646
      14     H     0.47319  0.47319  0.00000  0.05362

   Total alpha = 21.00000, Total beta = 21.00000, Total charge = -0.00000
