  ==> Input File <==

--------------------------------------------------------------------------
set {
	reference rhf
	basis 6-31G*
}

set_num_threads( 1 )
memory 2 gb

molecule MOL {
0 1

O	 0.749854	 1.307668	 -0.000040
C	 0.576249	 0.131685	 -0.000108
C	 -0.766779	 -0.556801	 -0.000461
O	 1.568443	 -0.749345	 -0.000005
C	 -1.945214	 0.412366	 0.000161
H	 -0.796911	 -1.211249	 -0.867467
H	 -0.796854	 -1.212390	 0.865687
C	 -2.492767	 0.648733	 1.406889
H	 -2.728667	 0.023761	 -0.641548
H	 -1.634300	 1.354203	 -0.438987
H	 -2.840472	 -0.276993	 1.856984
H	 -3.329382	 1.339398	 1.385526
H	 -1.734348	 1.069227	 2.061457
C	 2.886820	 -0.232538	 0.000322
H	 3.059106	 0.369571	 -0.880203
H	 3.540187	 -1.091012	 0.000050
H	 3.059019	 0.368956	 0.881266

	symmetry c1
}
set optking {
	frozen_dihedral = ("
		1 2 3 6,
		14 4 2 1
	")
}

ee = energy('scf')
oeprop('DIPOLE', 'QUADRUPOLE', 'MULLIKEN_CHARGES')
f=open( 'psi4out.xyz', 'w' )
f.write( "17  " )
f.write( str(ee) + "\n" )
f.write( MOL.save_string_xyz() )
f.close()
--------------------------------------------------------------------------

    Molecular point group: c1

    Geometry (in Angstrom), charge = 0, multiplicity = 1:

       Center              X                  Y                   Z               Mass
    ------------   -----------------  -----------------  -----------------  -----------------
           O          0.632822671720     1.165499359034    -0.207124571313    15.994914619560
           C          0.459217671720    -0.010483640966    -0.207192571313    12.000000000000
           C         -0.883810328280    -0.698969640966    -0.207545571313    12.000000000000
           O          1.451411671720    -0.891513640966    -0.207089571313    15.994914619560
           C         -2.062245328280     0.270197359034    -0.206923571313    12.000000000000
           H         -0.913942328280    -1.353417640966    -1.074551571313     1.007825032070
           H         -0.913885328280    -1.354558640966     0.658602428687     1.007825032070
           C         -2.609798328280     0.506564359034     1.199804428687    12.000000000000
           H         -2.845698328280    -0.118407640966    -0.848632571313     1.007825032070
           H         -1.751331328280     1.212034359034    -0.646071571313     1.007825032070
           H         -2.957503328280    -0.419161640966     1.649899428687     1.007825032070
           H         -3.446413328280     1.197229359034     1.178441428687     1.007825032070
           H         -1.851379328280     0.927058359034     1.854372428687     1.007825032070
           C          2.769788671720    -0.374706640966    -0.206762571313    12.000000000000
           H          2.942074671720     0.227402359034    -1.087287571313     1.007825032070
           H          3.423155671720    -1.233180640966    -0.207034571313     1.007825032070
           H          2.941987671720     0.226787359034     0.674181428687     1.007825032070

  Charge       = 0
  Multiplicity = 1
  Basis Set: 6-31G*
  Basis Set:

    Orbital Energies (a.u.)
    -----------------------

    Doubly Occupied:

       1A    -20.604729     2A    -20.546781     3A    -11.373389
       4A    -11.281526     5A    -11.234858     6A    -11.219203
       7A    -11.210607     8A     -1.470481     9A     -1.364231
      10A     -1.079673    11A     -0.999989    12A     -0.938194
      13A     -0.828901    14A     -0.766431    15A     -0.703967
      16A     -0.681892    17A     -0.672870    18A     -0.621356
      19A     -0.610468    20A     -0.568806    21A     -0.566947
      22A     -0.533712    23A     -0.524284    24A     -0.487212
      25A     -0.484101    26A     -0.476851    27A     -0.457552
      28A     -0.440230

  @DF-RHF Final Energy:  -344.90368932369415

   => Energetics <=

    Nuclear Repulsion Energy =            316.1358640651734504
    One-Electron Energy =               -1096.5805471706478329
    Two-Electron Energy =                 435.5409937817810260
    DFT Exchange-Correlation Energy =       0.0000000000000000
    Empirical Dispersion Energy =           0.0000000000000000
    PCM Polarization Energy =               0.0000000000000000
    EFP Energy =                            0.0000000000000000
    Total Energy =                       -344.9036893236933565

  Mulliken Charges: (a.u.)
   Center  Symbol    Alpha    Beta     Spin     Total
       1     O     4.28532  4.28532  0.00000 -0.57064
       2     C     2.60949  2.60949  0.00000  0.78102
       3     C     3.20903  3.20903  0.00000 -0.41806
       4     O     4.30587  4.30587  0.00000 -0.61175
       5     C     3.15952  3.15952  0.00000 -0.31903
       6     H     0.39777  0.39777  0.00000  0.20447
       7     H     0.39897  0.39897  0.00000  0.20206
       8     C     3.24307  3.24307  0.00000 -0.48614
       9     H     0.41867  0.41867  0.00000  0.16266
      10     H     0.39780  0.39780  0.00000  0.20440
      11     H     0.42322  0.42322  0.00000  0.15357
      12     H     0.41735  0.41735  0.00000  0.16529
      13     H     0.41528  0.41528  0.00000  0.16944
      14     C     3.09238  3.09238  0.00000 -0.18477
      15     H     0.40894  0.40894  0.00000  0.18211
      16     H     0.40832  0.40832  0.00000  0.18337
      17     H     0.40900  0.40900  0.00000  0.18199

   Total alpha = 28.00000, Total beta = 28.00000, Total charge =  0.00000
