                              Psi4 1.0.54 Driver

  ==> Input File <==

--------------------------------------------------------------------------
set {
	reference rhf
	basis cc-pvtz
}

set_num_threads( 4 )
memory 2 gb

molecule MOL {
0 1

O	 -2.817697	 1.304178	 0.001046
C	 -2.664672	 0.129869	 0.003507
C	 -3.797908	 -0.860100	 -0.001145
O	 -1.481217	 -0.452708	 0.001092
H	 -4.408836	 -0.679689	 -0.875387
H	 -3.443486	 -1.878443	 -0.002770
H	 -4.412123	 -0.683688	 0.871605
C	 -0.332055	 0.384012	 -0.000250
C	 0.892252	 -0.506059	 -0.000295
H	 -0.360822	 1.020205	 -0.874146
H	 -0.359817	 1.021310	 0.872861
C	 0.526052	 -1.986835	 -0.039821
H	 1.481781	 -0.293536	 0.885684
H	 1.510463	 -0.254114	 -0.855867
C	 1.745604	 -2.904341	 -0.041055
H	 -0.101369	 -2.228105	 0.814643
H	 -0.073366	 -2.188566	 -0.924116
C	 1.380118	 -4.384129	 -0.081745
H	 2.344479	 -2.704920	 0.843046
H	 2.373267	 -2.664279	 -0.894575
H	 0.780263	 -4.662960	 0.778065
H	 2.266931	 -5.007082	 -0.081798
H	 0.808987	 -4.621936	 -0.972874

	symmetry c1
}
set optking {
	frozen_dihedral = ("
		13 9 8 10
	")
}

ee,wfn = optimize('scf', return_wfn=True)
oeprop( wfn, 'DIPOLE', 'QUADRUPOLE', 'MULLIKEN_CHARGES')
f=open( 'psi4out.xyz', 'w' )
f.write( "23  " )
f.write( str(ee) + "\n" )
f.write( MOL.save_string_xyz() )
f.close()
--------------------------------------------------------------------------

    Molecular point group: c1
  Charge       = 0
  Multiplicity = 1
  Basis Set: CC-PVTZ
  Basis Set:
  @DF-RHF Final Energy:  -423.12282180762350
    Total Energy =                       -423.1228218076238363
    Molecular point group: c1
  Basis Set: CC-PVTZ
  Basis Set:
  Basis Set: CC-PVTZ
  Basis Set:
  @DF-RHF Final Energy:  -423.12304907382577
    Total Energy =                       -423.1230490738261096
  Basis Set: CC-PVTZ
  Basis Set:
  Basis Set: CC-PVTZ
  Basis Set:
  @DF-RHF Final Energy:  -423.12559233236749
    Total Energy =                       -423.1255923323678871
  Basis Set: CC-PVTZ
  Basis Set:
  Basis Set: CC-PVTZ
  Basis Set:
  @DF-RHF Final Energy:  -423.12552720093390
    Total Energy =                       -423.1255272009334476
  Basis Set: CC-PVTZ
  Basis Set:
  Basis Set: CC-PVTZ
  Basis Set:
  @DF-RHF Final Energy:  -423.12574326502033
    Total Energy =                       -423.1257432650204464
  Basis Set: CC-PVTZ
  Basis Set:
  Basis Set: CC-PVTZ
  Basis Set:
  @DF-RHF Final Energy:  -423.12583610397814
    Total Energy =                       -423.1258361039775764
  Basis Set: CC-PVTZ
  Basis Set:
  Basis Set: CC-PVTZ
  Basis Set:
  @DF-RHF Final Energy:  -423.12583790751353
    Total Energy =                       -423.1258379075137555
  Basis Set: CC-PVTZ
  Basis Set:
  Charge       = 0
  Multiplicity = 1
  Basis Set: CC-PVTZ
  Basis Set:

    Orbital Energies (a.u.)
    -----------------------

    Doubly Occupied:

       1A    -20.596125     2A    -20.529979     3A    -11.366862
       4A    -11.280649     5A    -11.231210     6A    -11.223937
       7A    -11.216481     8A    -11.215553     9A    -11.208995
      10A     -1.471776    11A     -1.364497    12A     -1.089438
      13A     -1.040650    14A     -1.002015    15A     -0.932335
      16A     -0.845021    17A     -0.808763    18A     -0.762831
      19A     -0.692892    20A     -0.690730    21A     -0.669759
      22A     -0.644825    23A     -0.606344    24A     -0.590051
      25A     -0.581232    26A     -0.566571    27A     -0.560594
      28A     -0.528365    29A     -0.527032    30A     -0.518070
      31A     -0.490111    32A     -0.472358    33A     -0.471529
      34A     -0.459206    35A     -0.444807    36A     -0.440997

  @DF-RHF Final Energy:  -423.12583793413791

   => Energetics <=

    Nuclear Repulsion Energy =            460.8723833404094989
    One-Electron Energy =               -1489.7112576128022283
    Two-Electron Energy =                 605.7130363382548239
    DFT Exchange-Correlation Energy =       0.0000000000000000
    Empirical Dispersion Energy =           0.0000000000000000
    PCM Polarization Energy =               0.0000000000000000
    EFP Energy =                            0.0000000000000000
    Total Energy =                       -423.1258379341379623
    Molecular point group: c1
  Basis Set: CC-PVTZ
  Basis Set:

  -Total Gradient:
     Atom            X                  Y                   Z
    ------   -----------------  -----------------  -----------------
       1       -0.000013540726     0.000010701021     0.000014727838
       2        0.000036889254    -0.000014645974    -0.000027922212
       3        0.000001265458     0.000004491461     0.000014806467
       4       -0.000030650072    -0.000016824182     0.000004671619
       5        0.000001302072    -0.000001739934    -0.000002803518
       6        0.000000805242     0.000002188417    -0.000000857063
       7        0.000001430300     0.000001836409    -0.000004092108
       8       -0.000661163790    -0.000828269389    -0.000888505731
       9       -0.000616539427    -0.000749265544     0.000884999176
      10        0.000653268855     0.000819436325     0.000590036944
      11       -0.000002733581    -0.000007452368    -0.000006852482
      12       -0.000004014753    -0.000005183348     0.000047196579
      13        0.000630800823     0.000774612866    -0.000607221971
      14       -0.000001646212     0.000004538121     0.000006435544
      15        0.000000792796     0.000002595628    -0.000007315745
      16        0.000011577750     0.000002318306    -0.000000980461
      17       -0.000009218055     0.000002220380    -0.000005054934
      18        0.000002240652     0.000000153047    -0.000009359142
      19       -0.000007033519    -0.000001302770    -0.000000187752
      20        0.000006328148    -0.000000966232     0.000000616914
      21        0.000002370803     0.000002983202    -0.000000049228
      22       -0.000001901475     0.000000003608    -0.000002208290
      23       -0.000000630551    -0.000002429045    -0.000000080441

  **** Optimization is complete! (in 8 steps) ****
    Final optimized geometry and variables:
    Molecular point group: c1

    Geometry (in Angstrom), charge = 0, multiplicity = 1:

    O           -1.963973384344     2.500063971537     0.012074402673
    C           -1.931158789485     1.316664214441     0.043885718412
    C           -3.160014984763     0.448988446690     0.091171954053
    O           -0.814555405838     0.615282256646     0.041968821882
    H           -3.768346624612     0.666865320867    -0.776380374049
    H           -2.912766693089    -0.600388434639     0.113743425324
    H           -3.733405597754     0.712640702398     0.969761304679
    C            0.412060130601     1.332752896842    -0.001050432188
    C            1.607087133197     0.363290354305     0.008033765673
    H            0.416677008808     1.952409965789    -0.885239026604
    H            0.444811784209     1.996979991202     0.849658311776
    C            1.274914003492    -1.127143095216    -0.040880065487
    H            2.207847039442     0.562095106220     0.888741030121
    H            2.240928169170     0.602942496927    -0.839040531040
    C            2.530338291036    -1.994935278842    -0.054260159918
    H            0.660899175345    -1.394956227550     0.811724451775
    H            0.679583014255    -1.341380953013    -0.922135123786
    C            2.220473386478    -3.487415536992    -0.101197711987
    H            3.127606405184    -1.779608399909     0.827687634068
    H            3.144963634001    -1.728577764541    -0.909926306220
    H            1.636484040436    -3.792980919784     0.760532853846
    H            3.129831356967    -4.077195965412    -0.110045149592
    H            1.652965509512    -3.741358808610    -0.990283431455

  Mulliken Charges: (a.u.)
   Center  Symbol    Alpha    Beta     Spin     Total
       1     O     4.20336  4.20336  0.00000 -0.40673
       2     C     2.81671  2.81671  0.00000  0.36659
       3     C     3.14029  3.14029  0.00000 -0.28057
       4     O     4.14114  4.14114  0.00000 -0.28227
       5     H     0.44177  0.44177  0.00000  0.11646
       6     H     0.44198  0.44198  0.00000  0.11603
       7     H     0.44180  0.44180  0.00000  0.11639
       8     C     2.97936  2.97936  0.00000  0.04128
       9     C     3.11303  3.11303  0.00000 -0.22606
      10     H     0.45090  0.45090  0.00000  0.09821
      11     H     0.45050  0.45050  0.00000  0.09900
      12     C     3.07380  3.07380  0.00000 -0.14759
      13     H     0.44894  0.44894  0.00000  0.10211
      14     H     0.44957  0.44957  0.00000  0.10086
      15     C     3.08673  3.08673  0.00000 -0.17346
      16     H     0.45075  0.45075  0.00000  0.09850
      17     H     0.45148  0.45148  0.00000  0.09704
      18     C     3.15010  3.15010  0.00000 -0.30021
      19     H     0.45483  0.45483  0.00000  0.09034
      20     H     0.45491  0.45491  0.00000  0.09019
      21     H     0.45500  0.45500  0.00000  0.09000
      22     H     0.44807  0.44807  0.00000  0.10385
      23     H     0.45499  0.45499  0.00000  0.09002

   Total alpha = 36.00000, Total beta = 36.00000, Total charge =  0.00000

*** Psi4 exiting successfully. Buy a developer a beer!
