  ==> Input File <==

--------------------------------------------------------------------------
set {
	reference rhf
	basis 6-31G*
}

set_num_threads( 4 )
memory 2 gb

molecule MOL {
0 1

H	 1.094341	 -0.621041	 0.114853
C	 0.850167	 0.441173	 0.000644
C	 -0.623425	 0.760064	 0.000248
O	 1.717924	 1.245452	 -0.108342
C	 -1.518387	 -0.473136	 -0.000101
H	 -0.818289	 1.390622	 -0.866171
H	 -0.818694	 1.390413	 0.866696
H	 -1.333417	 -1.085530	 -0.874338
H	 -2.563510	 -0.183466	 -0.000351
H	 -1.333864	 -1.085676	 0.874123

	symmetry c1
}
set optking {
	frozen_dihedral = ("
		4 2 3 6
	")
}

ee = optimize('scf')
oeprop('DIPOLE', 'QUADRUPOLE', 'MULLIKEN_CHARGES')
f=open( 'psi4out.xyz', 'w' )
f.write( "10  " )
f.write( str(ee) + "\n" )
f.write( MOL.save_string_xyz() )
f.close()
--------------------------------------------------------------------------

    Molecular point group: c1
  Charge       = 0
  Multiplicity = 1
  Basis Set: 6-31G*
  Basis Set:
  @DF-RHF Final Energy:  -191.94903428666134
    Total Energy =                       -191.9490342866613446
    Molecular point group: c1
  Basis Set: 6-31G*
  Basis Set:
  Basis Set: 6-31G*
  Basis Set:
  @DF-RHF Final Energy:  -191.94920351350521
    Total Energy =                       -191.9492035135052674
  Basis Set: 6-31G*
  Basis Set:
  Basis Set: 6-31G*
  Basis Set:
  @DF-RHF Final Energy:  -191.94907586468025
    Total Energy =                       -191.9490758646802817
  Basis Set: 6-31G*
  Basis Set:
  Charge       = 0
  Multiplicity = 1
  Basis Set: 6-31G*
  Basis Set:

    Orbital Energies (a.u.)
    -----------------------

    Doubly Occupied:

       1A    -20.563027     2A    -11.329120     3A    -11.239370
       4A    -11.231894     5A     -1.404122     6A     -1.066335
       7A     -0.901532     8A     -0.798359     9A     -0.658147
      10A     -0.640071    11A     -0.637698    12A     -0.552831
      13A     -0.543873    14A     -0.525565    15A     -0.489352
      16A     -0.412694

  @DF-RHF Final Energy:  -191.94923590136727

   => Energetics <=

    Nuclear Repulsion Energy =            116.8346167626907572
    One-Electron Energy =                -491.5797268514876350
    Two-Electron Energy =                 182.7958741874296322
    DFT Exchange-Correlation Energy =       0.0000000000000000
    Empirical Dispersion Energy =           0.0000000000000000
    PCM Polarization Energy =               0.0000000000000000
    EFP Energy =                            0.0000000000000000
    Total Energy =                       -191.9492359013672456
    Molecular point group: c1
  Basis Set: 6-31G*
  Basis Set:

  -Total Gradient:
     Atom            X                  Y                   Z
    ------   -----------------  -----------------  -----------------
       1        0.000040755670    -0.000040592990    -0.000020021960
       2       -0.000015603392     0.000042232337    -0.000478191179
       3        0.000152131633     0.000358439162     0.000320675106
       4        0.000021241574    -0.000039109352     0.000328092796
       5       -0.000080248838     0.000032879678     0.000010269487
       6       -0.000069850146    -0.000275904487    -0.000138672655
       7       -0.000011269402     0.000012131673    -0.000011989660
       8       -0.000009733746    -0.000018860578    -0.000041416705
       9       -0.000014261523    -0.000062452115     0.000000560335
      10       -0.000013161828    -0.000008763330     0.000030694435

  **** Optimization is complete! (in 4 steps) ****
    Final optimized geometry and variables:
    Molecular point group: c1

    Geometry (in Angstrom), charge = 0, multiplicity = 1:

    H            1.012512714217    -1.114035633539     0.155356047118
    C            0.750813759452    -0.056320726196     0.030528898909
    C           -0.727316467359     0.271534609613     0.026955199288
    O            1.605373315450     0.760554164231    -0.083236568887
    C           -1.625574905295    -0.963212150820     0.028151837555
    H           -0.920424200369     0.896725479029    -0.839134891220
    H           -0.920780878806     0.889997769385     0.899529123846
    H           -1.453723210648    -1.578001760015    -0.850430614346
    H           -2.671572191923    -0.679107041196     0.031565992434
    H           -1.448788060996    -1.579838094896     0.904486677526

  Mulliken Charges: (a.u.)
   Center  Symbol    Alpha    Beta     Spin     Total
       1     H     0.42870  0.42870  0.00000  0.14260
       2     C     2.83761  2.83761  0.00000  0.32478
       3     C     3.20452  3.20452  0.00000 -0.40904
       4     O     4.23877  4.23877  0.00000 -0.47755
       5     C     3.25324  3.25324  0.00000 -0.50649
       6     H     0.39764  0.39764  0.00000  0.20472
       7     H     0.39858  0.39858  0.00000  0.20284
       8     H     0.41521  0.41521  0.00000  0.16958
       9     H     0.40966  0.40966  0.00000  0.18067
      10     H     0.41606  0.41606  0.00000  0.16789

   Total alpha = 16.00000, Total beta = 16.00000, Total charge = -0.00000
