  ==> Input File <==

--------------------------------------------------------------------------
set {
	reference rhf
	basis cc-pvtz
}

set_num_threads( 4 )
memory 2 gb

molecule MOL {
0 1

H	 -2.144218	 0.228506	 -1.023225
N	 -1.851927	 0.161443	 -0.071573
C	 -0.561396	 -0.500007	 0.035200
H	 -2.556307	 -0.350217	 0.417700
C	 0.575129	 0.507849	 -0.048832
H	 -0.478089	 -1.200753	 -0.788956
H	 -0.456191	 -1.081816	 0.952176
C	 1.951750	 -0.141983	 0.035101
H	 0.478254	 1.061643	 -0.975981
H	 0.467676	 1.231891	 0.755499
H	 2.101550	 -0.848142	 -0.774949
H	 2.738260	 0.600794	 -0.026526
H	 2.078939	 -0.679792	 0.968824

	symmetry c1
}
set optking {
	frozen_dihedral = ("
		1 2 3 6
	")
}

ee = optimize('scf')
oeprop('DIPOLE', 'QUADRUPOLE', 'MULLIKEN_CHARGES')
f=open( 'psi4out.xyz', 'w' )
f.write( "13  " )
f.write( str(ee) + "\n" )
f.write( MOL.save_string_xyz() )
f.close()
--------------------------------------------------------------------------

    Molecular point group: c1
  Charge       = 0
  Multiplicity = 1
  Basis Set: CC-PVTZ
  Basis Set:
  @DF-RHF Final Energy:  -173.34966917182513
    Total Energy =                       -173.3496691718251270
    Molecular point group: c1
  Basis Set: CC-PVTZ
  Basis Set:
  Basis Set: CC-PVTZ
  Basis Set:
  @DF-RHF Final Energy:  -173.35094494965031
    Total Energy =                       -173.3509449496502270
  Basis Set: CC-PVTZ
  Basis Set:
  Basis Set: CC-PVTZ
  Basis Set:
  @DF-RHF Final Energy:  -173.35115696847822
    Total Energy =                       -173.3511569684781364
  Basis Set: CC-PVTZ
  Basis Set:
  Basis Set: CC-PVTZ
  Basis Set:
  @DF-RHF Final Energy:  -173.35116234948018
    Total Energy =                       -173.3511623494802052
  Basis Set: CC-PVTZ
  Basis Set:
  Charge       = 0
  Multiplicity = 1
  Basis Set: CC-PVTZ
  Basis Set:

    Orbital Energies (a.u.)
    -----------------------

    Doubly Occupied:

       1A    -15.527176     2A    -11.239105     3A    -11.206198
       4A    -11.205049     5A     -1.177435     6A     -1.034874
       7A     -0.899280     8A     -0.796073     9A     -0.672291
      10A     -0.618647    11A     -0.603292    12A     -0.571273
      13A     -0.522500    14A     -0.490714    15A     -0.482956
      16A     -0.465609    17A     -0.384198

  @DF-RHF Final Energy:  -173.35116344203158

   => Energetics <=

    Nuclear Repulsion Energy =            131.7305831331788113
    One-Electron Energy =                -494.3701510641254231
    Two-Electron Energy =                 189.2884044889149493
    DFT Exchange-Correlation Energy =       0.0000000000000000
    Empirical Dispersion Energy =           0.0000000000000000
    PCM Polarization Energy =               0.0000000000000000
    EFP Energy =                            0.0000000000000000
    Total Energy =                       -173.3511634420316625
    Molecular point group: c1
  Basis Set: CC-PVTZ
  Basis Set:

  -Total Gradient:
     Atom            X                  Y                   Z
    ------   -----------------  -----------------  -----------------
       1       -0.001200561715    -0.002338431473     0.000272203475
       2        0.001793201745     0.003367341114    -0.000755689171
       3       -0.001555821414    -0.002728566284     0.001857529851
       4       -0.000016755645     0.000007876165     0.000010567573
       5       -0.000014892527    -0.000034520906     0.000035142702
       6        0.000963594186     0.001730179095    -0.001432262743
       7        0.000026610910     0.000006440779     0.000005761267
       8        0.000013997807    -0.000001113072    -0.000006114731
       9       -0.000012603305    -0.000022520240     0.000007746069
      10       -0.000000531140     0.000010261738     0.000006533992
      11       -0.000004223629    -0.000000807174     0.000003769922
      12        0.000007826092    -0.000000821215    -0.000001812058
      13        0.000000158637     0.000004681472    -0.000003376148

  **** Optimization is complete! (in 5 steps) ****
    Final optimized geometry and variables:
    Molecular point group: c1

    Geometry (in Angstrom), charge = 0, multiplicity = 1:

    H           -2.170487091038     0.228101707409    -0.987724859778
    N           -1.856133910625     0.170006798963    -0.042504846958
    C           -0.559306032386    -0.492804066858     0.040965266186
    H           -2.551539063115    -0.346304924121     0.452013610608
    C            0.580915074285     0.515325426037    -0.023704878657
    H           -0.418800709182    -1.224436587699    -0.753804501107
    H           -0.505941014238    -1.030996761127     0.980803166776
    C            1.956219425607    -0.138272750117     0.053325678267
    H            0.496183952817     1.081989537436    -0.946976745234
    H            0.457725933618     1.228083300912     0.784109590016
    H            2.109858600568    -0.834664638463    -0.764785656127
    H            2.744910361511     0.603303706051     0.005848344989
    H            2.078198999901    -0.688977371391     0.980638088693

  Mulliken Charges: (a.u.)
   Center  Symbol    Alpha    Beta     Spin     Total
       1     H     0.43032  0.43032  0.00000  0.13936
       2     N     3.69096  3.69096  0.00000 -0.38192
       3     C     3.03396  3.03396  0.00000 -0.06792
       4     H     0.42768  0.42768  0.00000  0.14465
       5     C     3.06684  3.06684  0.00000 -0.13367
       6     H     0.46516  0.46516  0.00000  0.06969
       7     H     0.45690  0.45690  0.00000  0.08619
       8     C     3.15470  3.15470  0.00000 -0.30939
       9     H     0.45936  0.45936  0.00000  0.08128
      10     H     0.45262  0.45262  0.00000  0.09475
      11     H     0.45738  0.45738  0.00000  0.08525
      12     H     0.44765  0.44765  0.00000  0.10470
      13     H     0.45648  0.45648  0.00000  0.08704

   Total alpha = 17.00000, Total beta = 17.00000, Total charge =  0.00000
