  ==> Input File <==

--------------------------------------------------------------------------
set {
	reference rhf
	basis 6-31G*
}

set_num_threads( 4 )
memory 2 gb

molecule MOL {
0 1

H	 -2.646374	 -0.642757	 1.268656
C	 -2.083525	 -0.384536	 0.393091
O	 -0.807605	 -0.127164	 0.768327
F	 -2.118945	 -1.383102	 -0.486752
F	 -2.621877	 0.670592	 -0.209486
C	 -0.027374	 -1.193990	 1.175522
C	 0.668605	 -0.770259	 2.462466
Cl	 1.162099	 -1.616648	 -0.066947
H	 -0.611664	 -2.073896	 1.380812
F	 1.423841	 -1.746478	 2.919364
F	 -0.247278	 -0.501636	 3.371553
F	 1.412354	 0.295899	 2.294780

	symmetry c1
}
set optking {
	frozen_dihedral = ("
		6 3 2 4
	")
}

ee = optimize('scf')
oeprop('DIPOLE', 'QUADRUPOLE', 'MULLIKEN_CHARGES')
f=open( 'psi4out.xyz', 'w' )
f.write( "12  " )
f.write( str(ee) + "\n" )
f.write( MOL.save_string_xyz() )
f.close()
--------------------------------------------------------------------------

    Molecular point group: c1
  Charge       = 0
  Multiplicity = 1
  Basis Set: 6-31G*
  Basis Set:
  @DF-RHF Final Energy: -1146.30741356827548
    Total Energy =                      -1146.3074135682743417
    Molecular point group: c1
  Basis Set: 6-31G*
  Basis Set:
  Basis Set: 6-31G*
  Basis Set:
  @DF-RHF Final Energy: -1146.30915150206010
    Total Energy =                      -1146.3091515020596489
  Basis Set: 6-31G*
  Basis Set:
  Basis Set: 6-31G*
  Basis Set:
  @DF-RHF Final Energy: -1146.30954489371470
    Total Energy =                      -1146.3095448937135643
  Basis Set: 6-31G*
  Basis Set:
  Basis Set: 6-31G*
  Basis Set:
  @DF-RHF Final Energy: -1146.30958367668018
    Total Energy =                      -1146.3095836766790399
  Basis Set: 6-31G*
  Basis Set:
  Basis Set: 6-31G*
  Basis Set:
  @DF-RHF Final Energy: -1146.30958770350981
    Total Energy =                      -1146.3095877035093508
  Basis Set: 6-31G*
  Basis Set:
  Charge       = 0
  Multiplicity = 1
  Basis Set: 6-31G*
  Basis Set:

    Orbital Energies (a.u.)
    -----------------------

    Doubly Occupied:

       1A   -104.845296     2A    -26.364092     3A    -26.364068
       4A    -26.361199     5A    -26.347931     6A    -26.346861
       7A    -20.647859     8A    -11.531215     9A    -11.491716
      10A    -11.405312    11A    -10.580028    12A     -8.049389
      13A     -8.045821    14A     -8.045734    15A     -1.765150
      16A     -1.719217    17A     -1.661647    18A     -1.660641
      19A     -1.642970    20A     -1.485813    21A     -1.180466
      22A     -1.051995    23A     -0.986702    24A     -0.929538
      25A     -0.860341    26A     -0.853441    27A     -0.844044
      28A     -0.835513    29A     -0.817944    30A     -0.789741
      31A     -0.732185    32A     -0.729061    33A     -0.702740
      34A     -0.696794    35A     -0.682883    36A     -0.678393
      37A     -0.662307    38A     -0.662278    39A     -0.647307
      40A     -0.634292    41A     -0.615835    42A     -0.573357
      43A     -0.516726    44A     -0.477780    45A     -0.470449

  @DF-RHF Final Energy: -1146.30958864059357

   => Energetics <=

    Nuclear Repulsion Energy =            729.7976760151842655
    One-Electron Energy =               -3042.2263903649545682
    Two-Electron Energy =                1166.1191257091768421
    DFT Exchange-Correlation Energy =       0.0000000000000000
    Empirical Dispersion Energy =           0.0000000000000000
    PCM Polarization Energy =               0.0000000000000000
    EFP Energy =                            0.0000000000000000
    Total Energy =                      -1146.3095886405935744
    Molecular point group: c1
  Basis Set: 6-31G*
  Basis Set:

  -Total Gradient:
     Atom            X                  Y                   Z
    ------   -----------------  -----------------  -----------------
       1        0.000031682346     0.000034220185    -0.000004814172
       2        0.000224092966     0.000702968099    -0.001229174454
       3       -0.000385118942    -0.000008064769     0.001472191566
       4       -0.000060829555    -0.000505464229     0.000552188987
       5       -0.000004996187    -0.000134136992     0.000038015400
       6        0.000283137184    -0.000094674345    -0.000827462461
       7        0.000022546747    -0.000040895620    -0.000000786344
       8       -0.000064977693     0.000018372891    -0.000021526187
       9       -0.000012684780     0.000014730103     0.000020514003
      10        0.000005946695    -0.000019940617     0.000044680104
      11       -0.000014770954     0.000046996099    -0.000026448646
      12       -0.000024027884    -0.000014110789    -0.000017377740

  **** Optimization is complete! (in 6 steps) ****
    Final optimized geometry and variables:
    Molecular point group: c1

    Geometry (in Angstrom), charge = 0, multiplicity = 1:

    H           -2.532491009164     0.108638389789     0.099899408178
    C           -1.913959466202     0.364964737159    -0.745153711375
    O           -0.626451659803     0.629825683902    -0.384224490597
    F           -1.953900273705    -0.639894413438    -1.616945378332
    F           -2.378085444472     1.447689213833    -1.326601749257
    C            0.156966692882    -0.427403175086     0.019606862366
    C            0.850840218996    -0.003894948904     1.307689155673
    CL           1.343126564781    -0.856722510275    -1.222732312244
    H           -0.419658096751    -1.313995209770     0.228981095712
    F            1.602074113884    -0.978989058575     1.771961563623
    F           -0.077136498054     0.260013315360     2.210792019002
    F            1.591236780011     1.063666463393     1.149715521382

  Mulliken Charges: (a.u.)
   Center  Symbol    Alpha    Beta     Spin     Total
       1     H     0.41695  0.41695  0.00000  0.16610
       2     C     2.56967  2.56967  0.00000  0.86065
       3     O     4.29751  4.29751  0.00000 -0.59502
       4     F     4.68221  4.68221  0.00000 -0.36441
       5     F     4.66897  4.66897  0.00000 -0.33794
       6     C     3.04111  3.04111  0.00000 -0.08222
       7     C     2.43303  2.43303  0.00000  1.13395
       8    CL     8.49664  8.49664  0.00000  0.00672
       9     H     0.37422  0.37422  0.00000  0.25156
      10     F     4.67337  4.67337  0.00000 -0.34674
      11     F     4.68023  4.68023  0.00000 -0.36046
      12     F     4.66608  4.66608  0.00000 -0.33216

   Total alpha = 45.00000, Total beta = 45.00000, Total charge = -0.00000
