  ==> Input File <==

--------------------------------------------------------------------------
set {
	reference rhf
	basis cc-pvtz
}

set_num_threads( 4 )
memory 2 gb

molecule MOL {
0 1

O	 1.242000	 1.468000	 -0.027000
C	 0.903000	 0.324000	 -0.015000
C	 -0.582000	 -0.067000	 -0.005000
C	 1.954000	 -0.773000	 -0.006000
C	 -0.853000	 -1.205000	 -1.004000
C	 -1.432000	 1.154000	 -0.372000
C	 -0.943000	 -0.531000	 1.421000
H	 -0.572000	 -0.921000	 -2.014000
H	 -1.912000	 -1.442000	 -1.013000
H	 -0.319000	 -2.114000	 -0.749000
H	 -1.191000	 1.515000	 -1.366000
H	 -2.485000	 0.892000	 -0.352000
H	 -1.267000	 1.970000	 0.320000
H	 -1.999000	 -0.777000	 1.471000
H	 -0.387000	 -1.414000	 1.719000
H	 -0.748000	 0.253000	 2.146000
H	 2.062000	 -1.179000	 -1.007000
H	 2.900000	 -0.343000	 0.295000
H	 1.698000	 -1.593000	 0.653000

	symmetry c1
}
ee = optimize('scf')
oeprop('DIPOLE', 'QUADRUPOLE', 'MULLIKEN_CHARGES')
f=open( 'psi4out.xyz', 'w' )
f.write( "19  " )
f.write( str(ee) + "\n" )
f.write( MOL.save_string_xyz() )
f.close()
--------------------------------------------------------------------------

    Molecular point group: c1
  Charge       = 0
  Multiplicity = 1
  Basis Set: CC-PVTZ
  Basis Set:
  @DF-RHF Final Energy:  -309.17418642852351
    Total Energy =                       -309.1741864285237966
    Molecular point group: c1
  Basis Set: CC-PVTZ
  Basis Set:
  Basis Set: CC-PVTZ
  Basis Set:
  @DF-RHF Final Energy:  -309.17409123727521
    Total Energy =                       -309.1740912372747516
  Basis Set: CC-PVTZ
  Basis Set:
  Basis Set: CC-PVTZ
  Basis Set:
  @DF-RHF Final Energy:  -309.16951598934935
    Total Energy =                       -309.1695159893495770
  Basis Set: CC-PVTZ
  Basis Set:
  Basis Set: CC-PVTZ
  Basis Set:
  @DF-RHF Final Energy:  -309.17422365627829
    Total Energy =                       -309.1742236562782864
  Basis Set: CC-PVTZ
  Basis Set:
  @DF-RHF Final Energy:  -309.17423916710123
    Total Energy =                       -309.1742391671016321
  @DF-RHF Final Energy:  -309.17428648211683
    Total Energy =                       -309.1742864821168268
  Basis Set: CC-PVTZ
  Basis Set:
  @DF-RHF Final Energy:  -309.17427368826191
    Total Energy =                       -309.1742736882619056
  Basis Set: CC-PVTZ
  Basis Set:
  Basis Set: CC-PVTZ
  Basis Set:
  @DF-RHF Final Energy:  -309.17426741518051
    Total Energy =                       -309.1742674151806796
  Basis Set: CC-PVTZ
  Basis Set:
  Basis Set: CC-PVTZ
  Basis Set:
  @DF-RHF Final Energy:  -309.17429561937644
    Total Energy =                       -309.1742956193761529
  Basis Set: CC-PVTZ
  Basis Set:
  Charge       = 0
  Multiplicity = 1
  Basis Set: CC-PVTZ
  Basis Set:

    Orbital Energies (a.u.)
    -----------------------

    Doubly Occupied:

       1A    -20.537349     2A    -11.317766     3A    -11.245695
       4A    -11.225188     5A    -11.222426     6A    -11.221974
       7A    -11.206403     8A     -1.398438     9A     -1.110928
      10A     -1.003107    11A     -0.947831    12A     -0.935863
      13A     -0.835834    14A     -0.705438    15A     -0.666745
      16A     -0.634050    17A     -0.621634    18A     -0.599285
      19A     -0.592925    20A     -0.565999    21A     -0.546675
      22A     -0.545256    23A     -0.524417    24A     -0.514752
      25A     -0.501892    26A     -0.472811    27A     -0.468323
      28A     -0.394779

  @DF-RHF Final Energy:  -309.17429577310196

   => Energetics <=

    Nuclear Repulsion Energy =            326.9169972943390690
    One-Electron Energy =               -1067.0550207115559260
    Two-Electron Energy =                 430.9637276441147264
    DFT Exchange-Correlation Energy =       0.0000000000000000
    Empirical Dispersion Energy =           0.0000000000000000
    PCM Polarization Energy =               0.0000000000000000
    EFP Energy =                            0.0000000000000000
    Total Energy =                       -309.1742957731020738
    Molecular point group: c1
  Basis Set: CC-PVTZ
  Basis Set:

  -Total Gradient:
     Atom            X                  Y                   Z
    ------   -----------------  -----------------  -----------------
       1       -0.000018631429    -0.000005724644     0.000000947859
       2        0.000009421962     0.000009097202     0.000019785703
       3       -0.000003726955    -0.000015149323    -0.000008456769
       4        0.000002964437     0.000012114024    -0.000026349659
       5       -0.000002314756    -0.000003228250    -0.000002893160
       6        0.000010715024     0.000004970376     0.000002118663
       7        0.000009389447     0.000007226544     0.000006766698
       8       -0.000000883982    -0.000002525158    -0.000001888873
       9        0.000001076260    -0.000003258435    -0.000001875155
      10       -0.000001332531     0.000001733941    -0.000000966189
      11       -0.000000078057     0.000000383729     0.000000220122
      12        0.000005244934    -0.000001257559     0.000002020031
      13        0.000000599850     0.000003298501     0.000000726422
      14        0.000005795536     0.000003505872    -0.000006776965
      15        0.000004025480    -0.000001532852    -0.000003876827
      16       -0.000003945738     0.000002139639     0.000005619480
      17        0.000002876504    -0.000010648741     0.000003179742
      18       -0.000010162954     0.000001655502     0.000004158225
      19       -0.000011033028    -0.000002800368     0.000007540653

  **** Optimization is complete! (in 10 steps) ****
    Final optimized geometry and variables:
    Molecular point group: c1

    Geometry (in Angstrom), charge = 0, multiplicity = 1:

    O            1.199703136497     1.411976963614    -0.018483197759
    C            0.860842730228     0.273204195103    -0.013120468909
    C           -0.623368177879    -0.117452838402    -0.005651854703
    C            1.908409594777    -0.822508134173    -0.006661689713
    C           -0.892587977571    -1.253841186021    -1.002900501962
    C           -1.473463830447     1.100645712491    -0.372895629771
    C           -0.981836327729    -0.579025052359     1.418506307390
    H           -0.609332930201    -0.970023920596    -2.010649278569
    H           -1.950451039849    -1.487352536470    -1.013175250516
    H           -0.360848198719    -2.161259385138    -0.746463051338
    H           -1.232203384174     1.461623349988    -1.364827178652
    H           -2.524364220951     0.834451443805    -0.354499590179
    H           -1.312381517250     1.914833269055     0.318656487869
    H           -2.035706432209    -0.826341942748     1.468081581650
    H           -0.425078058243    -1.458934128409     1.716856577862
    H           -0.788494287644     0.205047348763     2.140903432155
    H            2.006180859942    -1.227534977572    -1.007740244560
    H            2.854712233696    -0.396060497758     0.288501771234
    H            1.649863165907    -1.640163998418     0.651992199195

  Mulliken Charges: (a.u.)
   Center  Symbol    Alpha    Beta     Spin     Total
       1     O     4.17552  4.17552  0.00000 -0.35104
       2     C     2.85294  2.85294  0.00000  0.29412
       3     C     3.00876  3.00876  0.00000 -0.01751
       4     C     3.16338  3.16338  0.00000 -0.32676
       5     C     3.16410  3.16410  0.00000 -0.32819
       6     C     3.15017  3.15017  0.00000 -0.30033
       7     C     3.15876  3.15876  0.00000 -0.31752
       8     H     0.44302  0.44302  0.00000  0.11396
       9     H     0.44283  0.44283  0.00000  0.11433
      10     H     0.44581  0.44581  0.00000  0.10837
      11     H     0.44656  0.44656  0.00000  0.10688
      12     H     0.45198  0.45198  0.00000  0.09604
      13     H     0.43932  0.43932  0.00000  0.12137
      14     H     0.44534  0.44534  0.00000  0.10933
      15     H     0.44608  0.44608  0.00000  0.10785
      16     H     0.44152  0.44152  0.00000  0.11696
      17     H     0.44542  0.44542  0.00000  0.10916
      18     H     0.43179  0.43179  0.00000  0.13642
      19     H     0.44671  0.44671  0.00000  0.10658

   Total alpha = 28.00000, Total beta = 28.00000, Total charge = -0.00000
