  ==> Input File <==

--------------------------------------------------------------------------
set {
	reference rhf
	basis 6-31G*
}

set_num_threads( 1 )
memory 2 gb

molecule MOL {
0 1

O	 2.299947	 0.854643	 0.738316
C	 2.701189	 0.057885	 -0.047330
C	 2.554750	 0.149588	 -1.546975
O	 3.347903	 -1.046386	 0.304773
C	 1.826434	 1.412195	 -2.002493
H	 3.551930	 0.080524	 -1.968939
H	 2.030789	 -0.744355	 -1.875648
C	 1.577035	 1.469662	 -3.513450
H	 2.391706	 2.284918	 -1.689537
H	 0.875923	 1.469388	 -1.483186
C	 2.839866	 1.584067	 -4.372100
H	 0.939614	 2.326924	 -3.717216
H	 1.009615	 0.592432	 -3.820875
C	 2.533343	 1.748747	 -5.862041
H	 3.429069	 2.433658	 -4.030262
H	 3.465405	 0.704543	 -4.237522
C	 3.787917	 1.858822	 -6.730407
H	 1.918147	 2.635186	 -6.006933
H	 1.935068	 0.904839	 -6.202021
C	 3.473072	 2.026877	 -8.216452
H	 4.387416	 2.701027	 -6.391385
H	 4.402021	 0.971685	 -6.590251
H	 4.381924	 2.101967	 -8.805483
H	 2.888695	 2.925266	 -8.394201
H	 2.902892	 1.182859	 -8.594344
C	 4.728119	 -1.109107	 -0.004993
H	 4.882018	 -1.033965	 -1.071845
H	 5.068212	 -2.067527	 0.355250
H	 5.265056	 -0.311663	 0.488280

	symmetry c1
}
set optking {
	frozen_dihedral = ("
		21 17 14 11,
		17 14 11 15,
		15 11 8 5,
		6 3 5 9,
		11 8 5 9,
		2 4 26 27,
		6 3 2 1
	")
}

ee = energy('scf')
oeprop('DIPOLE', 'QUADRUPOLE', 'MULLIKEN_CHARGES')
f=open( 'psi4out.xyz', 'w' )
f.write( "29  " )
f.write( str(ee) + "\n" )
f.write( MOL.save_string_xyz() )
f.close()
--------------------------------------------------------------------------

    Molecular point group: c1

    Geometry (in Angstrom), charge = 0, multiplicity = 1:

       Center              X                  Y                   Z               Mass
    ------------   -----------------  -----------------  -----------------  -----------------
           O         -0.601192316491     0.053877867662     3.555518999566    15.994914619560
           C         -0.199950316491    -0.742880132338     2.769872999566    12.000000000000
           C         -0.346389316491    -0.651177132338     1.270227999566    12.000000000000
           O          0.446763683509    -1.847151132338     3.121975999566    15.994914619560
           C         -1.074705316491     0.611429867662     0.814709999566    12.000000000000
           H          0.650790683509    -0.720241132338     0.848263999566     1.007825032070
           H         -0.870350316491    -1.545120132338     0.941554999566     1.007825032070
           C         -1.324104316491     0.668896867662    -0.696247000434    12.000000000000
           H         -0.509433316491     1.484152867662     1.127665999566     1.007825032070
           H         -2.025216316491     0.668622867662     1.334016999566     1.007825032070
           C         -0.061273316491     0.783301867662    -1.554897000434    12.000000000000
           H         -1.961525316491     1.526158867662    -0.900013000434     1.007825032070
           H         -1.891524316491    -0.208333132338    -1.003672000434     1.007825032070
           C         -0.367796316491     0.947981867662    -3.044838000434    12.000000000000
           H          0.527929683509     1.632892867662    -1.213059000434     1.007825032070
           H          0.564265683509    -0.096222132338    -1.420319000434     1.007825032070
           C          0.886777683509     1.058056867662    -3.913204000434    12.000000000000
           H         -0.982992316491     1.834420867662    -3.189730000434     1.007825032070
           H         -0.966071316491     0.104073867662    -3.384818000434     1.007825032070
           C          0.571932683509     1.226111867662    -5.399249000434    12.000000000000
           H          1.486276683509     1.900261867662    -3.574182000434     1.007825032070
           H          1.500881683509     0.170919867662    -3.773048000434     1.007825032070
           H          1.480784683509     1.301201867662    -5.988280000434     1.007825032070
           H         -0.012444316491     2.124500867662    -5.576998000434     1.007825032070
           H          0.001752683509     0.382093867662    -5.777141000434     1.007825032070
           C          1.826979683509    -1.909872132338     2.812209999566    12.000000000000
           H          1.980878683509    -1.834730132338     1.745357999566     1.007825032070
           H          2.167072683509    -2.868292132338     3.172452999566     1.007825032070
           H          2.363916683509    -1.112428132338     3.305482999566     1.007825032070

  Charge       = 0
  Multiplicity = 1
  Basis Set: 6-31G*
  Basis Set:

    Orbital Energies (a.u.)
    -----------------------

    Doubly Occupied:

       1A    -20.589924     2A    -20.553958     3A    -11.373613
       4A    -11.296821     5A    -11.237050     6A    -11.221012
       7A    -11.219865     8A    -11.219259     9A    -11.218683
      10A    -11.217220    11A    -11.211361    12A     -1.464090
      13A     -1.368465    14A     -1.100230    15A     -1.067669
      16A     -1.015577    17A     -0.983248    18A     -0.942491
      19A     -0.868900    20A     -0.804363    21A     -0.794058
      22A     -0.764603    23A     -0.699946    24A     -0.683178
      25A     -0.676332    26A     -0.653372    27A     -0.633968
      28A     -0.616489    29A     -0.596746    30A     -0.590751
      31A     -0.569018    32A     -0.554521    33A     -0.548279
      34A     -0.531478    35A     -0.522350    36A     -0.505677
      37A     -0.486776    38A     -0.480799    39A     -0.474776
      40A     -0.465768    41A     -0.465028    42A     -0.456116
      43A     -0.442250    44A     -0.430910

  @DF-RHF Final Energy:  -501.01962557802869

   => Energetics <=

    Nuclear Repulsion Energy =            616.3894965027408261
    One-Electron Energy =               -1903.5840071732252454
    Two-Electron Energy =                 786.1748850924537919
    DFT Exchange-Correlation Energy =       0.0000000000000000
    Empirical Dispersion Energy =           0.0000000000000000
    PCM Polarization Energy =               0.0000000000000000
    EFP Energy =                            0.0000000000000000
    Total Energy =                       -501.0196255780305137

  Mulliken Charges: (a.u.)
   Center  Symbol    Alpha    Beta     Spin     Total
       1     O     4.25831  4.25831  0.00000 -0.51663
       2     C     2.61140  2.61140  0.00000  0.77720
       3     C     3.22073  3.22073  0.00000 -0.44146
       4     O     4.30744  4.30744  0.00000 -0.61487
       5     C     3.15346  3.15346  0.00000 -0.30691
       6     H     0.40644  0.40644  0.00000  0.18713
       7     H     0.39918  0.39918  0.00000  0.20165
       8     C     3.15637  3.15637  0.00000 -0.31275
       9     H     0.41406  0.41406  0.00000  0.17188
      10     H     0.40701  0.40701  0.00000  0.18597
      11     C     3.15462  3.15462  0.00000 -0.30925
      12     H     0.41782  0.41782  0.00000  0.16436
      13     H     0.42365  0.42365  0.00000  0.15271
      14     C     3.15022  3.15022  0.00000 -0.30044
      15     H     0.42285  0.42285  0.00000  0.15429
      16     H     0.42611  0.42611  0.00000  0.14777
      17     C     3.15145  3.15145  0.00000 -0.30289
      18     H     0.42263  0.42263  0.00000  0.15474
      19     H     0.42367  0.42367  0.00000  0.15266
      20     C     3.23940  3.23940  0.00000 -0.47880
      21     H     0.42282  0.42282  0.00000  0.15435
      22     H     0.42423  0.42423  0.00000  0.15155
      23     H     0.41908  0.41908  0.00000  0.16183
      24     H     0.42114  0.42114  0.00000  0.15772
      25     H     0.42162  0.42162  0.00000  0.15676
      26     C     3.09559  3.09559  0.00000 -0.19118
      27     H     0.41957  0.41957  0.00000  0.16086
      28     H     0.39928  0.39928  0.00000  0.20144
      29     H     0.40984  0.40984  0.00000  0.18031

   Total alpha = 44.00000, Total beta = 44.00000, Total charge =  0.00000
