                              Psi4 1.0.54 Driver

  ==> Input File <==

--------------------------------------------------------------------------
set {
	reference rhf
	basis cc-pvtz
}

set_num_threads( 4 )
memory 2 gb

molecule MOL {
0 1

H	 -3.162190	 0.493205	 -0.000107
C	 -2.363908	 -0.234727	 0.000005
O	 -1.158738	 0.454634	 -0.000087
H	 -2.464314	 -0.863616	 -0.882153
H	 -2.464327	 -0.863359	 0.882345
C	 -0.337155	 0.179861	 1.090701
C	 0.937852	 0.990201	 0.971964
H	 -0.104023	 -0.884635	 1.124394
H	 -0.853484	 0.425632	 2.018949
C	 1.894351	 0.744361	 2.133438
H	 1.419101	 0.741307	 0.032615
H	 0.675596	 2.041147	 0.920113
H	 2.189116	 -0.298287	 2.188990
H	 2.795565	 1.334869	 2.023277
H	 1.440760	 1.010516	 3.082377

	symmetry c1
}
set optking {
	frozen_dihedral = ("
		6 3 2 4
	")
}

ee,wfn = optimize('scf', return_wfn=True)
oeprop( wfn, 'DIPOLE', 'QUADRUPOLE', 'MULLIKEN_CHARGES')
f=open( 'psi4out.xyz', 'w' )
f.write( "15  " )
f.write( str(ee) + "\n" )
f.write( MOL.save_string_xyz() )
f.close()
--------------------------------------------------------------------------

    Molecular point group: c1
  Charge       = 0
  Multiplicity = 1
  Basis Set: CC-PVTZ
  Basis Set:
  @DF-RHF Final Energy:  -232.22409221547119
    Total Energy =                       -232.2240922154711598
    Molecular point group: c1
  Basis Set: CC-PVTZ
  Basis Set:
  Basis Set: CC-PVTZ
  Basis Set:
  @DF-RHF Final Energy:  -232.22448370436928
    Total Energy =                       -232.2244837043695043
  Basis Set: CC-PVTZ
  Basis Set:
  Basis Set: CC-PVTZ
  Basis Set:
  @DF-RHF Final Energy:  -232.22456927921817
    Total Energy =                       -232.2245692792179739
  Basis Set: CC-PVTZ
  Basis Set:
  Charge       = 0
  Multiplicity = 1
  Basis Set: CC-PVTZ
  Basis Set:

    Orbital Energies (a.u.)
    -----------------------

    Doubly Occupied:

       1A    -20.543849     2A    -11.264899     3A    -11.261267
       4A    -11.212197     5A    -11.210443     6A     -1.376695
       7A     -1.057992     8A     -0.956102     9A     -0.877407
      10A     -0.809158    11A     -0.673025    12A     -0.653758
      13A     -0.631554    14A     -0.608374    15A     -0.563492
      16A     -0.545847    17A     -0.502882    18A     -0.489419
      19A     -0.479255    20A     -0.461925    21A     -0.410890

  @DF-RHF Final Energy:  -232.22456983075139

   => Energetics <=

    Nuclear Repulsion Energy =            189.6541972220602759
    One-Electron Energy =                -690.5766787701841167
    Two-Electron Energy =                 268.6979117173725626
    DFT Exchange-Correlation Energy =       0.0000000000000000
    Empirical Dispersion Energy =           0.0000000000000000
    PCM Polarization Energy =               0.0000000000000000
    EFP Energy =                            0.0000000000000000
    Total Energy =                       -232.2245698307513067
    Molecular point group: c1
  Basis Set: CC-PVTZ
  Basis Set:

  -Total Gradient:
     Atom            X                  Y                   Z
    ------   -----------------  -----------------  -----------------
       1       -0.000010575107    -0.000000360659    -0.000000099022
       2        0.000054033060     0.000005693426     0.000022612750
       3       -0.000123839737    -0.000060512735    -0.000033581803
       4       -0.000027953366     0.000029791005    -0.000027928034
       5        0.000002244184    -0.000002774397    -0.000000348542
       6        0.000072897498     0.000006008969    -0.000019206009
       7       -0.000009492341    -0.000013625587     0.000030927684
       8       -0.000005086672     0.000006040489     0.000020624718
       9       -0.000005526048     0.000008955239    -0.000043653370
      10        0.000048908875     0.000031331927     0.000018188761
      11       -0.000024894932    -0.000006907815     0.000011043799
      12        0.000007058265    -0.000004087933     0.000001182591
      13       -0.000004479808     0.000006278185    -0.000004676686
      14        0.000022132873    -0.000002563505     0.000023980801
      15        0.000004573252    -0.000003266608     0.000000932362

  **** Optimization is complete! (in 4 steps) ****
    Final optimized geometry and variables:
    Molecular point group: c1

    Geometry (in Angstrom), charge = 0, multiplicity = 1:

    H           -2.967174120403     0.124914024503    -0.822186048981
    C           -2.162919642713    -0.602042812105    -0.829521209895
    O           -0.932570699314     0.053786722959    -0.809827898692
    H           -2.246931768703    -1.200677527103    -1.729551808215
    H           -2.288580821839    -1.256383055940     0.026960929485
    C           -0.096366224933    -0.238183463450     0.266969958346
    C            1.185683964238     0.557374630809     0.126805379557
    H            0.127083134926    -1.304426755419     0.293092719464
    H           -0.589726882211     0.011906943955     1.205825368869
    C            2.160819509628     0.296458671855     1.269628692794
    H            1.646213151534     0.305871073848    -0.822241494079
    H            0.935070991999     1.611562116644     0.082763000587
    H            2.444402428768    -0.749767931105     1.316337340932
    H            3.066857146977     0.876780586304     1.144890475486
    H            1.728046707800     0.564569658198     2.227766056756

  Mulliken Charges: (a.u.)
   Center  Symbol    Alpha    Beta     Spin     Total
       1     H     0.45787  0.45787  0.00000  0.08426
       2     C     3.02871  3.02871  0.00000 -0.05742
       3     O     4.17678  4.17678  0.00000 -0.35356
       4     H     0.45802  0.45802  0.00000  0.08395
       5     H     0.47322  0.47322  0.00000  0.05357
       6     C     2.95530  2.95530  0.00000  0.08940
       7     C     3.08224  3.08224  0.00000 -0.16448
       8     H     0.47575  0.47575  0.00000  0.04850
       9     H     0.47575  0.47575  0.00000  0.04850
      10     C     3.15593  3.15593  0.00000 -0.31187
      11     H     0.45120  0.45120  0.00000  0.09760
      12     H     0.45120  0.45120  0.00000  0.09760
      13     H     0.45587  0.45587  0.00000  0.08826
      14     H     0.44629  0.44629  0.00000  0.10741
      15     H     0.45587  0.45587  0.00000  0.08826

   Total alpha = 21.00000, Total beta = 21.00000, Total charge =  0.00000

*** Psi4 exiting successfully. Buy a developer a beer!
