                              Psi4 1.0.54 Driver

  ==> Input File <==

--------------------------------------------------------------------------
set {
	reference rhf
	basis cc-pvtz
}

set_num_threads( 4 )
memory 2 gb

molecule MOL {
0 1

H	 2.910436	 -1.217593	 0.032468
N	 3.091268	 -0.241216	 -0.065538
C	 1.860978	 0.530248	 0.016256
H	 3.535118	 -0.111317	 -0.950677
C	 0.644130	 -0.381765	 -0.031064
H	 1.835721	 1.204666	 -0.833114
H	 1.808789	 1.151975	 0.911067
C	 -0.678115	 0.376691	 0.025731
H	 0.693998	 -0.977147	 -0.936845
H	 0.693309	 -1.082142	 0.800523
C	 -1.900706	 -0.535531	 -0.022488
H	 -0.725296	 1.079516	 -0.802982
H	 -0.715474	 0.974884	 0.933278
C	 -3.220513	 0.226854	 0.028039
H	 -1.865036	 -1.134397	 -0.928236
H	 -1.857948	 -1.236381	 0.806820
H	 -3.309098	 0.911849	 -0.808725
H	 -4.066838	 -0.449485	 -0.008086
H	 -3.301685	 0.809374	 0.939860

	symmetry c1
}
set optking {
	frozen_dihedral = ("
		1 2 3 6
	")
}

ee,wfn = optimize('scf', return_wfn=True)
oeprop( wfn, 'DIPOLE', 'QUADRUPOLE', 'MULLIKEN_CHARGES')
f=open( 'psi4out.xyz', 'w' )
f.write( "19  " )
f.write( str(ee) + "\n" )
f.write( MOL.save_string_xyz() )
f.close()
--------------------------------------------------------------------------

    Molecular point group: c1
  Charge       = 0
  Multiplicity = 1
  Basis Set: CC-PVTZ
  Basis Set:
  @DF-RHF Final Energy:  -251.44347343531908
    Total Energy =                       -251.4434734353188787
    Molecular point group: c1
  Basis Set: CC-PVTZ
  Basis Set:
  Basis Set: CC-PVTZ
  Basis Set:
  @DF-RHF Final Energy:  -251.44435079535165
    Total Energy =                       -251.4443507953516814
  Basis Set: CC-PVTZ
  Basis Set:
  Basis Set: CC-PVTZ
  Basis Set:
  @DF-RHF Final Energy:  -251.44452866824247
    Total Energy =                       -251.4445286682424694
  Basis Set: CC-PVTZ
  Basis Set:
  Basis Set: CC-PVTZ
  Basis Set:
  @DF-RHF Final Energy:  -251.44453229915700
    Total Energy =                       -251.4445322991570038
  Basis Set: CC-PVTZ
  Basis Set:
  Charge       = 0
  Multiplicity = 1
  Basis Set: CC-PVTZ
  Basis Set:

    Orbital Energies (a.u.)
    -----------------------

    Doubly Occupied:

       1A    -15.523709     2A    -11.237839     3A    -11.214683
       4A    -11.213668     5A    -11.213059     6A    -11.207416
       7A     -1.175562     8A     -1.076909     9A     -1.001445
      10A     -0.902305    11A     -0.818893    12A     -0.793613
      13A     -0.669882    14A     -0.642066    15A     -0.601841
      16A     -0.600045    17A     -0.567946    18A     -0.552976
      19A     -0.531213    20A     -0.498975    21A     -0.487158
      22A     -0.468334    23A     -0.465519    24A     -0.458618
      25A     -0.377486

  @DF-RHF Final Energy:  -251.44453280314423

   => Energetics <=

    Nuclear Repulsion Energy =            245.9639847000045734
    One-Electron Energy =                -826.2147131331329319
    Two-Electron Energy =                 328.8061956299840745
    DFT Exchange-Correlation Energy =       0.0000000000000000
    Empirical Dispersion Energy =           0.0000000000000000
    PCM Polarization Energy =               0.0000000000000000
    EFP Energy =                            0.0000000000000000
    Total Energy =                       -251.4445328031443410
    Molecular point group: c1
  Basis Set: CC-PVTZ
  Basis Set:

  -Total Gradient:
     Atom            X                  Y                   Z
    ------   -----------------  -----------------  -----------------
       1       -0.000092804581    -0.000157961190    -0.001478042137
       2        0.000015293424    -0.000084528698     0.001673253077
       3        0.000642382470     0.001198028675     0.000571919646
       4       -0.000000365267    -0.000006176041    -0.000018478874
       5        0.000040872050     0.000014523190    -0.000002114505
       6       -0.000559089198    -0.000972468939    -0.000755892810
       7       -0.000031295057     0.000006697738     0.000005102013
       8        0.000014212645    -0.000003731721     0.000002769220
       9        0.000008937589     0.000008851252     0.000001937365
      10       -0.000006418722    -0.000005018588    -0.000010594900
      11       -0.000015675203     0.000005429569     0.000008437588
      12        0.000005106357    -0.000007161445     0.000000253636
      13       -0.000010049954     0.000005313775    -0.000006130170
      14       -0.000010238713    -0.000008644274     0.000007330660
      15        0.000005409493     0.000007660696     0.000001359600
      16       -0.000001481545    -0.000003252417    -0.000001562084
      17        0.000001707102    -0.000002023975    -0.000000540667
      18       -0.000004697492     0.000003197706     0.000000881900
      19       -0.000001805399     0.000001264687     0.000000111442

  **** Optimization is complete! (in 5 steps) ****
    Final optimized geometry and variables:
    Molecular point group: c1

    Geometry (in Angstrom), charge = 0, multiplicity = 1:

    H            2.991186598196    -1.183874505649     0.081238710721
    N            3.131656138327    -0.201488548752    -0.015416877420
    C            1.864379048933     0.525074090668    -0.000397736397
    H            3.623742980283    -0.060921299853    -0.869823664068
    C            0.640710894825    -0.383051094039    -0.044217953736
    H            1.827252842423     1.202517995981    -0.847453411571
    H            1.815328525088     1.140435913427     0.892719467509
    C           -0.678592406216     0.378667389614     0.032945237015
    H            0.669716812811    -0.973622455561    -0.956941963163
    H            0.697528439301    -1.088113442627     0.782682935375
    C           -1.905392359829    -0.528647249532    -0.000132223664
    H           -0.734948990487     1.085213244864    -0.791953249695
    H           -0.698113330804     0.972691788227     0.943277335162
    C           -3.220858370545     0.238933124536     0.076933823642
    H           -1.887979397434    -1.122495946034    -0.909922953932
    H           -1.851579323166    -1.234077010761     0.824523544764
    H           -3.320651651968     0.928978658428    -0.754369807717
    H           -4.070410675508    -0.433804846036     0.051483164033
    H           -3.283804169094     0.816429604335     0.993241979865

  Mulliken Charges: (a.u.)
   Center  Symbol    Alpha    Beta     Spin     Total
       1     H     0.42866  0.42866  0.00000  0.14268
       2     N     3.69605  3.69605  0.00000 -0.39209
       3     C     3.01741  3.01741  0.00000 -0.03483
       4     H     0.42824  0.42824  0.00000  0.14352
       5     C     3.09020  3.09020  0.00000 -0.18039
       6     H     0.46184  0.46184  0.00000  0.07632
       7     H     0.46116  0.46116  0.00000  0.07768
       8     C     3.09419  3.09419  0.00000 -0.18838
       9     H     0.45717  0.45717  0.00000  0.08567
      10     H     0.45535  0.45535  0.00000  0.08930
      11     C     3.08338  3.08338  0.00000 -0.16677
      12     H     0.45512  0.45512  0.00000  0.08975
      13     H     0.45374  0.45374  0.00000  0.09252
      14     C     3.14995  3.14995  0.00000 -0.29991
      15     H     0.45479  0.45479  0.00000  0.09043
      16     H     0.45432  0.45432  0.00000  0.09137
      17     H     0.45523  0.45523  0.00000  0.08955
      18     H     0.44840  0.44840  0.00000  0.10319
      19     H     0.45480  0.45480  0.00000  0.09039

   Total alpha = 25.00000, Total beta = 25.00000, Total charge = -0.00000

*** Psi4 exiting successfully. Buy a developer a beer!
