  ==> Input File <==

--------------------------------------------------------------------------
set {
	reference rhf
	basis 6-31G*
}

set_num_threads( 4 )
memory 2 gb

molecule MOL {
0 1

H	 -0.454288	 -1.543907	 0.435384
N	 -0.626943	 -0.667432	 -0.000092
C	 -1.979713	 -0.158776	 0.000050
C	 0.416778	 -0.010400	 -0.561449
H	 -2.520245	 -0.492427	 -0.879443
H	 -1.934741	 0.918111	 -0.004428
H	 -2.517790	 -0.485056	 0.883818
C	 1.747252	 -0.726967	 -0.445887
O	 0.307372	 1.052217	 -1.108342
H	 1.703355	 -1.696407	 -0.932315
H	 2.510001	 -0.125343	 -0.917013
H	 2.007762	 -0.885970	 0.595837

	symmetry c1
}
set optking {
	frozen_dihedral = ("
		4 2 3 5
	")
}

ee = optimize('scf')
oeprop('DIPOLE', 'QUADRUPOLE', 'MULLIKEN_CHARGES')
f=open( 'psi4out.xyz', 'w' )
f.write( "12  " )
f.write( str(ee) + "\n" )
f.write( MOL.save_string_xyz() )
f.close()
--------------------------------------------------------------------------

    Molecular point group: c1
  Charge       = 0
  Multiplicity = 1
  Basis Set: 6-31G*
  Basis Set:
  @DF-RHF Final Energy:  -247.00529073531288
    Total Energy =                       -247.0052907353129399
    Molecular point group: c1
  Basis Set: 6-31G*
  Basis Set:
  Basis Set: 6-31G*
  Basis Set:
  @DF-RHF Final Energy:  -247.00551924906134
    Total Energy =                       -247.0055192490615354
  Basis Set: 6-31G*
  Basis Set:
  Basis Set: 6-31G*
  Basis Set:
  @DF-RHF Final Energy:  -247.00554621583493
    Total Energy =                       -247.0055462158347837
  Basis Set: 6-31G*
  Basis Set:
  Basis Set: 6-31G*
  Basis Set:
  @DF-RHF Final Energy:  -247.00557578548165
    Total Energy =                       -247.0055757854815397
  Basis Set: 6-31G*
  Basis Set:
  Basis Set: 6-31G*
  Basis Set:
  @DF-RHF Final Energy:  -247.00560239265417
    Total Energy =                       -247.0056023926541684
  Basis Set: 6-31G*
  Basis Set:
  Basis Set: 6-31G*
  Basis Set:
  @DF-RHF Final Energy:  -247.00561052360578
    Total Energy =                       -247.0056105236058670
  Basis Set: 6-31G*
  Basis Set:
  Charge       = 0
  Multiplicity = 1
  Basis Set: 6-31G*
  Basis Set:

    Orbital Energies (a.u.)
    -----------------------

    Doubly Occupied:

       1A    -20.516329     2A    -15.580926     3A    -11.342385
       4A    -11.254304     5A    -11.229703     6A     -1.384452
       7A     -1.227749     8A     -1.015524     9A     -0.931526
      10A     -0.786500    11A     -0.688976    12A     -0.647666
      13A     -0.632518    14A     -0.585083    15A     -0.579664
      16A     -0.555360    17A     -0.544919    18A     -0.505990
      19A     -0.413230    20A     -0.384626

  @DF-RHF Final Energy:  -247.00561148443512

   => Energetics <=

    Nuclear Repulsion Energy =            181.3551851831546173
    One-Electron Energy =                -695.1067350725097640
    Two-Electron Energy =                 266.7459384049197979
    DFT Exchange-Correlation Energy =       0.0000000000000000
    Empirical Dispersion Energy =           0.0000000000000000
    PCM Polarization Energy =               0.0000000000000000
    EFP Energy =                            0.0000000000000000
    Total Energy =                       -247.0056114844353488
    Molecular point group: c1
  Basis Set: 6-31G*
  Basis Set:

  -Total Gradient:
     Atom            X                  Y                   Z
    ------   -----------------  -----------------  -----------------
       1        0.000011100473     0.000042246148     0.000088101072
       2       -0.000082224594    -0.000296631268    -0.000464836525
       3        0.000116231194     0.000376033776    -0.000044980671
       4        0.000026176907     0.000075796515     0.000236399599
       5       -0.000077126281    -0.000207478469     0.000141599067
       6        0.000009033445    -0.000002183467     0.000025458544
       7       -0.000010572809    -0.000023703012    -0.000013758263
       8        0.000005435191     0.000006665820    -0.000016687875
       9       -0.000007606408     0.000034371690     0.000032683479
      10        0.000000716500    -0.000015452142     0.000029569195
      11       -0.000002217264    -0.000013025514    -0.000018673941
      12        0.000011053646     0.000023359924     0.000005126319

  **** Optimization is complete! (in 7 steps) ****
    Final optimized geometry and variables:
    Molecular point group: c1

    Geometry (in Angstrom), charge = 0, multiplicity = 1:

    H           -0.427598258308    -1.463963510953     0.816777513655
    N           -0.580829775901    -0.553878272599     0.448638071890
    C           -1.935567687682    -0.050972341255     0.403343356095
    C            0.456103310479     0.091067614003    -0.138133589208
    H           -2.479464869735    -0.422397285144    -0.459865873727
    H           -1.907331639015     1.026188508236     0.355328784670
    H           -2.461499369615    -0.351560563176     1.301187638545
    C            1.787894244469    -0.625065602618    -0.038680567628
    O            0.335852940982     1.151610936056    -0.686574944706
    H            1.744350476281    -1.583253594953    -0.547457231548
    H            2.549127942619    -0.013031919636    -0.498771988747
    H            2.050016584108    -0.807962664741     0.998464882827

  Mulliken Charges: (a.u.)
   Center  Symbol    Alpha    Beta     Spin     Total
       1     H     0.31082  0.31082  0.00000  0.37836
       2     N     3.89095  3.89095  0.00000 -0.78190
       3     C     3.13834  3.13834  0.00000 -0.27668
       4     C     2.63163  2.63163  0.00000  0.73674
       5     H     0.41537  0.41537  0.00000  0.16925
       6     H     0.39134  0.39134  0.00000  0.21732
       7     H     0.41709  0.41709  0.00000  0.16582
       8     C     3.29507  3.29507  0.00000 -0.59013
       9     O     4.30176  4.30176  0.00000 -0.60353
      10     H     0.40831  0.40831  0.00000  0.18338
      11     H     0.39191  0.39191  0.00000  0.21618
      12     H     0.40741  0.40741  0.00000  0.18519

   Total alpha = 20.00000, Total beta = 20.00000, Total charge =  0.00000
