  ==> Input File <==

--------------------------------------------------------------------------
set {
	reference rhf
	basis cc-pvtz
}

set_num_threads( 4 )
memory 2 gb

molecule MOL {
0 1

H	 3.833227	 0.453099	 -0.494481
N	 3.044995	 -0.158332	 -0.473052
C	 1.860978	 0.530248	 0.016256
H	 3.282791	 -0.924629	 0.121583
C	 0.644130	 -0.381765	 -0.031064
H	 1.689174	 1.389324	 -0.623571
H	 1.982202	 0.914429	 1.029994
C	 -0.678115	 0.376691	 0.025731
H	 0.693998	 -0.977147	 -0.936845
H	 0.693309	 -1.082142	 0.800523
C	 -1.900706	 -0.535531	 -0.022488
H	 -0.725296	 1.079516	 -0.802982
H	 -0.715474	 0.974884	 0.933278
C	 -3.220513	 0.226854	 0.028039
H	 -1.865036	 -1.134397	 -0.928236
H	 -1.857948	 -1.236381	 0.806820
H	 -3.309098	 0.911849	 -0.808725
H	 -4.066838	 -0.449485	 -0.008086
H	 -3.301685	 0.809374	 0.939860

	symmetry c1
}
set optking {
	frozen_dihedral = ("
		6 3 5 9
	")
}

ee = optimize('scf')
oeprop('DIPOLE', 'QUADRUPOLE', 'MULLIKEN_CHARGES')
f=open( 'psi4out.xyz', 'w' )
f.write( "19  " )
f.write( str(ee) + "\n" )
f.write( MOL.save_string_xyz() )
f.close()
--------------------------------------------------------------------------

    Molecular point group: c1
  Charge       = 0
  Multiplicity = 1
  Basis Set: CC-PVTZ
  Basis Set:
  @DF-RHF Final Energy:  -251.44693121023423
    Total Energy =                       -251.4469312102341974
    Molecular point group: c1
  Basis Set: CC-PVTZ
  Basis Set:
  Basis Set: CC-PVTZ
  Basis Set:
  @DF-RHF Final Energy:  -251.44708023018435
    Total Energy =                       -251.4470802301844969
  Basis Set: CC-PVTZ
  Basis Set:
  Basis Set: CC-PVTZ
  Basis Set:
  @DF-RHF Final Energy:  -251.44710961148365
    Total Energy =                       -251.4471096114835973
  Basis Set: CC-PVTZ
  Basis Set:
  Charge       = 0
  Multiplicity = 1
  Basis Set: CC-PVTZ
  Basis Set:

    Orbital Energies (a.u.)
    -----------------------

    Doubly Occupied:

       1A    -15.526963     2A    -11.237832     3A    -11.211883
       4A    -11.210739     5A    -11.207570     6A    -11.205411
       7A     -1.178416     8A     -1.074315     9A     -0.999480
      10A     -0.900994    11A     -0.813635    12A     -0.790237
      13A     -0.661159    14A     -0.648027    15A     -0.616085
      16A     -0.592648    17A     -0.562102    18A     -0.548845
      19A     -0.534816    20A     -0.495747    21A     -0.480831
      22A     -0.465194    23A     -0.460672    24A     -0.452068
      25A     -0.383538

  @DF-RHF Final Energy:  -251.44711047139359

   => Energetics <=

    Nuclear Repulsion Energy =            246.0061939191985800
    One-Electron Energy =                -826.3881999104200986
    Two-Electron Energy =                 328.9348955198280464
    DFT Exchange-Correlation Energy =       0.0000000000000000
    Empirical Dispersion Energy =           0.0000000000000000
    PCM Polarization Energy =               0.0000000000000000
    EFP Energy =                            0.0000000000000000
    Total Energy =                       -251.4471104713934437
    Molecular point group: c1
  Basis Set: CC-PVTZ
  Basis Set:

  -Total Gradient:
     Atom            X                  Y                   Z
    ------   -----------------  -----------------  -----------------
       1        0.000011176824     0.000029647889    -0.000003884342
       2        0.000008252412    -0.000048882897    -0.000041776271
       3        0.002038679652    -0.002544264162    -0.002782344366
       4       -0.000000070456     0.000002198572     0.000023056242
       5       -0.002365618019     0.003318055183    -0.001351475787
       6       -0.001364712465     0.001610056583     0.002577361677
       7       -0.000007253800     0.000018802740     0.000011118285
       8        0.000011362251     0.000024658944    -0.000052690638
       9        0.001634415142    -0.002362101469     0.001629334467
      10        0.000023980761    -0.000027486967     0.000000697787
      11        0.000005807989    -0.000006892889    -0.000022279933
      12        0.000002467881    -0.000001578121    -0.000003305750
      13        0.000017338237    -0.000010159359    -0.000014107729
      14       -0.000011404280    -0.000008548383     0.000027264681
      15       -0.000000915828     0.000012730238    -0.000003821705
      16        0.000002171406    -0.000005551916    -0.000007808459
      17        0.000007308752    -0.000012827154     0.000002564716
      18       -0.000008139487     0.000002230086     0.000010660289
      19       -0.000004846974     0.000009913081     0.000001436836

  **** Optimization is complete! (in 4 steps) ****
    Final optimized geometry and variables:
    Molecular point group: c1

    Geometry (in Angstrom), charge = 0, multiplicity = 1:

    H            3.864211561490     0.432115130316    -0.314981343264
    N            3.069275379834    -0.169344047291    -0.363413653157
    C            1.867566770892     0.518176293791     0.079557626926
    H            3.262485713398    -0.956927334270     0.219984719158
    C            0.646065724766    -0.389007566984    -0.005472555221
    H            1.715574164833     1.390402376070    -0.547476253363
    H            1.950135771486     0.898572315885     1.099223980304
    C           -0.676338864677     0.365263075912     0.070510985726
    H            0.709455411541    -0.969698942000    -0.919937016283
    H            0.691065177997    -1.113740761471     0.805943519604
    C           -1.896927367846    -0.550584551956     0.062753806606
    H           -0.742627863953     1.056298568750    -0.766210379135
    H           -0.694209147948     0.975489308296     0.971001891999
    C           -3.217447167977     0.209380618861     0.128400609554
    H           -1.878045686420    -1.163707851883    -0.833960190479
    H           -1.835140197340    -1.237643810263     0.902243982311
    H           -3.326198513129     0.878784489878    -0.718475852474
    H           -4.062459719812    -0.469582302439     0.123155723783
    H           -3.280192952974     0.808106328887     1.031160437580

  Mulliken Charges: (a.u.)
   Center  Symbol    Alpha    Beta     Spin     Total
       1     H     0.43061  0.43061  0.00000  0.13877
       2     N     3.68713  3.68713  0.00000 -0.37426
       3     C     3.02607  3.02607  0.00000 -0.05214
       4     H     0.43110  0.43110  0.00000  0.13780
       5     C     3.08571  3.08571  0.00000 -0.17142
       6     H     0.45899  0.45899  0.00000  0.08203
       7     H     0.46847  0.46847  0.00000  0.06306
       8     C     3.09133  3.09133  0.00000 -0.18266
       9     H     0.44866  0.44866  0.00000  0.10268
      10     H     0.45980  0.45980  0.00000  0.08040
      11     C     3.08353  3.08353  0.00000 -0.16706
      12     H     0.45382  0.45382  0.00000  0.09236
      13     H     0.45669  0.45669  0.00000  0.08662
      14     C     3.15003  3.15003  0.00000 -0.30006
      15     H     0.45371  0.45371  0.00000  0.09258
      16     H     0.45504  0.45504  0.00000  0.08992
      17     H     0.45505  0.45505  0.00000  0.08991
      18     H     0.44857  0.44857  0.00000  0.10285
      19     H     0.45570  0.45570  0.00000  0.08861

   Total alpha = 25.00000, Total beta = 25.00000, Total charge = -0.00000
