  ==> Input File <==

--------------------------------------------------------------------------
set {
	reference rhf
	basis cc-pvtz
}

set_num_threads( 4 )
memory 2 gb

molecule MOL {
0 1

H	 0.119234	 -0.012926	 0.000215
N	 -0.625934	 -0.663929	 -0.000707
C	 -1.978635	 -0.158664	 0.001017
C	 -0.319363	 -1.980202	 -0.005477
H	 -2.519057	 -0.493535	 -0.876362
H	 -1.938890	 0.917202	 -0.004137
H	 -2.514266	 -0.485137	 0.884506
C	 1.163143	 -2.281809	 -0.010877
O	 -1.143924	 -2.845730	 -0.011380
H	 1.637121	 -1.864696	 0.870009
H	 1.302637	 -3.350215	 -0.021653
H	 1.635226	 -1.847079	 -0.884242

	symmetry c1
}
set optking {
	frozen_dihedral = ("
		4 2 3 5
	")
}

ee = optimize('scf')
oeprop('DIPOLE', 'QUADRUPOLE', 'MULLIKEN_CHARGES')
f=open( 'psi4out.xyz', 'w' )
f.write( "12  " )
f.write( str(ee) + "\n" )
f.write( MOL.save_string_xyz() )
f.close()
--------------------------------------------------------------------------

    Molecular point group: c1
  Charge       = 0
  Multiplicity = 1
  Basis Set: CC-PVTZ
  Basis Set:
  @DF-RHF Final Energy:  -247.10104042414773
    Total Energy =                       -247.1010404241476408
    Molecular point group: c1
  Basis Set: CC-PVTZ
  Basis Set:
  Basis Set: CC-PVTZ
  Basis Set:
  @DF-RHF Final Energy:  -247.10122381985880
    Total Energy =                       -247.1012238198587170
  Basis Set: CC-PVTZ
  Basis Set:
  Basis Set: CC-PVTZ
  Basis Set:
  @DF-RHF Final Energy:  -247.10093908802926
    Total Energy =                       -247.1009390880290653
  Basis Set: CC-PVTZ
  Basis Set:
  Charge       = 0
  Multiplicity = 1
  Basis Set: CC-PVTZ
  Basis Set:

    Orbital Energies (a.u.)
    -----------------------

    Doubly Occupied:

       1A    -20.507091     2A    -15.574262     3A    -11.334897
       4A    -11.254076     5A    -11.228075     6A     -1.388825
       7A     -1.230422     8A     -1.016404     9A     -0.933020
      10A     -0.789571    11A     -0.690470    12A     -0.650864
      13A     -0.636472    14A     -0.584361    15A     -0.582632
      16A     -0.558599    17A     -0.546941    18A     -0.507135
      19A     -0.417273    20A     -0.390429

  @DF-RHF Final Energy:  -247.10128202971126

   => Energetics <=

    Nuclear Repulsion Energy =            181.8939900042134639
    One-Electron Energy =                -696.3469074618103605
    Two-Electron Energy =                 267.3516354278856966
    DFT Exchange-Correlation Energy =       0.0000000000000000
    Empirical Dispersion Energy =           0.0000000000000000
    PCM Polarization Energy =               0.0000000000000000
    EFP Energy =                            0.0000000000000000
    Total Energy =                       -247.1012820297111716
    Molecular point group: c1
  Basis Set: CC-PVTZ
  Basis Set:

  -Total Gradient:
     Atom            X                  Y                   Z
    ------   -----------------  -----------------  -----------------
       1       -0.000001602179     0.000060195822     0.000003157625
       2       -0.000110143721     0.000034159322     0.000040527114
       3        0.000210842833    -0.000211174371    -0.000011410497
       4       -0.000283116539    -0.000038283043    -0.000116991434
       5       -0.000003871000    -0.000000760597     0.000073284892
       6        0.000016005466     0.000146922105     0.000000213730
       7       -0.000006182582    -0.000000506137    -0.000070258169
       8        0.000114005501     0.000063739808     0.000045506715
       9        0.000124766813    -0.000000829996     0.000038691341
      10       -0.000007439738    -0.000014980013     0.000003354736
      11       -0.000009771912    -0.000025947751    -0.000001424101
      12       -0.000043492945    -0.000012535152    -0.000004651951

  **** Optimization is complete! (in 4 steps) ****
    Final optimized geometry and variables:
    Molecular point group: c1

    Geometry (in Angstrom), charge = 0, multiplicity = 1:

    H            0.714170787253     1.577429772742     0.004232425391
    N           -0.022956655590     0.918906270182     0.002315751500
    C           -1.387505542752     1.392679731963     0.006897132267
    C            0.273809900502    -0.397371200925    -0.002029692598
    H           -1.922859264923     1.046223052408    -0.866556212173
    H           -1.378349537181     2.473645400541     0.006175694001
    H           -1.917231015933     1.047340169732     0.884310258499
    C            1.750171238396    -0.725744108439    -0.004819439713
    O           -0.572576250655    -1.241801280125    -0.002829123361
    H            2.230658858359    -0.315315128805     0.875703071935
    H            1.870563565914    -1.796693941052    -0.013014396371
    H            2.230809141847    -0.301604837789    -0.878697990221

  Mulliken Charges: (a.u.)
   Center  Symbol    Alpha    Beta     Spin     Total
       1     H     0.41153  0.41153  0.00000  0.17693
       2     N     3.61763  3.61763  0.00000 -0.23526
       3     C     3.07596  3.07596  0.00000 -0.15191
       4     C     2.83770  2.83770  0.00000  0.32459
       5     H     0.44940  0.44940  0.00000  0.10120
       6     H     0.45623  0.45623  0.00000  0.08755
       7     H     0.44962  0.44962  0.00000  0.10076
       8     C     3.15355  3.15355  0.00000 -0.30710
       9     O     4.21501  4.21501  0.00000 -0.43003
      10     H     0.44976  0.44976  0.00000  0.10049
      11     H     0.43369  0.43369  0.00000  0.13262
      12     H     0.44992  0.44992  0.00000  0.10016

   Total alpha = 20.00000, Total beta = 20.00000, Total charge =  0.00000
