  ==> Input File <==

--------------------------------------------------------------------------
set {
	reference rhf
	basis 6-31G*
}

set_num_threads( 1 )
memory 2 gb

molecule MOL {
0 1

O	 -2.679933	 0.975145	 0.036627
C	 -1.921153	 0.064240	 -0.045697
C	 -2.287461	 -1.326817	 -0.487428
O	 -0.632575	 0.154573	 0.251549
H	 -2.054978	 -2.034317	 0.300190
H	 -3.340653	 -1.367202	 -0.721931
H	 -1.702329	 -1.600560	 -1.357740
C	 0.160891	 -1.019931	 0.106212
C	 1.589627	 -0.672828	 0.480843
H	 0.089836	 -1.367806	 -0.916050
H	 -0.238459	 -1.792301	 0.749618
C	 2.246377	 0.346236	 -0.452210
H	 2.163194	 -1.597435	 0.473358
H	 1.604769	 -0.303424	 1.502885
C	 3.691736	 0.652107	 -0.061850
H	 2.219579	 -0.032311	 -1.472055
H	 1.666466	 1.263317	 -0.447249
H	 4.134505	 1.377213	 -0.737283
H	 4.305508	 -0.243868	 -0.089969
H	 3.748266	 1.059562	 0.943567

	symmetry c1
}
set optking {
	frozen_dihedral = ("
		16 12 9 8,
		2 4 8 10,
		12 9 8 10
	")
}

ee = energy('scf')
oeprop('DIPOLE', 'QUADRUPOLE', 'MULLIKEN_CHARGES')
f=open( 'psi4out.xyz', 'w' )
f.write( "20  " )
f.write( str(ee) + "\n" )
f.write( MOL.save_string_xyz() )
f.close()
--------------------------------------------------------------------------

    Molecular point group: c1

    Geometry (in Angstrom), charge = 0, multiplicity = 1:

       Center              X                  Y                   Z               Mass
    ------------   -----------------  -----------------  -----------------  -----------------
           O         -2.692606500032     1.079425388870     0.059875215808    15.994914619560
           C         -1.933826500032     0.168520388870    -0.022448784192    12.000000000000
           C         -2.300134500032    -1.222536611130    -0.464179784192    12.000000000000
           O         -0.645248500032     0.258853388870     0.274797215808    15.994914619560
           H         -2.067651500032    -1.930036611130     0.323438215808     1.007825032070
           H         -3.353326500032    -1.262921611130    -0.698682784192     1.007825032070
           H         -1.715002500032    -1.496279611130    -1.334491784192     1.007825032070
           C          0.148217499968    -0.915650611130     0.129460215808    12.000000000000
           C          1.576953499968    -0.568547611130     0.504091215808    12.000000000000
           H          0.077162499968    -1.263525611130    -0.892801784192     1.007825032070
           H         -0.251132500032    -1.688020611130     0.772866215808     1.007825032070
           C          2.233703499968     0.450516388870    -0.428961784192    12.000000000000
           H          2.150520499968    -1.493154611130     0.496606215808     1.007825032070
           H          1.592095499968    -0.199143611130     1.526133215808     1.007825032070
           C          3.679062499968     0.756387388870    -0.038601784192    12.000000000000
           H          2.206905499968     0.071969388870    -1.448806784192     1.007825032070
           H          1.653792499968     1.367597388870    -0.424000784192     1.007825032070
           H          4.121831499968     1.481493388870    -0.714034784192     1.007825032070
           H          4.292834499968    -0.139587611130    -0.066720784192     1.007825032070
           H          3.735592499968     1.163842388870     0.966815215808     1.007825032070

  Charge       = 0
  Multiplicity = 1
  Basis Set: 6-31G*
  Basis Set:

    Orbital Energies (a.u.)
    -----------------------

    Doubly Occupied:

       1A    -20.606309     2A    -20.541054     3A    -11.376498
       4A    -11.299255     5A    -11.238823     6A    -11.233185
       7A    -11.223963     8A    -11.215629     9A     -1.467406
      10A     -1.367849    11A     -1.089263    12A     -1.023975
      13A     -1.005221    14A     -0.892588    15A     -0.816107
      16A     -0.783469    17A     -0.702795    18A     -0.699803
      19A     -0.665456    20A     -0.636503    21A     -0.601319
      22A     -0.597053    23A     -0.573450    24A     -0.560852
      25A     -0.549687    26A     -0.539586    27A     -0.524289
      28A     -0.489847    29A     -0.480611    30A     -0.478564
      31A     -0.443027    32A     -0.431074

  @DF-RHF Final Energy:  -383.91980561374123

   => Energetics <=

    Nuclear Repulsion Energy =            387.6843345841242581
    One-Electron Energy =               -1290.8991872313374643
    Two-Electron Energy =                 519.2950470334723150
    DFT Exchange-Correlation Energy =       0.0000000000000000
    Empirical Dispersion Energy =           0.0000000000000000
    PCM Polarization Energy =               0.0000000000000000
    EFP Energy =                            0.0000000000000000
    Total Energy =                       -383.9198056137408912

  Mulliken Charges: (a.u.)
   Center  Symbol    Alpha    Beta     Spin     Total
       1     O     4.27286  4.27286  0.00000 -0.54573
       2     C     2.60464  2.60464  0.00000  0.79072
       3     C     3.31896  3.31896  0.00000 -0.63791
       4     O     4.29976  4.29976  0.00000 -0.59951
       5     H     0.40205  0.40205  0.00000  0.19590
       6     H     0.38773  0.38773  0.00000  0.22455
       7     H     0.40198  0.40198  0.00000  0.19604
       8     C     3.01107  3.01107  0.00000 -0.02214
       9     C     3.15781  3.15781  0.00000 -0.31562
      10     H     0.41655  0.41655  0.00000  0.16690
      11     H     0.41348  0.41348  0.00000  0.17303
      12     C     3.15698  3.15698  0.00000 -0.31396
      13     H     0.41932  0.41932  0.00000  0.16136
      14     H     0.40955  0.40955  0.00000  0.18091
      15     C     3.24106  3.24106  0.00000 -0.48213
      16     H     0.42475  0.42475  0.00000  0.15050
      17     H     0.40406  0.40406  0.00000  0.19188
      18     H     0.41590  0.41590  0.00000  0.16821
      19     H     0.42265  0.42265  0.00000  0.15471
      20     H     0.41885  0.41885  0.00000  0.16230

   Total alpha = 32.00000, Total beta = 32.00000, Total charge =  0.00000
