  ==> Input File <==

--------------------------------------------------------------------------
set {
	reference rhf
	basis 6-31G*
}

set_num_threads( 4 )
memory 2 gb

molecule MOL {
0 1

H	 -3.246233	 -0.966892	 -0.412327
O	 -2.310168	 -0.871793	 -0.309793
C	 -2.026376	 0.340750	 0.341611
C	 -0.673256	 0.843270	 -0.132153
H	 -2.792215	 1.080697	 0.115987
H	 -2.013526	 0.200402	 1.421792
C	 0.486613	 -0.083066	 0.235839
H	 -0.715586	 0.970948	 -1.210718
H	 -0.508072	 1.829858	 0.297090
C	 1.840406	 0.433480	 -0.254303
H	 0.300215	 -1.068318	 -0.178947
H	 0.519509	 -0.203625	 1.318070
C	 3.000220	 -0.489290	 0.118523
H	 1.809207	 0.553576	 -1.335192
H	 2.021860	 1.424500	 0.157276
H	 2.864959	 -1.479103	 -0.307933
H	 3.946603	 -0.099227	 -0.243630
H	 3.080049	 -0.602997	 1.196117

	symmetry c1
}
set optking {
	frozen_dihedral = ("
		1 2 3 4
	")
}

ee = optimize('scf')
oeprop('DIPOLE', 'QUADRUPOLE', 'MULLIKEN_CHARGES')
f=open( 'psi4out.xyz', 'w' )
f.write( "18  " )
f.write( str(ee) + "\n" )
f.write( MOL.save_string_xyz() )
f.close()
--------------------------------------------------------------------------

    Molecular point group: c1
  Charge       = 0
  Multiplicity = 1
  Basis Set: 6-31G*
  Basis Set:
  @DF-RHF Final Energy:  -271.17875037408550
    Total Energy =                       -271.1787503740854390
    Molecular point group: c1
  Basis Set: 6-31G*
  Basis Set:
  Basis Set: 6-31G*
  Basis Set:
  @DF-RHF Final Energy:  -271.17879895620285
    Total Energy =                       -271.1787989562028542
  Basis Set: 6-31G*
  Basis Set:
  Basis Set: 6-31G*
  Basis Set:
  @DF-RHF Final Energy:  -271.17881723994407
    Total Energy =                       -271.1788172399439532
  Basis Set: 6-31G*
  Basis Set:
  Basis Set: 6-31G*
  Basis Set:
  @DF-RHF Final Energy:  -271.17881829034479
    Total Energy =                       -271.1788182903447364
  Basis Set: 6-31G*
  Basis Set:
  Basis Set: 6-31G*
  Basis Set:
  @DF-RHF Final Energy:  -271.17881964348618
    Total Energy =                       -271.1788196434861220
  Basis Set: 6-31G*
  Basis Set:
  Charge       = 0
  Multiplicity = 1
  Basis Set: 6-31G*
  Basis Set:

    Orbital Energies (a.u.)
    -----------------------

    Doubly Occupied:

       1A    -20.552083     2A    -11.268167     3A    -11.211657
       4A    -11.210383     5A    -11.205835     6A    -11.204044
       7A     -1.358702     8A     -1.074343     9A     -1.008373
      10A     -0.912806    11A     -0.818007    12A     -0.784341
      13A     -0.702283    14A     -0.647113    15A     -0.618780
      16A     -0.579608    17A     -0.573966    18A     -0.552856
      19A     -0.517714    20A     -0.510668    21A     -0.488806
      22A     -0.466274    23A     -0.457794    24A     -0.441481
      25A     -0.430527

  @DF-RHF Final Energy:  -271.17881975921341

   => Energetics <=

    Nuclear Repulsion Energy =            248.9627904262528375
    One-Electron Energy =                -861.0900015314593929
    Two-Electron Energy =                 340.9483913459930591
    DFT Exchange-Correlation Energy =       0.0000000000000000
    Empirical Dispersion Energy =           0.0000000000000000
    PCM Polarization Energy =               0.0000000000000000
    EFP Energy =                            0.0000000000000000
    Total Energy =                       -271.1788197592135248
    Molecular point group: c1
  Basis Set: 6-31G*
  Basis Set:

  -Total Gradient:
     Atom            X                  Y                   Z
    ------   -----------------  -----------------  -----------------
       1        0.000075290004     0.000815514426    -0.001687462070
       2       -0.000301483595    -0.000808707173     0.001752082782
       3        0.000722286418    -0.000585137760     0.000785282753
       4       -0.000498472250     0.000554067337    -0.000853519010
       5       -0.000013399664    -0.000000390890    -0.000000818076
       6        0.000014842002     0.000007826763     0.000005034023
       7        0.000003058827     0.000000431306    -0.000010218177
       8       -0.000006912223    -0.000005707343     0.000008934166
       9        0.000014254787     0.000011228414    -0.000008791589
      10       -0.000001848229     0.000010446603     0.000012081228
      11        0.000001509859    -0.000000717789    -0.000002690783
      12       -0.000002616789     0.000006437214     0.000002057810
      13       -0.000004161259    -0.000006953854    -0.000007457270
      14       -0.000001884222     0.000002628128     0.000003437811
      15       -0.000000174820     0.000000321283     0.000003096884
      16        0.000000443679    -0.000003559105     0.000002928701
      17       -0.000001992481    -0.000001591028    -0.000003925505
      18        0.000001259956     0.000003863470    -0.000000053679

  **** Optimization is complete! (in 6 steps) ****
    Final optimized geometry and variables:
    Molecular point group: c1

    Geometry (in Angstrom), charge = 0, multiplicity = 1:

    H           -3.236601409241    -0.993249115635    -0.393861414379
    O           -2.303225593462    -0.889283028734    -0.285257095790
    C           -2.026087331630     0.341835145703     0.338237634753
    C           -0.671658593506     0.849012684499    -0.129272490584
    H           -2.790218143916     1.074578734494     0.088028395278
    H           -2.031869526965     0.221550524318     1.420058405585
    C            0.485949665392    -0.081647591860     0.235530656311
    H           -0.710589354229     0.983436833043    -1.207068552584
    H           -0.505313212255     1.831702384760     0.309062881579
    C            1.841654233450     0.434429607291    -0.249738194084
    H            0.298130827047    -1.064414333882    -0.185036158446
    H            0.516234594099    -0.208535415694     1.316977140734
    C            2.998325093351    -0.494903880810     0.116465390955
    H            1.811562757493     0.563085480202    -1.329690546532
    H            2.025875438150     1.421680105501     0.169728072885
    H            2.859350625737    -1.481435338241    -0.316401616647
    H            3.945956945536    -0.105792148028    -0.243441219268
    H            3.078016507581    -0.616041107327     1.193202816052

  Mulliken Charges: (a.u.)
   Center  Symbol    Alpha    Beta     Spin     Total
       1     H     0.27975  0.27975  0.00000  0.44051
       2     O     4.37133  4.37133  0.00000 -0.74266
       3     C     2.99796  2.99796  0.00000  0.00409
       4     C     3.15792  3.15792  0.00000 -0.31583
       5     H     0.43031  0.43031  0.00000  0.13938
       6     H     0.42922  0.42922  0.00000  0.14156
       7     C     3.15368  3.15368  0.00000 -0.30736
       8     H     0.41794  0.41794  0.00000  0.16412
       9     H     0.42523  0.42523  0.00000  0.14954
      10     C     3.15164  3.15164  0.00000 -0.30328
      11     H     0.40748  0.40748  0.00000  0.18504
      12     H     0.42651  0.42651  0.00000  0.14698
      13     C     3.23889  3.23889  0.00000 -0.47779
      14     H     0.42296  0.42296  0.00000  0.15408
      15     H     0.42541  0.42541  0.00000  0.14918
      16     H     0.42078  0.42078  0.00000  0.15844
      17     H     0.42056  0.42056  0.00000  0.15888
      18     H     0.42244  0.42244  0.00000  0.15513

   Total alpha = 25.00000, Total beta = 25.00000, Total charge =  0.00000
