  ==> Input File <==

--------------------------------------------------------------------------
set {
	reference rhf
	basis 6-31G*
}

set_num_threads( 1 )
memory 2 gb

molecule MOL {
0 1

H	 1.361832	 3.593289	 2.561384
N	 0.529989	 3.039153	 2.494174
C	 0.556479	 2.211807	 1.296542
H	 -0.241652	 3.678208	 2.462395
C	 -0.664319	 1.299118	 1.247498
H	 1.456236	 1.605315	 1.334791
H	 0.610756	 2.794480	 0.373533
C	 -0.679275	 0.379305	 0.025956
H	 -0.689933	 0.711258	 2.160514
H	 -1.566134	 1.910726	 1.249110
C	 -1.903357	 -0.536963	 -0.023547
H	 0.223190	 -0.230113	 0.022168
H	 -0.645087	 0.979030	 -0.882344
C	 -3.225172	 0.228290	 0.028445
H	 -1.867824	 -1.134999	 -0.931459
H	 -1.860449	 -1.239604	 0.805977
H	 -3.313397	 0.915643	 -0.808262
H	 -4.073500	 -0.448134	 -0.008893
H	 -3.306061	 0.809945	 0.942516

	symmetry c1
}
set optking {
	frozen_dihedral = ("
		6 3 5 9,
		12 8 5 9,
		1 2 3 6
	")
}

ee = energy('scf')
oeprop('DIPOLE', 'QUADRUPOLE', 'MULLIKEN_CHARGES')
f=open( 'psi4out.xyz', 'w' )
f.write( "19  " )
f.write( str(ee) + "\n" )
f.write( MOL.save_string_xyz() )
f.close()
--------------------------------------------------------------------------

    Molecular point group: c1

    Geometry (in Angstrom), charge = 0, multiplicity = 1:

       Center              X                  Y                   Z               Mass
    ------------   -----------------  -----------------  -----------------  -----------------
           H          2.252565212780     2.449949787367     1.698298508852     1.007825032070
           N          1.420722212780     1.895813787367     1.631088508852    14.003074004780
           C          1.447212212780     1.068467787367     0.433456508852    12.000000000000
           H          0.649081212780     2.534868787367     1.599309508852     1.007825032070
           C          0.226414212780     0.155778787367     0.384412508852    12.000000000000
           H          2.346969212780     0.461975787367     0.471705508852     1.007825032070
           H          1.501489212780     1.651140787367    -0.489552491148     1.007825032070
           C          0.211458212780    -0.764034212633    -0.837129491148    12.000000000000
           H          0.200800212780    -0.432081212633     1.297428508852     1.007825032070
           H         -0.675400787220     0.767386787367     0.386024508852     1.007825032070
           C         -1.012623787220    -1.680302212633    -0.886632491148    12.000000000000
           H          1.113923212780    -1.373452212633    -0.840917491148     1.007825032070
           H          0.245646212780    -0.164309212633    -1.745429491148     1.007825032070
           C         -2.334438787220    -0.915049212633    -0.834640491148    12.000000000000
           H         -0.977090787220    -2.278338212633    -1.794544491148     1.007825032070
           H         -0.969715787220    -2.382943212633    -0.057108491148     1.007825032070
           H         -2.422663787220    -0.227696212633    -1.671347491148     1.007825032070
           H         -3.182766787220    -1.591473212633    -0.871978491148     1.007825032070
           H         -2.415327787220    -0.333394212633     0.079430508852     1.007825032070

  Charge       = 0
  Multiplicity = 1
  Basis Set: 6-31G*
  Basis Set:

    Orbital Energies (a.u.)
    -----------------------

    Doubly Occupied:

       1A    -15.532344     2A    -11.239518     3A    -11.213952
       4A    -11.212660     5A    -11.208559     6A    -11.206568
       7A     -1.176454     8A     -1.074912     9A     -0.993446
      10A     -0.903889    11A     -0.824508    12A     -0.775364
      13A     -0.664569    14A     -0.633678    15A     -0.616469
      16A     -0.605074    17A     -0.564609    18A     -0.549941
      19A     -0.522361    20A     -0.501650    21A     -0.486297
      22A     -0.459478    23A     -0.454955    24A     -0.451815
      25A     -0.380883

  @DF-RHF Final Energy:  -251.34875232667369

   => Energetics <=

    Nuclear Repulsion Energy =            250.2399125853995940
    One-Electron Energy =                -834.6693964399486276
    Two-Electron Energy =                 333.0807315278755141
    DFT Exchange-Correlation Energy =       0.0000000000000000
    Empirical Dispersion Energy =           0.0000000000000000
    PCM Polarization Energy =               0.0000000000000000
    EFP Energy =                            0.0000000000000000
    Total Energy =                       -251.3487523266735479

  Mulliken Charges: (a.u.)
   Center  Symbol    Alpha    Beta     Spin     Total
       1     H     0.33251  0.33251  0.00000  0.33498
       2     N     3.92190  3.92190  0.00000 -0.84380
       3     C     3.05946  3.05946  0.00000 -0.11891
       4     H     0.33542  0.33542  0.00000  0.32916
       5     C     3.15522  3.15522  0.00000 -0.31045
       6     H     0.42110  0.42110  0.00000  0.15780
       7     H     0.43483  0.43483  0.00000  0.13034
       8     C     3.15623  3.15623  0.00000 -0.31247
       9     H     0.41352  0.41352  0.00000  0.17296
      10     H     0.42498  0.42498  0.00000  0.15005
      11     C     3.15124  3.15124  0.00000 -0.30249
      12     H     0.42153  0.42153  0.00000  0.15694
      13     H     0.42505  0.42505  0.00000  0.14990
      14     C     3.24361  3.24361  0.00000 -0.48721
      15     H     0.42102  0.42102  0.00000  0.15796
      16     H     0.42213  0.42213  0.00000  0.15574
      17     H     0.42302  0.42302  0.00000  0.15396
      18     H     0.41892  0.41892  0.00000  0.16216
      19     H     0.41830  0.41830  0.00000  0.16339

   Total alpha = 25.00000, Total beta = 25.00000, Total charge = -0.00000
