  ==> Input File <==

--------------------------------------------------------------------------
set {
	reference rhf
	basis cc-pvtz
}

set_num_threads( 4 )
memory 2 gb

molecule MOL {
0 1

H	 3.716139	 0.538954	 0.861757
N	 2.896008	 -0.029299	 0.871289
C	 1.860978	 0.530248	 0.016256
H	 2.585325	 -0.082107	 1.818936
C	 0.644130	 -0.381765	 -0.031064
H	 2.273403	 0.628433	 -0.982329
H	 1.549148	 1.528780	 0.325532
C	 -0.678115	 0.376691	 0.025731
H	 0.693998	 -0.977147	 -0.936845
H	 0.693309	 -1.082142	 0.800523
C	 -1.900706	 -0.535531	 -0.022488
H	 -0.725296	 1.079516	 -0.802982
H	 -0.715474	 0.974884	 0.933278
C	 -3.220513	 0.226854	 0.028039
H	 -1.865036	 -1.134397	 -0.928236
H	 -1.857948	 -1.236381	 0.806820
H	 -3.309098	 0.911849	 -0.808725
H	 -4.066838	 -0.449485	 -0.008086
H	 -3.301685	 0.809374	 0.939860

	symmetry c1
}
set optking {
	frozen_dihedral = ("
		6 3 5 9
	")
}

ee = optimize('scf')
oeprop('DIPOLE', 'QUADRUPOLE', 'MULLIKEN_CHARGES')
f=open( 'psi4out.xyz', 'w' )
f.write( "19  " )
f.write( str(ee) + "\n" )
f.write( MOL.save_string_xyz() )
f.close()
--------------------------------------------------------------------------

    Molecular point group: c1
  Charge       = 0
  Multiplicity = 1
  Basis Set: CC-PVTZ
  Basis Set:
  @DF-RHF Final Energy:  -251.44299253565913
    Total Energy =                       -251.4429925356591866
    Molecular point group: c1
  Basis Set: CC-PVTZ
  Basis Set:
  Basis Set: CC-PVTZ
  Basis Set:
  @DF-RHF Final Energy:  -251.44334822423784
    Total Energy =                       -251.4433482242379796
  Basis Set: CC-PVTZ
  Basis Set:
  Basis Set: CC-PVTZ
  Basis Set:
  @DF-RHF Final Energy:  -251.44344112757480
    Total Energy =                       -251.4434411275746015
  Basis Set: CC-PVTZ
  Basis Set:
  Basis Set: CC-PVTZ
  Basis Set:
  @DF-RHF Final Energy:  -251.44344282260462
    Total Energy =                       -251.4434428226050500
  Basis Set: CC-PVTZ
  Basis Set:
  Charge       = 0
  Multiplicity = 1
  Basis Set: CC-PVTZ
  Basis Set:

    Orbital Energies (a.u.)
    -----------------------

    Doubly Occupied:

       1A    -15.526197     2A    -11.238215     3A    -11.211847
       4A    -11.210541     5A    -11.207811     6A    -11.205741
       7A     -1.176855     8A     -1.073859     9A     -0.998099
      10A     -0.900700    11A     -0.814541    12A     -0.789057
      13A     -0.669388    14A     -0.637188    15A     -0.620347
      16A     -0.583530    17A     -0.570015    18A     -0.549063
      19A     -0.528287    20A     -0.503208    21A     -0.483070
      22A     -0.465019    23A     -0.461188    24A     -0.446325
      25A     -0.382959

  @DF-RHF Final Energy:  -251.44344331153587

   => Energetics <=

    Nuclear Repulsion Energy =            246.1272149785377792
    One-Electron Energy =                -826.6352081927079780
    Two-Electron Energy =                 329.0645499026344396
    DFT Exchange-Correlation Energy =       0.0000000000000000
    Empirical Dispersion Energy =           0.0000000000000000
    PCM Polarization Energy =               0.0000000000000000
    EFP Energy =                            0.0000000000000000
    Total Energy =                       -251.4434433115358161
    Molecular point group: c1
  Basis Set: CC-PVTZ
  Basis Set:

  -Total Gradient:
     Atom            X                  Y                   Z
    ------   -----------------  -----------------  -----------------
       1        0.000017472497    -0.000011696981     0.000014733721
       2       -0.000003517343     0.000038063324    -0.000031305286
       3       -0.003538156260     0.004692977003    -0.001277453667
       4       -0.000010885524     0.000012409363    -0.000032960084
       5        0.003225064446    -0.004346910898     0.002609586601
       6        0.002462215534    -0.003283889305     0.000680509528
       7       -0.000007819928    -0.000034235242     0.000003184862
       8        0.000013723679    -0.000005420945     0.000050667319
       9       -0.002126510542     0.002909769927    -0.002015953782
      10       -0.000002467957     0.000030935206     0.000004727098
      11       -0.000005963132     0.000006751951    -0.000006004628
      12        0.000016656213    -0.000003302233     0.000003710351
      13       -0.000015078723     0.000004054638     0.000005472209
      14       -0.000014295879    -0.000010571906    -0.000001964685
      15        0.000000811380    -0.000009100889    -0.000000161116
      16       -0.000005161859     0.000007936040    -0.000002213401
      17        0.000000105208    -0.000000231887    -0.000001205337
      18       -0.000008094773     0.000004456275    -0.000001572053
      19        0.000001902960    -0.000001993441    -0.000001797651

  **** Optimization is complete! (in 5 steps) ****
    Final optimized geometry and variables:
    Molecular point group: c1

    Geometry (in Angstrom), charge = 0, multiplicity = 1:

    H            3.794156317168     0.487785078285     0.623582710224
    N            2.970111020598    -0.073332503584     0.672017528517
    C            1.899685461538     0.497778919864    -0.135756686901
    H            2.703426186262    -0.122616490158     1.633234881782
    C            0.674234271423    -0.426530807530    -0.153786194359
    H            2.296564534885     0.594431075619    -1.139154702945
    H            1.606851401702     1.491805621540     0.198919006915
    C           -0.651560677929     0.331963016834    -0.123521780406
    H            0.694524880559    -1.034886367434    -1.051681305044
    H            0.724593986297    -1.104746636448     0.691074738892
    C           -1.872730420979    -0.579467040087    -0.198966449768
    H           -0.682088620516     1.038338263659    -0.950566104210
    H           -0.705066579703     0.928637729056     0.784518511855
    C           -3.193782506655     0.181589613448    -0.159896123850
    H           -1.824146064168    -1.169476877262    -1.110050087218
    H           -1.841382232716    -1.288976294301     0.623564329146
    H           -3.270258627258     0.875584214264    -0.990447501787
    H           -4.039138783477    -0.494648407759    -0.215873794769
    H           -3.288897738824     0.754169099549     0.756837736297

  Mulliken Charges: (a.u.)
   Center  Symbol    Alpha    Beta     Spin     Total
       1     H     0.42961  0.42961  0.00000  0.14079
       2     N     3.68994  3.68994  0.00000 -0.37988
       3     C     3.03302  3.03302  0.00000 -0.06604
       4     H     0.43092  0.43092  0.00000  0.13817
       5     C     3.08552  3.08552  0.00000 -0.17105
       6     H     0.45561  0.45561  0.00000  0.08878
       7     H     0.46499  0.46499  0.00000  0.07003
       8     C     3.09178  3.09178  0.00000 -0.18356
       9     H     0.45239  0.45239  0.00000  0.09522
      10     H     0.45170  0.45170  0.00000  0.09661
      11     C     3.08487  3.08487  0.00000 -0.16973
      12     H     0.45513  0.45513  0.00000  0.08975
      13     H     0.45671  0.45671  0.00000  0.08658
      14     C     3.14951  3.14951  0.00000 -0.29902
      15     H     0.45424  0.45424  0.00000  0.09153
      16     H     0.45451  0.45451  0.00000  0.09098
      17     H     0.45541  0.45541  0.00000  0.08919
      18     H     0.44854  0.44854  0.00000  0.10291
      19     H     0.45562  0.45562  0.00000  0.08875

   Total alpha = 25.00000, Total beta = 25.00000, Total charge = -0.00000
