  ==> Input File <==

--------------------------------------------------------------------------
set {
	reference rhf
	basis 6-31G*
}

set_num_threads( 1 )
memory 2 gb

molecule MOL {
0 1

H	 2.813747	 -0.324572	 0.467108
O	 1.973635	 -0.772265	 0.490980
C	 1.050492	 0.053836	 0.000068
C	 -0.318135	 -0.576402	 0.000164
O	 1.318155	 1.146803	 -0.380425
C	 -1.454360	 0.441875	 -0.000474
H	 -0.374042	 -1.230163	 -0.866135
H	 -0.374274	 -1.229227	 0.867154
C	 -2.826123	 -0.230780	 0.000056
H	 -1.357605	 1.085198	 -0.868380
H	 -1.357504	 1.086451	 0.866496
H	 -2.959731	 -0.858053	 -0.876869
H	 -3.619374	 0.509403	 -0.000080
H	 -2.959371	 -0.857318	 0.877556

	symmetry c1
}
set optking {
	frozen_dihedral = ("
		7 4 6 10,
		1 2 3 5
	")
}

ee = energy('scf')
oeprop('DIPOLE', 'QUADRUPOLE', 'MULLIKEN_CHARGES')
f=open( 'psi4out.xyz', 'w' )
f.write( "14  " )
f.write( str(ee) + "\n" )
f.write( MOL.save_string_xyz() )
f.close()
--------------------------------------------------------------------------

    Molecular point group: c1

    Geometry (in Angstrom), charge = 0, multiplicity = 1:

       Center              X                  Y                   Z               Mass
    ------------   -----------------  -----------------  -----------------  -----------------
           H          2.815944425300    -0.329348043399     0.441707350469     1.007825032070
           O          1.975832425300    -0.777041043399     0.465579350469    15.994914619560
           C          1.052689425300     0.049059956601    -0.025332649531    12.000000000000
           C         -0.315937574700    -0.581178043399    -0.025236649531    12.000000000000
           O          1.320352425300     1.142026956601    -0.405825649531    15.994914619560
           C         -1.452162574700     0.437098956601    -0.025874649531    12.000000000000
           H         -0.371844574700    -1.234939043399    -0.891535649531     1.007825032070
           H         -0.372076574700    -1.234003043399     0.841753350469     1.007825032070
           C         -2.823925574700    -0.235556043399    -0.025344649531    12.000000000000
           H         -1.355407574700     1.080421956601    -0.893780649531     1.007825032070
           H         -1.355306574700     1.081674956601     0.841095350469     1.007825032070
           H         -2.957533574700    -0.862829043399    -0.902269649531     1.007825032070
           H         -3.617176574700     0.504626956601    -0.025480649531     1.007825032070
           H         -2.957173574700    -0.862094043399     0.852155350469     1.007825032070

  Charge       = 0
  Multiplicity = 1
  Basis Set: 6-31G*
  Basis Set:

    Orbital Energies (a.u.)
    -----------------------

    Doubly Occupied:

       1A    -20.613654     2A    -20.551646     3A    -11.381731
       4A    -11.240887     5A    -11.227094     6A    -11.217743
       7A     -1.475242     8A     -1.366149     9A     -1.083674
      10A     -0.979860    11A     -0.857346    12A     -0.793149
      13A     -0.700899    14A     -0.688354    15A     -0.664000
      16A     -0.617591    17A     -0.594212    18A     -0.572952
      19A     -0.545819    20A     -0.507274    21A     -0.492817
      22A     -0.482702    23A     -0.477868    24A     -0.443736

  @DF-RHF Final Energy:  -305.88027843645159

   => Energetics <=

    Nuclear Repulsion Energy =            239.9156902169081604
    One-Electron Energy =                -892.4391029255273224
    Two-Electron Energy =                 346.6431342721675719
    DFT Exchange-Correlation Energy =       0.0000000000000000
    Empirical Dispersion Energy =           0.0000000000000000
    PCM Polarization Energy =               0.0000000000000000
    EFP Energy =                            0.0000000000000000
    Total Energy =                       -305.8802784364515901

  Mulliken Charges: (a.u.)
   Center  Symbol    Alpha    Beta     Spin     Total
       1     H     0.26804  0.26804  0.00000  0.46391
       2     O     4.35070  4.35070  0.00000 -0.70141
       3     C     2.62255  2.62255  0.00000  0.75490
       4     C     3.21044  3.21044  0.00000 -0.42088
       5     O     4.27911  4.27911  0.00000 -0.55822
       6     C     3.15446  3.15446  0.00000 -0.30892
       7     H     0.39765  0.39765  0.00000  0.20470
       8     H     0.39957  0.39957  0.00000  0.20086
       9     C     3.24272  3.24272  0.00000 -0.48543
      10     H     0.40578  0.40578  0.00000  0.18843
      11     H     0.41369  0.41369  0.00000  0.17261
      12     H     0.42031  0.42031  0.00000  0.15937
      13     H     0.41442  0.41442  0.00000  0.17117
      14     H     0.42055  0.42055  0.00000  0.15891

   Total alpha = 24.00000, Total beta = 24.00000, Total charge =  0.00000
