  ==> Input File <==

--------------------------------------------------------------------------
set {
	reference rhf
	basis 6-31G*
}

set_num_threads( 1 )
memory 2 gb

molecule MOL {
0 1

H	 3.734625	 0.020441	 0.652733
N	 3.092854	 -0.246221	 -0.068770
C	 1.865559	 0.531981	 0.018834
H	 2.900266	 -1.221343	 0.061137
C	 0.645745	 -0.382037	 -0.029944
H	 1.841966	 1.207024	 -0.831236
H	 1.815756	 1.155410	 0.915079
C	 -0.679275	 0.379305	 0.025956
H	 0.698998	 -0.976915	 -0.937203
H	 0.693479	 -1.083846	 0.802235
C	 -1.903357	 -0.536963	 -0.023547
H	 -0.726309	 1.082987	 -0.803784
H	 -0.717680	 0.977832	 0.934877
C	 -3.225172	 0.228290	 0.028445
H	 -1.867824	 -1.134999	 -0.931459
H	 -1.860449	 -1.239604	 0.805977
H	 -3.313397	 0.915643	 -0.808262
H	 -4.073500	 -0.448134	 -0.008893
H	 -3.306061	 0.809945	 0.942516

	symmetry c1
}
set optking {
	frozen_dihedral = ("
		6 3 5 9,
		12 8 5 9,
		12 8 11 15
	")
}

ee = energy('scf')
oeprop('DIPOLE', 'QUADRUPOLE', 'MULLIKEN_CHARGES')
f=open( 'psi4out.xyz', 'w' )
f.write( "19  " )
f.write( str(ee) + "\n" )
f.write( MOL.save_string_xyz() )
f.close()
--------------------------------------------------------------------------

    Molecular point group: c1

    Geometry (in Angstrom), charge = 0, multiplicity = 1:

       Center              X                  Y                   Z               Mass
    ------------   -----------------  -----------------  -----------------  -----------------
           H          3.739921794280     0.028890518701     0.651885004687     1.007825032070
           N          3.098150794280    -0.237771481299    -0.069617995313    14.003074004780
           C          1.870855794280     0.540430518701     0.017986004687    12.000000000000
           H          2.905562794280    -1.212893481299     0.060289004687     1.007825032070
           C          0.651041794280    -0.373587481299    -0.030791995313    12.000000000000
           H          1.847262794280     1.215473518701    -0.832083995313     1.007825032070
           H          1.821052794280     1.163859518701     0.914231004687     1.007825032070
           C         -0.673978205720     0.387754518701     0.025108004687    12.000000000000
           H          0.704294794280    -0.968465481299    -0.938050995313     1.007825032070
           H          0.698775794280    -1.075396481299     0.801387004687     1.007825032070
           C         -1.898060205720    -0.528513481299    -0.024394995313    12.000000000000
           H         -0.721012205720     1.091436518701    -0.804631995313     1.007825032070
           H         -0.712383205720     0.986281518701     0.934029004687     1.007825032070
           C         -3.219875205720     0.236739518701     0.027597004687    12.000000000000
           H         -1.862527205720    -1.126549481299    -0.932306995313     1.007825032070
           H         -1.855152205720    -1.231154481299     0.805129004687     1.007825032070
           H         -3.308100205720     0.924092518701    -0.809109995313     1.007825032070
           H         -4.068203205720    -0.439684481299    -0.009740995313     1.007825032070
           H         -3.300764205720     0.818394518701     0.941668004687     1.007825032070

  Charge       = 0
  Multiplicity = 1
  Basis Set: 6-31G*
  Basis Set:

    Orbital Energies (a.u.)
    -----------------------

    Doubly Occupied:

       1A    -15.529302     2A    -11.238591     3A    -11.216758
       4A    -11.216260     5A    -11.215714     6A    -11.209496
       7A     -1.176709     8A     -1.075593     9A     -1.000163
      10A     -0.901082    11A     -0.818310    12A     -0.794359
      13A     -0.662023    14A     -0.645017    15A     -0.609814
      16A     -0.596630    17A     -0.565740    18A     -0.547749
      19A     -0.535275    20A     -0.498913    21A     -0.488333
      22A     -0.469097    23A     -0.464930    24A     -0.452293
      25A     -0.376192

  @DF-RHF Final Energy:  -251.34699766558484

   => Energetics <=

    Nuclear Repulsion Energy =            246.0601606733568758
    One-Electron Energy =                -826.2056813131594026
    Two-Electron Energy =                 328.7985229742176330
    DFT Exchange-Correlation Energy =       0.0000000000000000
    Empirical Dispersion Energy =           0.0000000000000000
    PCM Polarization Energy =               0.0000000000000000
    EFP Energy =                            0.0000000000000000
    Total Energy =                       -251.3469976655848654

  Mulliken Charges: (a.u.)
   Center  Symbol    Alpha    Beta     Spin     Total
       1     H     0.33293  0.33293  0.00000  0.33413
       2     N     3.92865  3.92865  0.00000 -0.85730
       3     C     3.04678  3.04678  0.00000 -0.09355
       4     H     0.33225  0.33225  0.00000  0.33550
       5     C     3.16954  3.16954  0.00000 -0.33908
       6     H     0.41983  0.41983  0.00000  0.16035
       7     H     0.43001  0.43001  0.00000  0.13999
       8     C     3.15374  3.15374  0.00000 -0.30747
       9     H     0.41663  0.41663  0.00000  0.16674
      10     H     0.42606  0.42606  0.00000  0.14787
      11     C     3.15128  3.15128  0.00000 -0.30257
      12     H     0.42148  0.42148  0.00000  0.15704
      13     H     0.42363  0.42363  0.00000  0.15275
      14     C     3.23948  3.23948  0.00000 -0.47896
      15     H     0.42216  0.42216  0.00000  0.15568
      16     H     0.42337  0.42337  0.00000  0.15326
      17     H     0.42125  0.42125  0.00000  0.15750
      18     H     0.41904  0.41904  0.00000  0.16191
      19     H     0.42189  0.42189  0.00000  0.15622

   Total alpha = 25.00000, Total beta = 25.00000, Total charge = -0.00000
