  ==> Input File <==

--------------------------------------------------------------------------
set {
	reference rhf
	basis 6-31G*
}

set_num_threads( 1 )
memory 2 gb

molecule MOL {
0 1

H	 -0.884232	 -1.347383	 -0.116458
O	 -1.422729	 -0.573567	 -0.196946
C	 -0.731407	 0.539437	 0.309156
C	 0.680193	 0.672443	 -0.251532
H	 -1.319765	 1.404033	 0.030086
H	 -0.700012	 0.506517	 1.397677
C	 1.599139	 -0.492137	 0.118598
H	 0.616402	 0.758534	 -1.332349
H	 1.107032	 1.602637	 0.117369
H	 1.239738	 -1.428634	 -0.297334
H	 2.601428	 -0.335055	 -0.265730
H	 1.674954	 -0.608418	 1.197020

	symmetry c1
}
set optking {
	frozen_dihedral = ("
		8 4 3 2
	")
}

ee = energy('scf')
oeprop('DIPOLE', 'QUADRUPOLE', 'MULLIKEN_CHARGES')
f=open( 'psi4out.xyz', 'w' )
f.write( "12  " )
f.write( str(ee) + "\n" )
f.write( MOL.save_string_xyz() )
f.close()
--------------------------------------------------------------------------

    Molecular point group: c1

    Geometry (in Angstrom), charge = 0, multiplicity = 1:

       Center              X                  Y                   Z               Mass
    ------------   -----------------  -----------------  -----------------  -----------------
           H         -0.887364695338    -1.347704575605    -0.111471530230     1.007825032070
           O         -1.425861695338    -0.573888575605    -0.191959530230    15.994914619560
           C         -0.734539695338     0.539115424395     0.314142469770    12.000000000000
           C          0.677060304662     0.672121424395    -0.246545530230    12.000000000000
           H         -1.322897695338     1.403711424395     0.035072469770     1.007825032070
           H         -0.703144695338     0.506195424395     1.402663469770     1.007825032070
           C          1.596006304662    -0.492458575605     0.123584469770    12.000000000000
           H          0.613269304662     0.758212424395    -1.327362530230     1.007825032070
           H          1.103899304662     1.602315424395     0.122355469770     1.007825032070
           H          1.236605304662    -1.428955575605    -0.292347530230     1.007825032070
           H          2.598295304662    -0.335376575605    -0.260743530230     1.007825032070
           H          1.671821304662    -0.608739575605     1.202006469770     1.007825032070

  Charge       = 0
  Multiplicity = 1
  Basis Set: 6-31G*
  Basis Set:

    Orbital Energies (a.u.)
    -----------------------

    Doubly Occupied:

       1A    -20.551822     2A    -11.267546     3A    -11.222713
       4A    -11.222118     5A     -1.359372     6A     -1.054025
       7A     -0.930211     8A     -0.813430     9A     -0.689340
      10A     -0.640449    11A     -0.608675    12A     -0.587762
      13A     -0.546250    14A     -0.509155    15A     -0.495443
      16A     -0.468908    17A     -0.430516

  @DF-RHF Final Energy:  -193.10915771231677

   => Energetics <=

    Nuclear Repulsion Energy =            133.2811175077610244
    One-Electron Energy =                -525.9852124640574402
    Two-Electron Energy =                 199.5949372439795297
    DFT Exchange-Correlation Energy =       0.0000000000000000
    Empirical Dispersion Energy =           0.0000000000000000
    PCM Polarization Energy =               0.0000000000000000
    EFP Energy =                            0.0000000000000000
    Total Energy =                       -193.1091577123169145

  Mulliken Charges: (a.u.)
   Center  Symbol    Alpha    Beta     Spin     Total
       1     H     0.27916  0.27916  0.00000  0.44169
       2     O     4.37341  4.37341  0.00000 -0.74682
       3     C     2.98982  2.98982  0.00000  0.02037
       4     C     3.16914  3.16914  0.00000 -0.33829
       5     H     0.41514  0.41514  0.00000  0.16971
       6     H     0.43190  0.43190  0.00000  0.13620
       7     C     3.25023  3.25023  0.00000 -0.50046
       8     H     0.41373  0.41373  0.00000  0.17254
       9     H     0.42045  0.42045  0.00000  0.15910
      10     H     0.42650  0.42650  0.00000  0.14699
      11     H     0.41199  0.41199  0.00000  0.17601
      12     H     0.41853  0.41853  0.00000  0.16295

   Total alpha = 17.00000, Total beta = 17.00000, Total charge = -0.00000
