  ==> Input File <==

--------------------------------------------------------------------------
set {
	reference rhf
	basis 6-31G*
}

set_num_threads( 4 )
memory 2 gb

molecule MOL {
0 1

O	 -2.821601	 1.309235	 -0.001213
C	 -2.668563	 0.129746	 -0.000350
C	 -3.801572	 -0.864014	 -0.000442
O	 -1.481751	 -0.454642	 0.000584
H	 -4.417280	 -0.689587	 -0.874708
H	 -3.443784	 -1.883046	 -0.000565
H	 -4.417179	 -0.689832	 0.873954
C	 -0.334255	 0.388708	 0.000906
C	 0.891947	 -0.504646	 0.000751
H	 -0.365390	 1.025305	 -0.873475
H	 -0.365484	 1.024911	 0.875569
C	 2.191998	 0.301789	 0.000897
H	 0.855148	 -1.151283	 -0.871571
H	 0.855132	 -1.151660	 0.872805
C	 3.441114	 -0.581407	 0.000108
H	 2.215074	 0.954890	 -0.869742
H	 2.215465	 0.953923	 0.872248
C	 4.510603	 -0.100606	 0.979848
H	 3.858404	 -0.612560	 -1.003871
H	 3.159029	 -1.602812	 0.245526
H	 4.838034	 0.906942	 0.739744
H	 5.382966	 -0.746100	 0.956307
H	 4.133532	 -0.091074	 1.998542

	symmetry c1
}
set optking {
	frozen_dihedral = ("
		19 15 12 16
	")
}

ee = optimize('scf')
oeprop('DIPOLE', 'QUADRUPOLE', 'MULLIKEN_CHARGES')
f=open( 'psi4out.xyz', 'w' )
f.write( "23  " )
f.write( str(ee) + "\n" )
f.write( MOL.save_string_xyz() )
f.close()
--------------------------------------------------------------------------

    Molecular point group: c1
  Charge       = 0
  Multiplicity = 1
  Basis Set: 6-31G*
  Basis Set:
  @DF-RHF Final Energy:  -422.97460109703457
    Total Energy =                       -422.9746010970346788
    Molecular point group: c1
  Basis Set: 6-31G*
  Basis Set:
  Basis Set: 6-31G*
  Basis Set:
  @DF-RHF Final Energy:  -422.97485844771614
    Total Energy =                       -422.9748584477158602
  Basis Set: 6-31G*
  Basis Set:
  Basis Set: 6-31G*
  Basis Set:
  @DF-RHF Final Energy:  -422.97494217726160
    Total Energy =                       -422.9749421772620508
  Basis Set: 6-31G*
  Basis Set:
  Basis Set: 6-31G*
  Basis Set:
  @DF-RHF Final Energy:  -422.97477746019007
    Total Energy =                       -422.9747774601897845
  Basis Set: 6-31G*
  Basis Set:
  Basis Set: 6-31G*
  Basis Set:
  @DF-RHF Final Energy:  -422.97494849890734
    Total Energy =                       -422.9749484989072243
  Basis Set: 6-31G*
  Basis Set:
  Charge       = 0
  Multiplicity = 1
  Basis Set: 6-31G*
  Basis Set:

    Orbital Energies (a.u.)
    -----------------------

    Doubly Occupied:

       1A    -20.602969     2A    -20.540502     3A    -11.374050
       4A    -11.281237     5A    -11.232362     6A    -11.224442
       7A    -11.223739     8A    -11.221542     9A    -11.213012
      10A     -1.467904    11A     -1.360695    12A     -1.092666
      13A     -1.041281    14A     -1.003253    15A     -0.930399
      16A     -0.842198    17A     -0.802296    18A     -0.774288
      19A     -0.691599    20A     -0.685110    21A     -0.668636
      22A     -0.641180    23A     -0.609144    24A     -0.591370
      25A     -0.581969    26A     -0.570705    27A     -0.552823
      28A     -0.534365    29A     -0.525191    30A     -0.503619
      31A     -0.496391    32A     -0.476116    33A     -0.466635
      34A     -0.464013    35A     -0.451280    36A     -0.435119

  @DF-RHF Final Energy:  -422.97494863019517

   => Energetics <=

    Nuclear Repulsion Energy =            449.9160330941892880
    One-Electron Energy =               -1467.4337702122447809
    Two-Electron Energy =                 594.5427884878603209
    DFT Exchange-Correlation Energy =       0.0000000000000000
    Empirical Dispersion Energy =           0.0000000000000000
    PCM Polarization Energy =               0.0000000000000000
    EFP Energy =                            0.0000000000000000
    Total Energy =                       -422.9749486301951720
    Molecular point group: c1
  Basis Set: 6-31G*
  Basis Set:

  -Total Gradient:
     Atom            X                  Y                   Z
    ------   -----------------  -----------------  -----------------
       1       -0.000002199764    -0.000000448412     0.000008143248
       2       -0.000011132822    -0.000001768488    -0.000016772354
       3       -0.000000725457     0.000002328965     0.000007812255
       4       -0.000005440130     0.000003701118     0.000005489182
       5        0.000000966224    -0.000000702802    -0.000001601481
       6        0.000000956754    -0.000000150219    -0.000000156194
       7       -0.000002023699     0.000000474218    -0.000000622949
       8       -0.000008449652    -0.000004877257     0.000001565072
       9        0.000036334381     0.000014326807     0.000009975089
      10        0.000002402270     0.000000767356     0.000002263881
      11       -0.000002164229     0.000003657025    -0.000001560762
      12        0.002649496251     0.003660347018     0.002431481826
      13        0.000000825102     0.000001726620    -0.000001141076
      14       -0.000000945448    -0.000008179888    -0.000001398299
      15       -0.002897892347    -0.004039555057    -0.001285939852
      16       -0.001770695460    -0.002433815275    -0.001863191574
      17        0.000004666480    -0.000013275202    -0.000007026665
      18       -0.000013330262    -0.000014686923    -0.000014793354
      19        0.002021904654     0.002821055383     0.000715541753
      20       -0.000012854154     0.000011180735     0.000010544052
      21       -0.000009183446     0.000006071448     0.000008443714
      22        0.000014659022     0.000001919461    -0.000006059104
      23        0.000004825731    -0.000010096630    -0.000000996406

  **** Optimization is complete! (in 6 steps) ****
    Final optimized geometry and variables:
    Molecular point group: c1

    Geometry (in Angstrom), charge = 0, multiplicity = 1:

    O           -2.801356783548     1.348580787045    -0.141263615185
    C           -2.648831431911     0.169077463995    -0.129236456432
    C           -3.782302251839    -0.824159703975    -0.133432285613
    O           -1.462441060141    -0.415845834079    -0.110438996570
    H           -4.388760043745    -0.656292902829    -1.015408076633
    H           -3.425056271285    -1.843320434428    -0.121839090856
    H           -4.406918796138    -0.642881318695     0.733100567060
    C           -0.314414418464     0.426854732361    -0.104519739443
    C            0.911256586563    -0.466520246406    -0.083159890920
    H           -0.335529527432     1.056247418645    -0.984457151168
    H           -0.355050289203     1.070699864207     0.764307724317
    C            2.213844147295     0.339262739745    -0.067112770273
    H            0.888015897773    -1.117051346849    -0.953360871205
    H            0.862740687490    -1.110336922497     0.790742245561
    C            3.470339462872    -0.555210376122    -0.097734893623
    H            2.216414555391     0.997766715729    -0.932199227728
    H            2.229911459980     0.975155127153     0.814462175540
    C            4.578007127878    -0.061251890971     0.834910087263
    H            3.868843551952    -0.584876434044    -1.107736386983
    H            3.209302428518    -1.575280810930     0.169278687137
    H            4.874748678620     0.953832530145     0.586140573836
    H            5.460221231937    -0.690169743637     0.765508892255
    H            4.248444907632    -0.063862545749     1.870065479328

  Mulliken Charges: (a.u.)
   Center  Symbol    Alpha    Beta     Spin     Total
       1     O     4.28392  4.28392  0.00000 -0.56784
       2     C     2.61533  2.61533  0.00000  0.76935
       3     C     3.28773  3.28773  0.00000 -0.57547
       4     O     4.31257  4.31257  0.00000 -0.62514
       5     H     0.39751  0.39751  0.00000  0.20498
       6     H     0.39987  0.39987  0.00000  0.20026
       7     H     0.39751  0.39751  0.00000  0.20498
       8     C     2.99617  2.99617  0.00000  0.00767
       9     C     3.16693  3.16693  0.00000 -0.33386
      10     H     0.41079  0.41079  0.00000  0.17843
      11     H     0.41075  0.41075  0.00000  0.17849
      12     C     3.16266  3.16266  0.00000 -0.32532
      13     H     0.41401  0.41401  0.00000  0.17199
      14     H     0.41430  0.41430  0.00000  0.17140
      15     C     3.15373  3.15373  0.00000 -0.30746
      16     H     0.41861  0.41861  0.00000  0.16279
      17     H     0.41822  0.41822  0.00000  0.16356
      18     C     3.24061  3.24061  0.00000 -0.48122
      19     H     0.41886  0.41886  0.00000  0.16228
      20     H     0.41878  0.41878  0.00000  0.16243
      21     H     0.42060  0.42060  0.00000  0.15881
      22     H     0.41921  0.41921  0.00000  0.16157
      23     H     0.42134  0.42134  0.00000  0.15732

   Total alpha = 36.00000, Total beta = 36.00000, Total charge = -0.00000
