  ==> Input File <==

--------------------------------------------------------------------------
set {
	reference rhf
	basis 6-31G*
}

set_num_threads( 1 )
memory 2 gb

molecule MOL {
0 1

H	 -4.031818	 -0.453427	 -0.000094
C	 -2.967712	 -0.297022	 -0.000064
C	 -2.458620	 0.992929	 0.000032
C	 -2.109895	 -1.385637	 -0.000122
H	 -3.124998	 1.836319	 0.000077
C	 -1.090278	 1.193236	 0.000070
H	 -2.506361	 -2.384847	 -0.000198
C	 -0.739812	 -1.187531	 -0.000085
H	 -0.678594	 2.184290	 0.000146
C	 -0.226438	 0.104061	 0.000012
H	 -0.072310	 -2.027032	 -0.000131
C	 1.239129	 0.373821	 0.000060
O	 1.749652	 0.467711	 1.218729
O	 1.893705	 0.494375	 -0.987795
C	 3.139812	 0.723459	 1.312115
H	 3.702735	 -0.068934	 0.840920
H	 3.360699	 0.764398	 2.367287
H	 3.384015	 1.664035	 0.840308

	symmetry c1
}
set optking {
	frozen_dihedral = ("
		12 13 15 16,
		10 12 13 15
	")
}

ee = energy('scf')
oeprop('DIPOLE', 'QUADRUPOLE', 'MULLIKEN_CHARGES')
f=open( 'psi4out.xyz', 'w' )
f.write( "18  " )
f.write( str(ee) + "\n" )
f.write( MOL.save_string_xyz() )
f.close()
--------------------------------------------------------------------------

    Molecular point group: c1

    Geometry (in Angstrom), charge = 0, multiplicity = 1:

       Center              X                  Y                   Z               Mass
    ------------   -----------------  -----------------  -----------------  -----------------
           H         -4.000528924410    -0.623383030088    -0.172953675455     1.007825032070
           C         -2.936422924410    -0.466978030088    -0.172923675455    12.000000000000
           C         -2.427330924410     0.822972969912    -0.172827675455    12.000000000000
           C         -2.078605924410    -1.555593030088    -0.172981675455    12.000000000000
           H         -3.093708924410     1.666362969912    -0.172782675455     1.007825032070
           C         -1.058988924410     1.023279969912    -0.172789675455    12.000000000000
           H         -2.475071924410    -2.554803030088    -0.173057675455     1.007825032070
           C         -0.708522924410    -1.357487030088    -0.172944675455    12.000000000000
           H         -0.647304924410     2.014333969912    -0.172713675455     1.007825032070
           C         -0.195148924410    -0.065895030088    -0.172847675455    12.000000000000
           H         -0.041020924410    -2.196988030088    -0.172990675455     1.007825032070
           C          1.270418075590     0.203864969912    -0.172799675455    12.000000000000
           O          1.780941075590     0.297754969912     1.045869324545    15.994914619560
           O          1.924994075590     0.324418969912    -1.160654675455    15.994914619560
           C          3.171101075590     0.553502969912     1.139255324545    12.000000000000
           H          3.734024075590    -0.238890030088     0.668060324545     1.007825032070
           H          3.391988075590     0.594441969912     2.194427324545     1.007825032070
           H          3.415304075590     1.494078969912     0.667448324545     1.007825032070

  Charge       = 0
  Multiplicity = 1
  Basis Set: 6-31G*
  Basis Set:

    Orbital Energies (a.u.)
    -----------------------

    Doubly Occupied:

       1A    -20.609827     2A    -20.550398     3A    -11.380835
       4A    -11.283321     5A    -11.252349     6A    -11.245023
       7A    -11.243860     8A    -11.241112     9A    -11.240295
      10A    -11.239372    11A     -1.474907    12A     -1.366101
      13A     -1.166676    14A     -1.049475    15A     -1.026600
      16A     -0.979606    17A     -0.861376    18A     -0.839105
      19A     -0.780276    20A     -0.738091    21A     -0.686371
      22A     -0.680114    23A     -0.676079    24A     -0.631738
      25A     -0.629851    26A     -0.598523    27A     -0.591387
      28A     -0.546509    29A     -0.536592    30A     -0.517232
      31A     -0.508336    32A     -0.501743    33A     -0.458826
      34A     -0.445530    35A     -0.343578    36A     -0.341467

  @DF-RHF Final Energy:  -457.33761273197103

   => Energetics <=

    Nuclear Repulsion Energy =            491.5222289333489698
    One-Electron Energy =               -1597.1948785942590803
    Two-Electron Energy =                 648.3350369289385071
    DFT Exchange-Correlation Energy =       0.0000000000000000
    Empirical Dispersion Energy =           0.0000000000000000
    PCM Polarization Energy =               0.0000000000000000
    EFP Energy =                            0.0000000000000000
    Total Energy =                       -457.3376127319716034

  Mulliken Charges: (a.u.)
   Center  Symbol    Alpha    Beta     Spin     Total
       1     H     0.39667  0.39667  0.00000  0.20666
       2     C     3.09794  3.09794  0.00000 -0.19588
       3     C     3.09902  3.09902  0.00000 -0.19805
       4     C     3.09995  3.09995  0.00000 -0.19990
       5     H     0.39546  0.39546  0.00000  0.20908
       6     C     3.09805  3.09805  0.00000 -0.19609
       7     H     0.39535  0.39535  0.00000  0.20929
       8     C     3.09761  3.09761  0.00000 -0.19521
       9     H     0.39108  0.39108  0.00000  0.21783
      10     C     3.00685  3.00685  0.00000 -0.01369
      11     H     0.39120  0.39120  0.00000  0.21760
      12     C     2.64353  2.64353  0.00000  0.71294
      13     O     4.29558  4.29558  0.00000 -0.59116
      14     O     4.27501  4.27501  0.00000 -0.55002
      15     C     3.09373  3.09373  0.00000 -0.18745
      16     H     0.40815  0.40815  0.00000  0.18370
      17     H     0.40659  0.40659  0.00000  0.18682
      18     H     0.40824  0.40824  0.00000  0.18352

   Total alpha = 36.00000, Total beta = 36.00000, Total charge = -0.00000
