                              Psi4 1.0.54 Driver

  ==> Input File <==

--------------------------------------------------------------------------
set {
	reference rhf
	basis cc-pvtz
}

set_num_threads( 4 )
memory 2 gb

molecule MOL {
0 1

H	 -1.835082	 1.385983	 0.000069
C	 -1.300516	 0.441153	 -0.000028
O	 -0.006604	 0.654344	 -0.000106
O	 -1.828920	 -0.612308	 0.000113
C	 0.682590	 0.545785	 -1.242301
C	 2.143095	 0.831878	 -0.985833
H	 0.254789	 1.249866	 -1.941739
H	 0.534239	 -0.448781	 -1.638273
H	 2.276183	 1.829124	 -0.586133
H	 2.697302	 0.757258	 -1.913810
H	 2.557036	 0.121950	 -0.281117

	symmetry c1
}
set optking {
	frozen_dihedral = ("
		5 3 2 4
	")
}

ee,wfn = optimize('scf', return_wfn=True)
oeprop( wfn, 'DIPOLE', 'QUADRUPOLE', 'MULLIKEN_CHARGES')
f=open( 'psi4out.xyz', 'w' )
f.write( "11  " )
f.write( str(ee) + "\n" )
f.write( MOL.save_string_xyz() )
f.close()
--------------------------------------------------------------------------

    Molecular point group: c1
  Charge       = 0
  Multiplicity = 1
  Basis Set: CC-PVTZ
  Basis Set:
  @DF-RHF Final Energy:  -266.91260864405251
    Total Energy =                       -266.9126086440523977
    Molecular point group: c1
  Basis Set: CC-PVTZ
  Basis Set:
  Basis Set: CC-PVTZ
  Basis Set:
  @DF-RHF Final Energy:  -266.91016125110542
    Total Energy =                       -266.9101612511052508
  Basis Set: CC-PVTZ
  Basis Set:
  Basis Set: CC-PVTZ
  Basis Set:
  @DF-RHF Final Energy:  -266.91245221738529
    Total Energy =                       -266.9124522173855212
  Basis Set: CC-PVTZ
  Basis Set:
  Basis Set: CC-PVTZ
  Basis Set:
  @DF-RHF Final Energy:  -266.91380899186640
    Total Energy =                       -266.9138089918664605
  Basis Set: CC-PVTZ
  Basis Set:
  Basis Set: CC-PVTZ
  Basis Set:
  @DF-RHF Final Energy:  -266.91383703093959
    Total Energy =                       -266.9138370309397033
  Basis Set: CC-PVTZ
  Basis Set:
  Basis Set: CC-PVTZ
  Basis Set:
  @DF-RHF Final Energy:  -266.91384138836798
    Total Energy =                       -266.9138413883679846
  Basis Set: CC-PVTZ
  Basis Set:
  Charge       = 0
  Multiplicity = 1
  Basis Set: CC-PVTZ
  Basis Set:

    Orbital Energies (a.u.)
    -----------------------

    Doubly Occupied:

       1A    -20.585553     2A    -20.559874     3A    -11.373594
       4A    -11.298377     5A    -11.226308     6A     -1.469928
       7A     -1.381008     8A     -1.049782     9A     -0.890424
      10A     -0.824108    11A     -0.743283    12A     -0.692510
      13A     -0.652164    14A     -0.638552    15A     -0.563879
      16A     -0.542541    17A     -0.535409    18A     -0.508019
      19A     -0.467242    20A     -0.455523

  @DF-RHF Final Energy:  -266.91384143708137

   => Energetics <=

    Nuclear Repulsion Energy =            177.6075876473239248
    One-Electron Energy =                -716.1267045069469077
    Two-Electron Energy =                 271.6052754225414674
    DFT Exchange-Correlation Energy =       0.0000000000000000
    Empirical Dispersion Energy =           0.0000000000000000
    PCM Polarization Energy =               0.0000000000000000
    EFP Energy =                            0.0000000000000000
    Total Energy =                       -266.9138414370814871
    Molecular point group: c1
  Basis Set: CC-PVTZ
  Basis Set:

  -Total Gradient:
     Atom            X                  Y                   Z
    ------   -----------------  -----------------  -----------------
       1       -0.000009451697     0.000005702166     0.000006079826
       2       -0.000144609610     0.001173548187    -0.005862419519
       3        0.000720051399    -0.004021332929     0.002685230156
       4       -0.000075109910     0.000083700714     0.003733949695
       5       -0.000507621044     0.002768520154    -0.000540958236
       6        0.000007241549    -0.000004404540    -0.000006165792
       7        0.000015579129    -0.000007875172    -0.000014790335
       8       -0.000005003679     0.000007174103     0.000003827793
       9       -0.000006767144    -0.000003630759    -0.000001566607
      10        0.000007012058    -0.000002381610    -0.000002242983
      11       -0.000001321052     0.000000979686    -0.000000943998

  **** Optimization is complete! (in 7 steps) ****
    Final optimized geometry and variables:
    Molecular point group: c1

    Geometry (in Angstrom), charge = 0, multiplicity = 1:

    H           -1.858055742661     0.979628149047     0.466291273101
    C           -1.264220623344     0.067768372283     0.433647518342
    O            0.049778358880     0.307945596640     0.448936841236
    O           -1.743695661776    -1.001432011871     0.444816862981
    C            0.743681126288     0.186421619068    -0.787294194834
    C            2.208127332223     0.450169201810    -0.532914628793
    H            0.339757555313     0.904684363005    -1.493662862809
    H            0.587621970531    -0.809112497675    -1.182290527924
    H            2.353327238093     1.444351229625    -0.130411501496
    H            2.762313796046     0.368252017932    -1.460466927448
    H            2.604912783126    -0.268354846294     0.172154259200

  Mulliken Charges: (a.u.)
   Center  Symbol    Alpha    Beta     Spin     Total
       1     H     0.46266  0.46266  0.00000  0.07469
       2     C     2.83784  2.83784  0.00000  0.32432
       3     O     4.16109  4.16109  0.00000 -0.32217
       4     O     4.16615  4.16615  0.00000 -0.33230
       5     C     2.96765  2.96765  0.00000  0.06470
       6     C     3.13434  3.13434  0.00000 -0.26867
       7     H     0.46519  0.46519  0.00000  0.06963
       8     H     0.45301  0.45301  0.00000  0.09398
       9     H     0.44977  0.44977  0.00000  0.10047
      10     H     0.45592  0.45592  0.00000  0.08816
      11     H     0.44639  0.44639  0.00000  0.10721

   Total alpha = 20.00000, Total beta = 20.00000, Total charge = -0.00000

*** Psi4 exiting successfully. Buy a developer a beer!
