                              Psi4 1.0.54 Driver

  ==> Input File <==

--------------------------------------------------------------------------
set {
	reference rhf
	basis cc-pvtz
}

set_num_threads( 4 )
memory 2 gb

molecule MOL {
0 1

O	 3.219313	 0.959291	 -0.614106
C	 2.698710	 0.058177	 -0.050237
C	 1.246364	 -0.005813	 0.348416
O	 3.344101	 -1.038700	 0.312317
C	 0.453207	 1.232821	 -0.049003
H	 0.839270	 -0.907818	 -0.092281
H	 1.216683	 -0.160521	 1.422434
C	 -0.998367	 1.217982	 0.432195
H	 0.481498	 1.345443	 -1.127236
H	 0.951413	 2.105557	 0.354893
C	 -1.882951	 0.151251	 -0.211235
H	 -1.429490	 2.193659	 0.228843
H	 -1.019755	 1.099323	 1.513279
C	 -2.974089	 -0.362699	 0.724211
H	 -2.343063	 0.562702	 -1.106710
H	 -1.277828	 -0.689344	 -0.537981
C	 -3.860332	 -1.433274	 0.093961
H	 -3.593824	 0.471179	 1.045015
H	 -2.515285	 -0.763494	 1.625171
C	 -4.948977	 -1.940346	 1.033912
H	 -4.319638	 -1.034191	 -0.806312
H	 -3.242758	 -2.268683	 -0.224709
H	 -5.559098	 -2.698335	 0.556220
H	 -5.605692	 -1.133991	 1.343144
H	 -4.520279	 -2.377290	 1.929739
C	 4.720529	 -1.114346	 0.001449
H	 4.874321	 -1.055557	 -1.065852
H	 5.057824	 -2.067950	 0.373977
H	 5.264321	 -0.313596	 0.480350

	symmetry c1
}
set optking {
	frozen_dihedral = ("
		15 11 8 5
	")
}

ee,wfn = optimize('scf', return_wfn=True)
oeprop( wfn, 'DIPOLE', 'QUADRUPOLE', 'MULLIKEN_CHARGES')
f=open( 'psi4out.xyz', 'w' )
f.write( "29  " )
f.write( str(ee) + "\n" )
f.write( MOL.save_string_xyz() )
f.close()
--------------------------------------------------------------------------

    Molecular point group: c1
  Charge       = 0
  Multiplicity = 1
  Basis Set: CC-PVTZ
  Basis Set:
  @DF-RHF Final Energy:  -501.22144675476420
    Total Energy =                       -501.2214467547636332
    Molecular point group: c1
  Basis Set: CC-PVTZ
  Basis Set:
  Basis Set: CC-PVTZ
  Basis Set:
  @DF-RHF Final Energy:  -501.22032808324366
    Total Energy =                       -501.2203280832433165
  Basis Set: CC-PVTZ
  Basis Set:
  Basis Set: CC-PVTZ
  Basis Set:
  @DF-RHF Final Energy:  -501.22173976597185
    Total Energy =                       -501.2217397659721883
  Basis Set: CC-PVTZ
  Basis Set:
  Basis Set: CC-PVTZ
  Basis Set:
  @DF-RHF Final Energy:  -501.22163763951210
    Total Energy =                       -501.2216376395122097
  Basis Set: CC-PVTZ
  Basis Set:
  @DF-RHF Final Energy:  -501.22193169569960
    Total Energy =                       -501.2219316956998227
  Basis Set: CC-PVTZ
  Basis Set:
  @DF-RHF Final Energy:  -501.22148656153877
    Total Energy =                       -501.2214865615392227
  Basis Set: CC-PVTZ
  Basis Set:
  Basis Set: CC-PVTZ
  Basis Set:
  @DF-RHF Final Energy:  -501.22196880447177
    Total Energy =                       -501.2219688044717714
  Basis Set: CC-PVTZ
  Basis Set:
  Basis Set: CC-PVTZ
  Basis Set:
  @DF-RHF Final Energy:  -501.22197166019828
    Total Energy =                       -501.2219716601979371
  Basis Set: CC-PVTZ
  Basis Set:
  Charge       = 0
  Multiplicity = 1
  Basis Set: CC-PVTZ
  Basis Set:

    Orbital Energies (a.u.)
    -----------------------

    Doubly Occupied:

       1A    -20.596201     2A    -20.534042     3A    -11.364510
       4A    -11.278406     5A    -11.233360     6A    -11.217280
       7A    -11.215481     8A    -11.213931     9A    -11.213619
      10A    -11.212569    11A    -11.207318    12A     -1.472069
      13A     -1.365691    14A     -1.098821    15A     -1.068165
      16A     -1.020026    17A     -0.978173    18A     -0.929285
      19A     -0.861383    20A     -0.800594    21A     -0.790894
      22A     -0.766678    23A     -0.703954    24A     -0.685622
      25A     -0.676129    26A     -0.649638    27A     -0.630166
      28A     -0.605950    29A     -0.597694    30A     -0.579743
      31A     -0.566858    32A     -0.553796    33A     -0.535159
      34A     -0.529734    35A     -0.514974    36A     -0.508260
      37A     -0.502961    38A     -0.476858    39A     -0.472503
      40A     -0.462557    41A     -0.459887    42A     -0.458366
      43A     -0.442060    44A     -0.437451

  @DF-RHF Final Energy:  -501.22197250341253

   => Energetics <=

    Nuclear Repulsion Energy =            614.1207979859508441
    One-Electron Energy =               -1899.7079121315471184
    Two-Electron Energy =                 784.3651416421845397
    DFT Exchange-Correlation Energy =       0.0000000000000000
    Empirical Dispersion Energy =           0.0000000000000000
    PCM Polarization Energy =               0.0000000000000000
    EFP Energy =                            0.0000000000000000
    Total Energy =                       -501.2219725034118483
    Molecular point group: c1
  Basis Set: CC-PVTZ
  Basis Set:

  -Total Gradient:
     Atom            X                  Y                   Z
    ------   -----------------  -----------------  -----------------
       1       -0.000022044165     0.000008078779    -0.000013973950
       2        0.000019143026     0.000043956541     0.000000869869
       3       -0.000003958500    -0.000009288474    -0.000027635137
       4        0.000006643327    -0.000046680076     0.000033217588
       5        0.000681840892    -0.001535812042     0.002268710289
       6        0.000010034317    -0.000001831789     0.000001415740
       7       -0.000001499257     0.000004358282     0.000002412014
       8       -0.001649559654     0.002513115283    -0.002743340076
       9       -0.000001194171    -0.000015749245    -0.000002429059
      10       -0.000001116861     0.000021736257    -0.000001634418
      11        0.003872946323    -0.002467835176    -0.001438570527
      12        0.000002390643     0.000027473164     0.000003963954
      13        0.000012330010    -0.000008766406     0.000011810262
      14       -0.000023693561     0.000020713772    -0.000019324567
      15       -0.002906544780     0.001480104837     0.001912542785
      16       -0.000000334048    -0.000024104874    -0.000016332716
      17        0.000011470131     0.000000680617    -0.000001696131
      18       -0.000009730953     0.000010727798     0.000005125212
      19       -0.000009926976    -0.000002015610     0.000008167004
      20        0.000001371166    -0.000016695969     0.000025980348
      21        0.000014339655     0.000013939890    -0.000003863313
      22        0.000000559755    -0.000008431716    -0.000011251619
      23        0.000001602886    -0.000003452055     0.000000387523
      24        0.000000531397     0.000001996992    -0.000000917279
      25       -0.000009847208    -0.000002644943     0.000013318809
      26       -0.000005131529     0.000008102194    -0.000005531899
      27        0.000010235126    -0.000000939646    -0.000005937635
      28        0.000002584278    -0.000008977290     0.000006178205
      29       -0.000003441264    -0.000001759093    -0.000001661274

  **** Optimization is complete! (in 9 steps) ****
    Final optimized geometry and variables:
    Molecular point group: c1

    Geometry (in Angstrom), charge = 0, multiplicity = 1:

    O            3.067779061515     0.907555431892    -1.084343345391
    C            2.583425178614     0.206315769097    -0.263040246536
    C            1.158636356542     0.279800990921     0.223604232455
    O            3.250368428183    -0.758206613292     0.350248482720
    C            0.342235717001     1.377495702086    -0.446583620806
    H            0.723600159216    -0.701410933489     0.074637954764
    H            1.196022620770     0.425990092557     1.298305365889
    C           -1.103129118701     1.444143452689     0.051879913867
    H            0.359356428045     1.234654742126    -1.521533307391
    H            0.830006541904     2.327638880915    -0.265137867793
    C           -2.008767539948     0.305978675696    -0.442474837108
    H           -1.535279024651     2.393768227369    -0.243462364778
    H           -1.091920990509     1.448810801010     1.139293947184
    C           -3.120556765163    -0.046218654128     0.544620087685
    H           -2.474065651958     0.605791455100    -1.377018265459
    H           -1.427964933108    -0.585635328324    -0.653712491081
    C           -4.077085098203    -1.116610306668     0.027834196488
    H           -3.684506970171     0.852621119798     0.784356561802
    H           -2.677144669586    -0.382646296860     1.479018964075
    C           -5.175457833836    -1.471890047285     1.024552598681
    H           -4.529238224076    -0.776096542510    -0.899643232122
    H           -3.513304436108    -2.012020578713    -0.220374938860
    H           -5.836484761344    -2.233115407967     0.626360220041
    H           -5.779333988129    -0.603728799308     1.267068518869
    H           -4.756198416556    -1.850074169456     1.951063394360
    C            4.605221301402    -0.939485920527    -0.008319664824
    H            4.693292984127    -1.180214873632    -1.057393005071
    H            4.965242511954    -1.758583792971     0.592854090528
    H            5.176925207745    -0.046695638548     0.197407473364

  Mulliken Charges: (a.u.)
   Center  Symbol    Alpha    Beta     Spin     Total
       1     O     4.19659  4.19659  0.00000 -0.39318
       2     C     2.80486  2.80486  0.00000  0.39028
       3     C     3.10068  3.10068  0.00000 -0.20135
       4     O     4.14751  4.14751  0.00000 -0.29502
       5     C     3.09149  3.09149  0.00000 -0.18297
       6     H     0.43995  0.43995  0.00000  0.12011
       7     H     0.43981  0.43981  0.00000  0.12037
       8     C     3.10581  3.10581  0.00000 -0.21161
       9     H     0.44554  0.44554  0.00000  0.10891
      10     H     0.44090  0.44090  0.00000  0.11820
      11     C     3.09651  3.09651  0.00000 -0.19301
      12     H     0.44286  0.44286  0.00000  0.11428
      13     H     0.45625  0.45625  0.00000  0.08749
      14     C     3.08600  3.08600  0.00000 -0.17200
      15     H     0.44820  0.44820  0.00000  0.10361
      16     H     0.45341  0.45341  0.00000  0.09318
      17     C     3.08439  3.08439  0.00000 -0.16878
      18     H     0.45380  0.45380  0.00000  0.09240
      19     H     0.45593  0.45593  0.00000  0.08815
      20     C     3.15009  3.15009  0.00000 -0.30019
      21     H     0.45420  0.45420  0.00000  0.09161
      22     H     0.45478  0.45478  0.00000  0.09044
      23     H     0.44828  0.44828  0.00000  0.10343
      24     H     0.45501  0.45501  0.00000  0.08998
      25     H     0.45534  0.45534  0.00000  0.08932
      26     C     3.03798  3.03798  0.00000 -0.07596
      27     H     0.45432  0.45432  0.00000  0.09136
      28     H     0.44528  0.44528  0.00000  0.10944
      29     H     0.45423  0.45423  0.00000  0.09153

   Total alpha = 44.00000, Total beta = 44.00000, Total charge = -0.00000

*** Psi4 exiting successfully. Buy a developer a beer!
