  ==> Input File <==

--------------------------------------------------------------------------
set {
	reference rhf
	basis 6-31G*
}

set_num_threads( 4 )
memory 2 gb

molecule MOL {
0 1

O	 2.862325	 1.357334	 0.000267
C	 2.843464	 0.164689	 -0.000222
C	 1.546494	 -0.624492	 -0.000609
C	 4.124123	 -0.644674	 -0.000428
C	 0.291004	 0.242674	 0.000989
H	 1.557904	 -1.283758	 -0.867573
H	 1.558622	 -1.285963	 0.864672
C	 -0.994322	 -0.586602	 0.000262
H	 0.309117	 0.896430	 -0.865270
H	 0.309661	 0.894078	 0.869017
C	 -2.259874	 0.272531	 0.000494
H	 -1.004862	 -1.240012	 -0.870939
H	 -1.005220	 -1.241071	 0.870675
C	 -2.954444	 0.327595	 -1.361326
H	 -2.008014	 1.283392	 0.316320
H	 -2.955941	 -0.113109	 0.743306
C	 -4.217618	 1.187832	 -1.353152
H	 -2.260003	 0.714053	 -2.104445
H	 -3.208054	 -0.682176	 -1.677403
H	 -3.991854	 2.213022	 -1.073571
H	 -4.686830	 1.207787	 -2.332000
H	 -4.947103	 0.806249	 -0.644356
H	 4.165367	 -1.288615	 -0.874074
H	 4.976217	 0.020734	 -0.001915
H	 4.166763	 -1.286207	 0.874930

	symmetry c1
}
set optking {
	frozen_dihedral = ("
		15 11 8 12
	")
}

ee = optimize('scf')
oeprop('DIPOLE', 'QUADRUPOLE', 'MULLIKEN_CHARGES')
f=open( 'psi4out.xyz', 'w' )
f.write( "25  " )
f.write( str(ee) + "\n" )
f.write( MOL.save_string_xyz() )
f.close()
--------------------------------------------------------------------------

    Molecular point group: c1
  Charge       = 0
  Multiplicity = 1
  Basis Set: 6-31G*
  Basis Set:
  @DF-RHF Final Energy:  -387.13168803318200
    Total Energy =                       -387.1316880331817174
    Molecular point group: c1
  Basis Set: 6-31G*
  Basis Set:
  Basis Set: 6-31G*
  Basis Set:
  @DF-RHF Final Energy:  -387.13195571838133
    Total Energy =                       -387.1319557183819597
  Basis Set: 6-31G*
  Basis Set:
  Basis Set: 6-31G*
  Basis Set:
  @DF-RHF Final Energy:  -387.13205606600155
    Total Energy =                       -387.1320560660021783
  Basis Set: 6-31G*
  Basis Set:
  Basis Set: 6-31G*
  Basis Set:
  @DF-RHF Final Energy:  -387.13183554000727
    Total Energy =                       -387.1318355400068185
  Basis Set: 6-31G*
  Basis Set:
  Basis Set: 6-31G*
  Basis Set:
  @DF-RHF Final Energy:  -387.13205816102175
    Total Energy =                       -387.1320581610214049
  Basis Set: 6-31G*
  Basis Set:
  Basis Set: 6-31G*
  Basis Set:
  @DF-RHF Final Energy:  -387.13205773521599
    Total Energy =                       -387.1320577352162218
  Basis Set: 6-31G*
  Basis Set:
  Basis Set: 6-31G*
  Basis Set:
  @DF-RHF Final Energy:  -387.13206047413388
    Total Energy =                       -387.1320604741340503
  Basis Set: 6-31G*
  Basis Set:
  Charge       = 0
  Multiplicity = 1
  Basis Set: 6-31G*
  Basis Set:

    Orbital Energies (a.u.)
    -----------------------

    Doubly Occupied:

       1A    -20.550513     2A    -11.326382     3A    -11.231721
       4A    -11.228370     5A    -11.217151     6A    -11.216470
       7A    -11.215070     8A    -11.213284     9A    -11.207592
      10A     -1.395817    11A     -1.092671    12A     -1.055267
      13A     -1.013757    14A     -0.967969    15A     -0.890065
      16A     -0.819681    17A     -0.786681    18A     -0.730554
      19A     -0.653013    20A     -0.651930    21A     -0.635928
      22A     -0.619126    23A     -0.603292    24A     -0.580688
      25A     -0.564936    26A     -0.564008    27A     -0.543328
      28A     -0.527033    29A     -0.505698    30A     -0.490972
      31A     -0.485630    32A     -0.480393    33A     -0.464058
      34A     -0.455004    35A     -0.448181    36A     -0.399619

  @DF-RHF Final Energy:  -387.13206039358414

   => Energetics <=

    Nuclear Repulsion Energy =            442.0441903231671290
    One-Electron Energy =               -1400.6887940812907800
    Two-Electron Energy =                 571.5125433645399653
    DFT Exchange-Correlation Energy =       0.0000000000000000
    Empirical Dispersion Energy =           0.0000000000000000
    PCM Polarization Energy =               0.0000000000000000
    EFP Energy =                            0.0000000000000000
    Total Energy =                       -387.1320603935836289
    Molecular point group: c1
  Basis Set: 6-31G*
  Basis Set:

  -Total Gradient:
     Atom            X                  Y                   Z
    ------   -----------------  -----------------  -----------------
       1        0.000000443621    -0.000000721994    -0.000011897649
       2       -0.000000380946     0.000001460386     0.000032762856
       3        0.000001664973     0.000002398903    -0.000004031972
       4       -0.000001863189    -0.000000224540     0.000001570054
       5        0.000007958771     0.000005115588    -0.000010895384
       6       -0.000004346757     0.000000923069     0.000003624992
       7        0.000003433645    -0.000001950703     0.000004400729
       8       -0.001548642306    -0.002296961800     0.001200929349
       9        0.000002151512    -0.000002979987    -0.000004484855
      10       -0.000002759560     0.000005259601    -0.000003987828
      11       -0.000342995113    -0.000403520187     0.003007652848
      12        0.001355808711     0.001992734048    -0.001496920305
      13        0.000001847647     0.000004765094    -0.000006427407
      14       -0.000007475801    -0.000016646535    -0.000004972511
      15        0.000525721134     0.000709961798    -0.002692903004
      16        0.000002790365    -0.000006317391    -0.000009535208
      17        0.000014176113     0.000014702045     0.000001038513
      18       -0.000000174878    -0.000008624815    -0.000004521145
      19       -0.000009285305    -0.000000176078     0.000007289554
      20       -0.000003612168     0.000001882805     0.000006145192
      21        0.000006229854     0.000004053316    -0.000001391429
      22        0.000000153052    -0.000005333699    -0.000004296715
      23        0.000000044233     0.000002005456    -0.000003765919
      24       -0.000000534993     0.000000289675    -0.000001732592
      25       -0.000000352617    -0.000002094057    -0.000003650168

  **** Optimization is complete! (in 8 steps) ****
    Final optimized geometry and variables:
    Molecular point group: c1

    Geometry (in Angstrom), charge = 0, multiplicity = 1:

    O            2.704127766625     1.171335698362     0.304998099410
    C            2.697060296783    -0.021369145106     0.291231181491
    C            1.408064353823    -0.823502564864     0.303655809275
    C            3.985440774423    -0.817691092426     0.259312687599
    C            0.144698860060     0.030558709643     0.343982656239
    H            1.409150768548    -1.468731724922    -0.573945010704
    H            1.443290676360    -1.498787429252     1.157681615039
    C           -1.134483764076    -0.812004478951     0.363208818888
    H            0.136693273156     0.695208157308    -0.514553727581
    H            0.175694388937     0.671595821106     1.219118530948
    C           -2.417009624816     0.044379368233     0.335547355643
    H           -1.122949776142    -1.471635513359    -0.502288500421
    H           -1.126819829469    -1.451962360611     1.241745664630
    C           -3.066727562889     0.113684576557    -1.050128705560
    H           -2.181028075331     1.059062942515     0.648248072302
    H           -3.143542111317    -0.339918686472     1.046331494376
    C           -4.295310531369     1.021014852907    -1.089101024914
    H           -2.334704197356     0.466589932064    -1.774002848358
    H           -3.347697802450    -0.889107881208    -1.364878463166
    H           -4.038423244129     2.040958979958    -0.817411608089
    H           -4.736642900694     1.044216630641    -2.080753440318
    H           -5.058049520869     0.677531659780    -0.395686642571
    H            4.016948837651    -1.452502256941    -0.621395333729
    H            4.830738552694    -0.143757178263     0.248943870884
    H            4.050539663361    -1.467406526714     1.127225221508

  Mulliken Charges: (a.u.)
   Center  Symbol    Alpha    Beta     Spin     Total
       1     O     4.26119  4.26119  0.00000 -0.52238
       2     C     2.73568  2.73568  0.00000  0.52865
       3     C     3.21112  3.21112  0.00000 -0.42224
       4     C     3.28669  3.28669  0.00000 -0.57338
       5     C     3.15014  3.15014  0.00000 -0.30029
       6     H     0.40993  0.40993  0.00000  0.18014
       7     H     0.41013  0.41013  0.00000  0.17975
       8     C     3.15690  3.15690  0.00000 -0.31380
       9     H     0.41222  0.41222  0.00000  0.17557
      10     H     0.41167  0.41167  0.00000  0.17667
      11     C     3.15429  3.15429  0.00000 -0.30858
      12     H     0.42309  0.42309  0.00000  0.15382
      13     H     0.42169  0.42169  0.00000  0.15662
      14     C     3.15333  3.15333  0.00000 -0.30667
      15     H     0.41921  0.41921  0.00000  0.16158
      16     H     0.42079  0.42079  0.00000  0.15842
      17     C     3.23992  3.23992  0.00000 -0.47984
      18     H     0.42269  0.42269  0.00000  0.15461
      19     H     0.42330  0.42330  0.00000  0.15339
      20     H     0.42068  0.42068  0.00000  0.15865
      21     H     0.41940  0.41940  0.00000  0.16120
      22     H     0.42206  0.42206  0.00000  0.15589
      23     H     0.40876  0.40876  0.00000  0.18248
      24     H     0.39647  0.39647  0.00000  0.20706
      25     H     0.40866  0.40866  0.00000  0.18268

   Total alpha = 36.00000, Total beta = 36.00000, Total charge = -0.00000
