                              Psi4 1.0.54 Driver

  ==> Input File <==

--------------------------------------------------------------------------
set {
	reference rhf
	basis cc-pvtz
}

set_num_threads( 4 )
memory 2 gb

molecule MOL {
0 1

H	 1.206861	 -0.085305	 -0.893864
C	 0.848385	 0.440008	 0.000011
C	 -0.623497	 0.751021	 0.000090
O	 1.601355	 0.717443	 0.867945
C	 -1.523725	 -0.474323	 -0.000013
H	 -0.813143	 1.382932	 -0.864897
H	 -0.813071	 1.382716	 0.865253
H	 -1.342980	 -1.087348	 -0.873016
H	 -2.565269	 -0.177464	 0.000070
H	 -1.342898	 -1.087564	 0.872820

	symmetry c1
}
set optking {
	frozen_dihedral = ("
		4 2 3 6
	")
}

ee,wfn = optimize('scf', return_wfn=True)
oeprop( wfn, 'DIPOLE', 'QUADRUPOLE', 'MULLIKEN_CHARGES')
f=open( 'psi4out.xyz', 'w' )
f.write( "10  " )
f.write( str(ee) + "\n" )
f.write( MOL.save_string_xyz() )
f.close()
--------------------------------------------------------------------------

    Molecular point group: c1
  Charge       = 0
  Multiplicity = 1
  Basis Set: CC-PVTZ
  Basis Set:
  @DF-RHF Final Energy:  -192.02256141351000
    Total Energy =                       -192.0225614135100614
    Molecular point group: c1
  Basis Set: CC-PVTZ
  Basis Set:
  Basis Set: CC-PVTZ
  Basis Set:
  @DF-RHF Final Energy:  -192.02326697360718
    Total Energy =                       -192.0232669736071784
  Basis Set: CC-PVTZ
  Basis Set:
  Basis Set: CC-PVTZ
  Basis Set:
  @DF-RHF Final Energy:  -192.02311766003015
    Total Energy =                       -192.0231176600302092
  Basis Set: CC-PVTZ
  Basis Set:
  Basis Set: CC-PVTZ
  Basis Set:
  @DF-RHF Final Energy:  -192.02327016000146
    Total Energy =                       -192.0232701600014877
  Basis Set: CC-PVTZ
  Basis Set:
  Charge       = 0
  Multiplicity = 1
  Basis Set: CC-PVTZ
  Basis Set:

    Orbital Energies (a.u.)
    -----------------------

    Doubly Occupied:

       1A    -20.553613     2A    -11.322715     3A    -11.238240
       4A    -11.232613     5A     -1.408452     6A     -1.068250
       7A     -0.905136     8A     -0.794114     9A     -0.678077
      10A     -0.644080    11A     -0.616250    12A     -0.570357
      13A     -0.545061    14A     -0.515781    15A     -0.499760
      16A     -0.415038

  @DF-RHF Final Energy:  -192.02332853051087

   => Energetics <=

    Nuclear Repulsion Energy =            117.6763043028528841
    One-Electron Energy =                -493.3841855608110336
    Two-Electron Energy =                 183.6845527274473397
    DFT Exchange-Correlation Energy =       0.0000000000000000
    Empirical Dispersion Energy =           0.0000000000000000
    PCM Polarization Energy =               0.0000000000000000
    EFP Energy =                            0.0000000000000000
    Total Energy =                       -192.0233285305108097
    Molecular point group: c1
  Basis Set: CC-PVTZ
  Basis Set:

  -Total Gradient:
     Atom            X                  Y                   Z
    ------   -----------------  -----------------  -----------------
       1        0.000046461065    -0.000083707081    -0.000089038198
       2       -0.000042742019     0.000398551563    -0.000208236703
       3       -0.000012077763     0.000135707276     0.000288618414
       4        0.000005546425    -0.000208454401     0.000193844249
       5        0.000096688410     0.000116896332     0.000016378157
       6       -0.000038333440    -0.000227319773    -0.000181978961
       7        0.000037471251    -0.000071920788    -0.000015189197
       8       -0.000012560255    -0.000010369971    -0.000005089645
       9       -0.000051021613    -0.000010414034    -0.000007874595
      10       -0.000029432062    -0.000038969120     0.000008566481

  **** Optimization is complete! (in 5 steps) ****
    Final optimized geometry and variables:
    Molecular point group: c1

    Geometry (in Angstrom), charge = 0, multiplicity = 1:

    H            1.061161785961    -0.516437240866    -1.111262038648
    C            0.754111472395     0.067855735380    -0.233286523552
    C           -0.705278617552     0.428513968327    -0.187199796243
    O            1.548389951018     0.357900781058     0.592609863612
    C           -1.591915192728    -0.818133247662    -0.194904751713
    H           -0.921588811185     1.029797885669    -1.066640118196
    H           -0.882400777228     1.033503468844     0.691225543088
    H           -1.398880020540    -1.434641459590    -1.065911109432
    H           -2.637301166372    -0.538935001278    -0.213410336606
    H           -1.421846130170    -1.422249375840     0.688205539808

  Mulliken Charges: (a.u.)
   Center  Symbol    Alpha    Beta     Spin     Total
       1     H     0.46614  0.46614  0.00000  0.06772
       2     C     2.90015  2.90015  0.00000  0.19971
       3     C     3.08038  3.08038  0.00000 -0.16075
       4     O     4.16390  4.16390  0.00000 -0.32780
       5     C     3.15076  3.15076  0.00000 -0.30152
       6     H     0.45138  0.45138  0.00000  0.09724
       7     H     0.44210  0.44210  0.00000  0.11580
       8     H     0.45360  0.45360  0.00000  0.09280
       9     H     0.44442  0.44442  0.00000  0.11116
      10     H     0.44718  0.44718  0.00000  0.10564

   Total alpha = 16.00000, Total beta = 16.00000, Total charge =  0.00000

*** Psi4 exiting successfully. Buy a developer a beer!
