  ==> Input File <==

--------------------------------------------------------------------------
set {
	reference rhf
	basis 6-31G*
}

set_num_threads( 4 )
memory 2 gb

molecule MOL {
0 1

O	 -2.439739	 -0.935931	 -0.423848
C	 -1.921153	 0.064240	 -0.045697
C	 -2.624470	 1.379923	 0.150949
O	 -0.632575	 0.154573	 0.251549
H	 -2.168117	 2.136577	 -0.476876
H	 -3.669540	 1.273223	 -0.098610
H	 -2.519365	 1.700893	 1.180846
C	 0.160891	 -1.019931	 0.106212
C	 1.589627	 -0.672828	 0.480843
H	 0.089836	 -1.367806	 -0.916050
H	 -0.238459	 -1.792301	 0.749618
C	 2.630984	 -1.648172	 -0.071135
H	 1.647075	 -0.653640	 1.567243
H	 1.807462	 0.335299	 0.138080
C	 4.054857	 -1.284068	 0.347212
H	 2.398593	 -2.653658	 0.273964
H	 2.564289	 -1.669551	 -1.153934
H	 4.774024	 -1.989327	 -0.057065
H	 4.160770	 -1.286933	 1.428440
H	 4.326831	 -0.294334	 -0.008507

	symmetry c1
}
set optking {
	frozen_dihedral = ("
		12 9 8 10
	")
}

ee = optimize('scf')
oeprop('DIPOLE', 'QUADRUPOLE', 'MULLIKEN_CHARGES')
f=open( 'psi4out.xyz', 'w' )
f.write( "20  " )
f.write( str(ee) + "\n" )
f.write( MOL.save_string_xyz() )
f.close()
--------------------------------------------------------------------------

    Molecular point group: c1
  Charge       = 0
  Multiplicity = 1
  Basis Set: 6-31G*
  Basis Set:
  @DF-RHF Final Energy:  -383.94376557340479
    Total Energy =                       -383.9437655734044483
    Molecular point group: c1
  Basis Set: 6-31G*
  Basis Set:
  Basis Set: 6-31G*
  Basis Set:
  @DF-RHF Final Energy:  -383.94410481852651
    Total Energy =                       -383.9441048185265117
  Basis Set: 6-31G*
  Basis Set:
  Basis Set: 6-31G*
  Basis Set:
  @DF-RHF Final Energy:  -383.94309682747149
    Total Energy =                       -383.9430968274710949
  Basis Set: 6-31G*
  Basis Set:
  Basis Set: 6-31G*
  Basis Set:
  @DF-RHF Final Energy:  -383.94421671182209
    Total Energy =                       -383.9442167118223779
  Basis Set: 6-31G*
  Basis Set:
  Basis Set: 6-31G*
  Basis Set:
  @DF-RHF Final Energy:  -383.94421414348403
    Total Energy =                       -383.9442141434836913
  Basis Set: 6-31G*
  Basis Set:
  Basis Set: 6-31G*
  Basis Set:
  @DF-RHF Final Energy:  -383.94422566895645
    Total Energy =                       -383.9442256689563919
  Basis Set: 6-31G*
  Basis Set:
  Charge       = 0
  Multiplicity = 1
  Basis Set: 6-31G*
  Basis Set:

    Orbital Energies (a.u.)
    -----------------------

    Doubly Occupied:

       1A    -20.601833     2A    -20.543903     3A    -11.374236
       4A    -11.281504     5A    -11.233063     6A    -11.226337
       7A    -11.224215     8A    -11.215832     9A     -1.468048
      10A     -1.362198    11A     -1.087672    12A     -1.029751
      13A     -0.980561    14A     -0.881442    15A     -0.808494
      16A     -0.777160    17A     -0.690969    18A     -0.685882
      19A     -0.668852    20A     -0.637597    21A     -0.594829
      22A     -0.593973    23A     -0.570576    24A     -0.559875
      25A     -0.545217    26A     -0.520038    27A     -0.507362
      28A     -0.484557    29A     -0.481753    30A     -0.475510
      31A     -0.451245    32A     -0.437234

  @DF-RHF Final Energy:  -383.94422593781917

   => Energetics <=

    Nuclear Repulsion Energy =            378.8581193673253438
    One-Electron Energy =               -1273.6012572186953093
    Two-Electron Energy =                 510.7989119135505689
    DFT Exchange-Correlation Energy =       0.0000000000000000
    Empirical Dispersion Energy =           0.0000000000000000
    PCM Polarization Energy =               0.0000000000000000
    EFP Energy =                            0.0000000000000000
    Total Energy =                       -383.9442259378193967
    Molecular point group: c1
  Basis Set: 6-31G*
  Basis Set:

  -Total Gradient:
     Atom            X                  Y                   Z
    ------   -----------------  -----------------  -----------------
       1       -0.000013090253     0.000005030476     0.000012855279
       2        0.000030948072     0.000021224726    -0.000070436274
       3       -0.000006540798    -0.000016495533     0.000030473423
       4       -0.000006218574    -0.000022672098    -0.000003936542
       5        0.000000079174     0.000000569204    -0.000004142500
       6        0.000000214850    -0.000000084047     0.000000316518
       7        0.000002931429     0.000000615550    -0.000002869139
       8       -0.000585053679     0.004967386157    -0.002295855457
       9       -0.000203236101    -0.002896377348     0.003390913405
      10        0.000524076975    -0.003509534870     0.001169316910
      11        0.000025793492     0.000014901098    -0.000014940459
      12        0.000233411485     0.001433640047    -0.002198028041
      13       -0.000001719033    -0.000007771580    -0.000006563916
      14        0.000008446185    -0.000000160536     0.000006653030
      15        0.000008535515     0.000012112337    -0.000018849104
      16       -0.000000478522     0.000004272127     0.000013294364
      17       -0.000008625090    -0.000006718562    -0.000005461001
      18       -0.000004447483     0.000005900446    -0.000009858988
      19       -0.000004602614    -0.000012386527    -0.000002236952
      20       -0.000000425015     0.000006548938     0.000009355446

  **** Optimization is complete! (in 7 steps) ****
    Final optimized geometry and variables:
    Molecular point group: c1

    Geometry (in Angstrom), charge = 0, multiplicity = 1:

    O           -2.526384109493    -0.463494936612    -0.503738036902
    C           -2.015607909882     0.547066588088    -0.142947560458
    C           -2.734918479202     1.852976480655     0.060934740597
    O           -0.723515669997     0.658581099382     0.131374414298
    H           -2.301709988243     2.613164157830    -0.578828033561
    H           -3.782701239112     1.729220814700    -0.168604973046
    H           -2.615253280545     2.180430114726     1.087208542992
    C            0.082009581030    -0.503814104688    -0.014485004880
    C            1.506751659171    -0.146244507242     0.377720929012
    H            0.026259795398    -0.865056674279    -1.033368191652
    H           -0.315817955544    -1.287689515729     0.616916539429
    C            2.526381970657    -1.149302503060    -0.166002563532
    H            1.581033411399    -0.074665465834     1.459138606840
    H            1.733013299860     0.840461990565    -0.016523623809
    C            3.956671642116    -0.826341120451     0.263416123941
    H            2.269875171765    -2.153429203641     0.166324801669
    H            2.468466026972    -1.162484566610    -1.251618626723
    H            4.659978365063    -1.543059480499    -0.148157517076
    H            4.055808665884    -0.848094497403     1.344717723285
    H            4.253302873094     0.161928391253    -0.075886239686

  Mulliken Charges: (a.u.)
   Center  Symbol    Alpha    Beta     Spin     Total
       1     O     4.28321  4.28321  0.00000 -0.56642
       2     C     2.62006  2.62006  0.00000  0.75989
       3     C     3.28156  3.28156  0.00000 -0.56311
       4     O     4.30995  4.30995  0.00000 -0.61990
       5     H     0.40058  0.40058  0.00000  0.19884
       6     H     0.39699  0.39699  0.00000  0.20602
       7     H     0.40051  0.40051  0.00000  0.19898
       8     C     2.99659  2.99659  0.00000  0.00682
       9     C     3.16469  3.16469  0.00000 -0.32938
      10     H     0.41117  0.41117  0.00000  0.17766
      11     H     0.41057  0.41057  0.00000  0.17887
      12     C     3.16080  3.16080  0.00000 -0.32160
      13     H     0.41534  0.41534  0.00000  0.16931
      14     H     0.41234  0.41234  0.00000  0.17531
      15     C     3.23953  3.23953  0.00000 -0.47907
      16     H     0.42021  0.42021  0.00000  0.15959
      17     H     0.41899  0.41899  0.00000  0.16203
      18     H     0.41697  0.41697  0.00000  0.16605
      19     H     0.41999  0.41999  0.00000  0.16002
      20     H     0.41995  0.41995  0.00000  0.16010

   Total alpha = 32.00000, Total beta = 32.00000, Total charge =  0.00000
