  ==> Input File <==

--------------------------------------------------------------------------
set {
	reference rhf
	basis 6-31G*
}

set_num_threads( 4 )
memory 2 gb

molecule MOL {
0 1

H	 2.887247	 -0.246086	 -0.966258
N	 2.434251	 -0.367735	 -0.081097
C	 1.267428	 0.496480	 0.024474
H	 3.108386	 -0.135129	 0.623425
C	 -0.016086	 -0.325158	 -0.029487
H	 1.288818	 1.183521	 -0.816092
H	 1.267576	 1.109062	 0.929528
C	 -1.282277	 0.529072	 0.046735
H	 -0.012495	 -0.908639	 -0.945788
H	 -0.015903	 -1.041248	 0.791956
C	 -2.563920	 -0.301775	 -0.006060
H	 -1.284084	 1.244622	 -0.773004
H	 -1.271387	 1.115393	 0.963286
H	 -2.621848	 -0.873522	 -0.927727
H	 -3.445135	 0.329952	 0.047812
H	 -2.609542	 -1.004582	 0.821105

	symmetry c1
}
set optking {
	frozen_dihedral = ("
		1 2 3 6
	")
}

ee = optimize('scf')
oeprop('DIPOLE', 'QUADRUPOLE', 'MULLIKEN_CHARGES')
f=open( 'psi4out.xyz', 'w' )
f.write( "16  " )
f.write( str(ee) + "\n" )
f.write( MOL.save_string_xyz() )
f.close()
--------------------------------------------------------------------------

    Molecular point group: c1
  Charge       = 0
  Multiplicity = 1
  Basis Set: 6-31G*
  Basis Set:
  @DF-RHF Final Energy:  -212.31284206230953
    Total Energy =                       -212.3128420623095280
    Molecular point group: c1
  Basis Set: 6-31G*
  Basis Set:
  Basis Set: 6-31G*
  Basis Set:
  @DF-RHF Final Energy:  -212.31368360622844
    Total Energy =                       -212.3136836062282669
  Basis Set: 6-31G*
  Basis Set:
  Basis Set: 6-31G*
  Basis Set:
  @DF-RHF Final Energy:  -212.31390672747764
    Total Energy =                       -212.3139067274774447
  Basis Set: 6-31G*
  Basis Set:
  Basis Set: 6-31G*
  Basis Set:
  @DF-RHF Final Energy:  -212.31390800575511
    Total Energy =                       -212.3139080057550245
  Basis Set: 6-31G*
  Basis Set:
  Basis Set: 6-31G*
  Basis Set:
  @DF-RHF Final Energy:  -212.31391171672456
    Total Energy =                       -212.3139117167246468
  Basis Set: 6-31G*
  Basis Set:
  Charge       = 0
  Multiplicity = 1
  Basis Set: 6-31G*
  Basis Set:

    Orbital Energies (a.u.)
    -----------------------

    Doubly Occupied:

       1A    -15.531419     2A    -11.240754     3A    -11.211808
       4A    -11.205538     5A    -11.202724     6A     -1.173274
       7A     -1.056567     8A     -0.957391     9A     -0.842151
      10A     -0.786368    11A     -0.674668    12A     -0.621795
      13A     -0.609928    14A     -0.575899    15A     -0.551123
      16A     -0.532330    17A     -0.488233    18A     -0.474632
      19A     -0.464398    20A     -0.458164    21A     -0.377516

  @DF-RHF Final Energy:  -212.31391214965436

   => Energetics <=

    Nuclear Repulsion Energy =            185.8005867603480397
    One-Electron Energy =                -654.1556366652871475
    Two-Electron Energy =                 256.0411377552846943
    DFT Exchange-Correlation Energy =       0.0000000000000000
    Empirical Dispersion Energy =           0.0000000000000000
    PCM Polarization Energy =               0.0000000000000000
    EFP Energy =                            0.0000000000000000
    Total Energy =                       -212.3139121496544135
    Molecular point group: c1
  Basis Set: 6-31G*
  Basis Set:

  -Total Gradient:
     Atom            X                  Y                   Z
    ------   -----------------  -----------------  -----------------
       1        0.000774220896     0.001031232589     0.000578936936
       2       -0.001170163013    -0.001512153326    -0.000913317368
       3        0.001028047088     0.001332501918     0.001041795068
       4       -0.000004497028     0.000003178123     0.000005583981
       5        0.000019407893    -0.000009092998    -0.000017918919
       6       -0.000654020777    -0.000838734884    -0.000733905554
       7        0.000002178775    -0.000008420638     0.000003492275
       8        0.000004352993     0.000006992262     0.000020307564
       9        0.000007221792    -0.000005613526     0.000001590504
      10       -0.000010423149     0.000004744373     0.000003178854
      11        0.000002464697    -0.000004336406     0.000005898021
      12        0.000017485243    -0.000006828186     0.000004284342
      13       -0.000016204623     0.000005774327     0.000004031914
      14        0.000001962562     0.000001953694    -0.000000776977
      15        0.000000294090     0.000000202914    -0.000001890562
      16       -0.000002327439    -0.000001400234    -0.000001290080

  **** Optimization is complete! (in 6 steps) ****
    Final optimized geometry and variables:
    Molecular point group: c1

    Geometry (in Angstrom), charge = 0, multiplicity = 1:

    H            2.927147490403    -0.246900608701    -0.927340243434
    N            2.444174384149    -0.369659091561    -0.060458106037
    C            1.262484122952     0.489887955117     0.019331054885
    H            3.098469185051    -0.156522346334     0.664827488727
    C           -0.023347385836    -0.332335959823    -0.020074401533
    H            1.246327438273     1.209926105330    -0.797075807962
    H            1.290159995854     1.068115088809     0.938907319125
    C           -1.288882467123     0.522532514180     0.057185652739
    H           -0.031122400868    -0.922298077271    -0.933965490613
    H           -0.003227295940    -1.044338465538     0.800996410282
    C           -2.572024093726    -0.306963187831     0.016573465972
    H           -1.296924372191     1.235965342877    -0.764964840163
    H           -1.272842781015     1.113490152066     0.971293689660
    H           -2.636435650639    -0.882895371698    -0.902216392558
    H           -3.452837417024     0.325339405234     0.073478157571
    H           -2.611965062892    -1.006399981782     0.846699522038

  Mulliken Charges: (a.u.)
   Center  Symbol    Alpha    Beta     Spin     Total
       1     H     0.33195  0.33195  0.00000  0.33609
       2     N     3.92603  3.92603  0.00000 -0.85207
       3     C     3.06830  3.06830  0.00000 -0.13661
       4     H     0.33142  0.33142  0.00000  0.33716
       5     C     3.13813  3.13813  0.00000 -0.27626
       6     H     0.42774  0.42774  0.00000  0.14451
       7     H     0.42481  0.42481  0.00000  0.15039
       8     C     3.15768  3.15768  0.00000 -0.31536
       9     H     0.42291  0.42291  0.00000  0.15418
      10     H     0.41986  0.41986  0.00000  0.16027
      11     C     3.23790  3.23790  0.00000 -0.47580
      12     H     0.42504  0.42504  0.00000  0.14992
      13     H     0.42486  0.42486  0.00000  0.15029
      14     H     0.42154  0.42154  0.00000  0.15692
      15     H     0.42058  0.42058  0.00000  0.15885
      16     H     0.42124  0.42124  0.00000  0.15752

   Total alpha = 21.00000, Total beta = 21.00000, Total charge = -0.00000
