  ==> Input File <==

--------------------------------------------------------------------------
set {
	reference rhf
	basis 6-31G*
}

set_num_threads( 1 )
memory 2 gb

molecule MOL {
0 1

H	 -0.509752	 4.157325	 2.001880
O	 0.171264	 3.558965	 1.729691
C	 -0.406965	 2.375242	 1.242822
C	 0.711784	 1.441435	 0.816027
H	 -1.015180	 1.901381	 2.012132
H	 -1.058884	 2.587232	 0.396417
C	 0.198102	 0.111031	 0.262842
H	 1.356772	 1.266644	 1.672862
H	 1.315535	 1.950022	 0.069501
C	 1.331804	 -0.827780	 -0.158768
H	 -0.422881	 -0.372110	 1.013260
H	 -0.446755	 0.298576	 -0.594773
C	 2.723619	 -0.410569	 0.329459
H	 1.342964	 -0.912588	 -1.244120
H	 1.116806	 -1.824343	 0.220779
C	 3.243875	 0.895854	 -0.272975
H	 3.424222	 -1.207124	 0.091250
H	 2.714788	 -0.329854	 1.414619
H	 3.251977	 0.848779	 -1.358681
H	 2.637085	 1.747371	 0.016682
H	 4.259473	 1.094070	 0.055697

	symmetry c1
}
set optking {
	frozen_dihedral = ("
		2 3 4 8,
		8 4 7 10,
		16 13 10 14,
		1 2 3 5
	")
}

ee = energy('scf')
oeprop('DIPOLE', 'QUADRUPOLE', 'MULLIKEN_CHARGES')
f=open( 'psi4out.xyz', 'w' )
f.write( "21  " )
f.write( str(ee) + "\n" )
f.write( MOL.save_string_xyz() )
f.close()
--------------------------------------------------------------------------

    Molecular point group: c1

    Geometry (in Angstrom), charge = 0, multiplicity = 1:

       Center              X                  Y                   Z               Mass
    ------------   -----------------  -----------------  -----------------  -----------------
           H         -1.630885506130     3.067843157066     1.413151781949     1.007825032070
           O         -0.949869506130     2.469483157066     1.140962781949    15.994914619560
           C         -1.528098506130     1.285760157066     0.654093781949    12.000000000000
           C         -0.409349506130     0.351953157066     0.227298781949    12.000000000000
           H         -2.136313506130     0.811899157066     1.423403781949     1.007825032070
           H         -2.180017506130     1.497750157066    -0.192311218051     1.007825032070
           C         -0.923031506130    -0.978450842934    -0.325886218051    12.000000000000
           H          0.235638493870     0.177162157066     1.084133781949     1.007825032070
           H          0.194401493870     0.860540157066    -0.519227218051     1.007825032070
           C          0.210670493870    -1.917261842934    -0.747496218051    12.000000000000
           H         -1.544014506130    -1.461591842934     0.424531781949     1.007825032070
           H         -1.567888506130    -0.790905842934    -1.183501218051     1.007825032070
           C          1.602485493870    -1.500050842934    -0.259269218051    12.000000000000
           H          0.221830493870    -2.002069842934    -1.832848218051     1.007825032070
           H         -0.004327506130    -2.913824842934    -0.367949218051     1.007825032070
           C          2.122741493870    -0.193627842934    -0.861703218051    12.000000000000
           H          2.303088493870    -2.296605842934    -0.497478218051     1.007825032070
           H          1.593654493870    -1.419335842934     0.825890781949     1.007825032070
           H          2.130843493870    -0.240702842934    -1.947409218051     1.007825032070
           H          1.515951493870     0.657889157066    -0.572046218051     1.007825032070
           H          3.138339493870     0.004588157066    -0.533031218051     1.007825032070

  Charge       = 0
  Multiplicity = 1
  Basis Set: 6-31G*
  Basis Set:

    Orbital Energies (a.u.)
    -----------------------

    Doubly Occupied:

       1A    -20.551519     2A    -11.264732     3A    -11.215089
       4A    -11.212543     5A    -11.211925     6A    -11.205866
       7A    -11.195915     8A     -1.358201     9A     -1.093296
      10A     -1.020749    11A     -0.961698    12A     -0.877996
      13A     -0.812879    14A     -0.772779    15A     -0.689589
      16A     -0.660633    17A     -0.634786    18A     -0.614522
      19A     -0.579941    20A     -0.556488    21A     -0.552594
      22A     -0.527881    23A     -0.496414    24A     -0.490382
      25A     -0.483807    26A     -0.449029    27A     -0.446920
      28A     -0.437358    29A     -0.420198

  @DF-RHF Final Energy:  -310.17355710808437

   => Energetics <=

    Nuclear Repulsion Energy =            328.3248900649502389
    One-Electron Energy =               -1071.4053798340771664
    Two-Electron Energy =                 432.9069326610418784
    DFT Exchange-Correlation Energy =       0.0000000000000000
    Empirical Dispersion Energy =           0.0000000000000000
    PCM Polarization Energy =               0.0000000000000000
    EFP Energy =                            0.0000000000000000
    Total Energy =                       -310.1735571080849923

  Mulliken Charges: (a.u.)
   Center  Symbol    Alpha    Beta     Spin     Total
       1     H     0.28106  0.28106  0.00000  0.43788
       2     O     4.37289  4.37289  0.00000 -0.74577
       3     C     2.98537  2.98537  0.00000  0.02925
       4     C     3.17737  3.17737  0.00000 -0.35474
       5     H     0.43416  0.43416  0.00000  0.13167
       6     H     0.43385  0.43385  0.00000  0.13230
       7     C     3.15935  3.15935  0.00000 -0.31869
       8     H     0.41088  0.41088  0.00000  0.17824
       9     H     0.40795  0.40795  0.00000  0.18411
      10     C     3.15483  3.15483  0.00000 -0.30966
      11     H     0.42081  0.42081  0.00000  0.15838
      12     H     0.42065  0.42065  0.00000  0.15870
      13     C     3.16049  3.16049  0.00000 -0.32099
      14     H     0.42158  0.42158  0.00000  0.15685
      15     H     0.41955  0.41955  0.00000  0.16089
      16     C     3.24444  3.24444  0.00000 -0.48889
      17     H     0.41870  0.41870  0.00000  0.16259
      18     H     0.42099  0.42099  0.00000  0.15801
      19     H     0.42462  0.42462  0.00000  0.15076
      20     H     0.40992  0.40992  0.00000  0.18017
      21     H     0.42053  0.42053  0.00000  0.15894

   Total alpha = 29.00000, Total beta = 29.00000, Total charge =  0.00000
