                              Psi4 1.0.54 Driver

  ==> Input File <==

--------------------------------------------------------------------------
set {
	reference rhf
	basis cc-pvtz
}

set_num_threads( 4 )
memory 2 gb

molecule MOL {
0 1

H	 2.793882	 0.318938	 0.769936
C	 1.948180	 -0.217873	 0.320185
C	 0.692262	 0.592428	 0.156232
O	 2.066308	 -1.352035	 0.008166
C	 -0.554654	 -0.292621	 0.086567
H	 0.791858	 1.203694	 -0.731051
H	 0.617379	 1.254358	 1.016534
C	 -1.846385	 0.513195	 -0.016346
H	 -0.473986	 -0.956115	 -0.769708
H	 -0.597929	 -0.929215	 0.966651
C	 -3.089953	 -0.365049	 -0.098564
H	 -1.798267	 1.154820	 -0.891143
H	 -1.925398	 1.173265	 0.842889
H	 -3.055079	 -1.012299	 -0.968245
H	 -3.988403	 0.236438	 -0.170014
H	 -3.183055	 -0.995885	 0.779079

	symmetry c1
}
set optking {
	frozen_dihedral = ("
		4 2 3 6
	")
}

ee,wfn = optimize('scf', return_wfn=True)
oeprop( wfn, 'DIPOLE', 'QUADRUPOLE', 'MULLIKEN_CHARGES')
f=open( 'psi4out.xyz', 'w' )
f.write( "16  " )
f.write( str(ee) + "\n" )
f.write( MOL.save_string_xyz() )
f.close()
--------------------------------------------------------------------------

    Molecular point group: c1
  Charge       = 0
  Multiplicity = 1
  Basis Set: CC-PVTZ
  Basis Set:
  @DF-RHF Final Energy:  -270.11870449703730
    Total Energy =                       -270.1187044970374700
    Molecular point group: c1
  Basis Set: CC-PVTZ
  Basis Set:
  Basis Set: CC-PVTZ
  Basis Set:
  @DF-RHF Final Energy:  -270.11871531618823
    Total Energy =                       -270.1187153161881724
  Basis Set: CC-PVTZ
  Basis Set:
  Basis Set: CC-PVTZ
  Basis Set:
  @DF-RHF Final Energy:  -270.11936722206735
    Total Energy =                       -270.1193672220672397
  Basis Set: CC-PVTZ
  Basis Set:
  Basis Set: CC-PVTZ
  Basis Set:
  @DF-RHF Final Energy:  -270.11950927826854
    Total Energy =                       -270.1195092782685947
  Basis Set: CC-PVTZ
  Basis Set:
  Basis Set: CC-PVTZ
  Basis Set:
  @DF-RHF Final Energy:  -270.11950734550896
    Total Energy =                       -270.1195073455091915
  Basis Set: CC-PVTZ
  Basis Set:
  Basis Set: CC-PVTZ
  Basis Set:
  @DF-RHF Final Energy:  -270.11951404642809
    Total Energy =                       -270.1195140464280939
  Basis Set: CC-PVTZ
  Basis Set:
  Charge       = 0
  Multiplicity = 1
  Basis Set: CC-PVTZ
  Basis Set:

    Orbital Energies (a.u.)
    -----------------------

    Doubly Occupied:

       1A    -20.552533     2A    -11.322797     3A    -11.236004
       4A    -11.221549     5A    -11.220929     6A    -11.210960
       7A     -1.408116     8A     -1.090556     9A     -1.016393
      10A     -0.909153    11A     -0.814671    12A     -0.772865
      13A     -0.679614    14A     -0.655778    15A     -0.632696
      16A     -0.600194    17A     -0.585747    18A     -0.538373
      19A     -0.529832    20A     -0.500100    21A     -0.485156
      22A     -0.478952    23A     -0.473242    24A     -0.412563

  @DF-RHF Final Energy:  -270.11951414809801

   => Energetics <=

    Nuclear Repulsion Energy =            232.0460930214957500
    One-Electron Energy =                -825.6336666533316020
    Two-Electron Energy =                 323.4680594837379317
    DFT Exchange-Correlation Energy =       0.0000000000000000
    Empirical Dispersion Energy =           0.0000000000000000
    PCM Polarization Energy =               0.0000000000000000
    EFP Energy =                            0.0000000000000000
    Total Energy =                       -270.1195141480979487
    Molecular point group: c1
  Basis Set: CC-PVTZ
  Basis Set:

  -Total Gradient:
     Atom            X                  Y                   Z
    ------   -----------------  -----------------  -----------------
       1        0.000013541241    -0.000027411412    -0.000002710505
       2       -0.000941889967    -0.001226336527     0.002542746522
       3        0.001135121747     0.001996051728     0.000422799073
       4        0.000562267417     0.000681180545    -0.001884482375
       5       -0.000003383912    -0.000005784226    -0.000017587164
       6       -0.000763171102    -0.001422590927    -0.001048082497
       7        0.000014311378     0.000005758684    -0.000002813230
       8       -0.000010849956    -0.000007005901    -0.000014276514
       9       -0.000010259325    -0.000001374043     0.000003314676
      10        0.000005933652     0.000006729892    -0.000009099748
      11       -0.000004317143     0.000004777048     0.000009288208
      12       -0.000000691090    -0.000003716412     0.000000713306
      13        0.000002052298    -0.000003481900    -0.000003459101
      14        0.000002549407     0.000006172042     0.000002774578
      15       -0.000000587288    -0.000001809858     0.000003448306
      16       -0.000000627354    -0.000001158735    -0.000002573536

  **** Optimization is complete! (in 7 steps) ****
    Final optimized geometry and variables:
    Molecular point group: c1

    Geometry (in Angstrom), charge = 0, multiplicity = 1:

    H            2.953455772404     0.568233085026     0.640981205692
    C            2.101992249989    -0.002828825891     0.250993502986
    C            0.810886947061     0.766161389568     0.144790167903
    O            2.249937429926    -1.125717397744    -0.088197025329
    C           -0.434638606612    -0.106409759675     0.042041653529
    H            0.907070693289     1.383761907711    -0.747662046252
    H            0.748834588544     1.452834178348     0.983843640967
    C           -1.713953033590     0.710514931829    -0.113984820683
    H           -0.324505750335    -0.783790502641    -0.795982015408
    H           -0.506240822494    -0.730675816013     0.927378395249
    C           -2.963436679418    -0.158253849025    -0.208961716685
    H           -1.638855144469     1.331069328829    -1.003050030773
    H           -1.813557599544     1.393128211559     0.725867627037
    H           -2.909100735339    -0.828488127308    -1.059966968065
    H           -3.854717786150     0.448113039931    -0.320836140440
    H           -3.085631115846    -0.765778677541     0.681335090178

  Mulliken Charges: (a.u.)
   Center  Symbol    Alpha    Beta     Spin     Total
       1     H     0.45245  0.45245  0.00000  0.09509
       2     C     2.92228  2.92228  0.00000  0.15544
       3     C     3.09135  3.09135  0.00000 -0.18271
       4     O     4.16533  4.16533  0.00000 -0.33067
       5     C     3.08411  3.08411  0.00000 -0.16822
       6     H     0.44601  0.44601  0.00000  0.10798
       7     H     0.44718  0.44718  0.00000  0.10565
       8     C     3.08429  3.08429  0.00000 -0.16858
       9     H     0.44223  0.44223  0.00000  0.11553
      10     H     0.44994  0.44994  0.00000  0.10012
      11     C     3.14904  3.14904  0.00000 -0.29808
      12     H     0.45466  0.45466  0.00000  0.09069
      13     H     0.45555  0.45555  0.00000  0.08891
      14     H     0.45327  0.45327  0.00000  0.09347
      15     H     0.44823  0.44823  0.00000  0.10355
      16     H     0.45407  0.45407  0.00000  0.09185

   Total alpha = 24.00000, Total beta = 24.00000, Total charge = -0.00000

*** Psi4 exiting successfully. Buy a developer a beer!
