  ==> Input File <==

--------------------------------------------------------------------------
set {
	reference rhf
	basis cc-pvtz
}

set_num_threads( 4 )
memory 2 gb

molecule MOL {
0 1

H	 -1.787102	 0.989672	 -0.624210
N	 -1.851927	 0.161443	 -0.071573
C	 -0.561396	 -0.500007	 0.035200
H	 -2.522514	 -0.434162	 -0.510779
C	 0.575129	 0.507849	 -0.048832
H	 -0.478089	 -1.200753	 -0.788956
H	 -0.456191	 -1.081816	 0.952176
C	 1.951750	 -0.141983	 0.035101
H	 0.478254	 1.061643	 -0.975981
H	 0.467676	 1.231891	 0.755499
H	 2.101550	 -0.848142	 -0.774949
H	 2.738260	 0.600794	 -0.026526
H	 2.078939	 -0.679792	 0.968824

	symmetry c1
}
set optking {
	frozen_dihedral = ("
		1 2 3 6
	")
}

ee = optimize('scf')
oeprop('DIPOLE', 'QUADRUPOLE', 'MULLIKEN_CHARGES')
f=open( 'psi4out.xyz', 'w' )
f.write( "13  " )
f.write( str(ee) + "\n" )
f.write( MOL.save_string_xyz() )
f.close()
--------------------------------------------------------------------------

    Molecular point group: c1
  Charge       = 0
  Multiplicity = 1
  Basis Set: CC-PVTZ
  Basis Set:
  @DF-RHF Final Energy:  -173.34900033970388
    Total Energy =                       -173.3490003397037640
    Molecular point group: c1
  Basis Set: CC-PVTZ
  Basis Set:
  Basis Set: CC-PVTZ
  Basis Set:
  @DF-RHF Final Energy:  -173.35058600958286
    Total Energy =                       -173.3505860095829973
  Basis Set: CC-PVTZ
  Basis Set:
  Basis Set: CC-PVTZ
  Basis Set:
  @DF-RHF Final Energy:  -173.35077913876640
    Total Energy =                       -173.3507791387665407
  Basis Set: CC-PVTZ
  Basis Set:
  Basis Set: CC-PVTZ
  Basis Set:
  @DF-RHF Final Energy:  -173.35078445893276
    Total Energy =                       -173.3507844589328499
  Basis Set: CC-PVTZ
  Basis Set:
  Charge       = 0
  Multiplicity = 1
  Basis Set: CC-PVTZ
  Basis Set:

    Orbital Energies (a.u.)
    -----------------------

    Doubly Occupied:

       1A    -15.523851     2A    -11.237753     3A    -11.214928
       4A    -11.209136     5A     -1.176438     6A     -1.038112
       7A     -0.899969     8A     -0.805065     9A     -0.651671
      10A     -0.643146    11A     -0.605184    12A     -0.559031
      13A     -0.542156    14A     -0.495495    15A     -0.477726
      16A     -0.471165    17A     -0.379478

  @DF-RHF Final Energy:  -173.35078505617878

   => Energetics <=

    Nuclear Repulsion Energy =            132.0902757750835690
    One-Electron Energy =                -495.0215170731007106
    Two-Electron Energy =                 189.5804562418383625
    DFT Exchange-Correlation Energy =       0.0000000000000000
    Empirical Dispersion Energy =           0.0000000000000000
    PCM Polarization Energy =               0.0000000000000000
    EFP Energy =                            0.0000000000000000
    Total Energy =                       -173.3507850561787791
    Molecular point group: c1
  Basis Set: CC-PVTZ
  Basis Set:

  -Total Gradient:
     Atom            X                  Y                   Z
    ------   -----------------  -----------------  -----------------
       1        0.000797879436     0.001604658067     0.002492790132
       2       -0.001349470794    -0.002607768653    -0.002643955023
       3        0.001654248312     0.003068269963    -0.001518568658
       4       -0.000004732234     0.000005945417    -0.000001815734
       5       -0.000056780083    -0.000053469405    -0.000005112647
       6       -0.001087592171    -0.002015339285     0.001658913939
       7       -0.000002735725    -0.000006527326     0.000014379963
       8        0.000041613760     0.000025710177     0.000016819100
       9        0.000001254694    -0.000008904768     0.000007340466
      10        0.000001419803    -0.000018115884    -0.000014515053
      11       -0.000014376079     0.000010620758    -0.000003593775
      12        0.000024561459    -0.000008202584     0.000003528758
      13       -0.000005290379     0.000003123522    -0.000006211467

  **** Optimization is complete! (in 5 steps) ****
    Final optimized geometry and variables:
    Molecular point group: c1

    Geometry (in Angstrom), charge = 0, multiplicity = 1:

    H           -1.835703515848     0.987898587706    -0.564290606175
    N           -1.858784958360     0.157889806184    -0.012518830972
    C           -0.563510612971    -0.504787314738     0.013724815047
    H           -2.580968784343    -0.433228740456    -0.360386556088
    C            0.574433182653     0.502053866896    -0.034349831715
    H           -0.449759318569    -1.228568844627    -0.793086224300
    H           -0.489480134869    -1.073326189030     0.936417814348
    C            1.948137993702    -0.147240109499     0.087683385584
    H            0.518875126676     1.058299590175    -0.967136212465
    H            0.434436165403     1.221872574008     0.765953526893
    H            2.120954589740    -0.855929256936    -0.715307256869
    H            2.735599479741     0.595927633940     0.046635798725
    H            2.046457167834    -0.681012171363     1.026688227913

  Mulliken Charges: (a.u.)
   Center  Symbol    Alpha    Beta     Spin     Total
       1     H     0.42980  0.42980  0.00000  0.14041
       2     N     3.69375  3.69375  0.00000 -0.38750
       3     C     3.01283  3.01283  0.00000 -0.02567
       4     H     0.42891  0.42891  0.00000  0.14218
       5     C     3.08371  3.08371  0.00000 -0.16743
       6     H     0.46987  0.46987  0.00000  0.06027
       7     H     0.46241  0.46241  0.00000  0.07517
       8     C     3.15188  3.15188  0.00000 -0.30376
       9     H     0.46008  0.46008  0.00000  0.07985
      10     H     0.44898  0.44898  0.00000  0.10205
      11     H     0.45610  0.45610  0.00000  0.08780
      12     H     0.44784  0.44784  0.00000  0.10433
      13     H     0.45384  0.45384  0.00000  0.09232

   Total alpha = 17.00000, Total beta = 17.00000, Total charge = -0.00000
