                              Psi4 1.0.54 Driver

  ==> Input File <==

--------------------------------------------------------------------------
set {
	reference rhf
	basis cc-pvtz
}

set_num_threads( 4 )
memory 2 gb

molecule MOL {
0 1

H	 -2.438932	 -0.600129	 0.785705
O	 -2.313989	 -0.142475	 -0.025864
C	 -0.943808	 -0.065018	 -0.330000
H	 -0.812293	 -0.225641	 -1.398673
C	 -0.231030	 -1.182113	 0.407592
C	 -0.353797	 1.300461	 0.050970
H	 -0.312800	 -0.992012	 1.473041
H	 -0.738841	 -2.119564	 0.220514
C	 1.246176	 -1.268044	 -0.015480
H	 -0.539537	 2.008579	 -0.751815
H	 -0.889989	 1.662858	 0.920677
C	 1.153605	 1.231851	 0.356834
H	 1.823096	 -1.684665	 0.802361
H	 1.352335	 -1.958223	 -0.845114
C	 1.826409	 0.100723	 -0.416008
H	 1.622968	 2.181508	 0.128734
H	 1.301983	 1.066493	 1.419367
H	 2.897299	 0.112407	 -0.249665
H	 1.683458	 0.265621	 -1.480024

	symmetry c1
}
set optking {
	frozen_dihedral = ("
		1 2 3 4
	")
}

ee,wfn = optimize('scf', return_wfn=True)
oeprop( wfn, 'DIPOLE', 'QUADRUPOLE', 'MULLIKEN_CHARGES')
f=open( 'psi4out.xyz', 'w' )
f.write( "19  " )
f.write( str(ee) + "\n" )
f.write( MOL.save_string_xyz() )
f.close()
--------------------------------------------------------------------------

    Molecular point group: c1
  Charge       = 0
  Multiplicity = 1
  Basis Set: CC-PVTZ
  Basis Set:
  @DF-RHF Final Energy:  -309.16025160810045
    Total Energy =                       -309.1602516081003387
    Molecular point group: c1
  Basis Set: CC-PVTZ
  Basis Set:
  Basis Set: CC-PVTZ
  Basis Set:
  @DF-RHF Final Energy:  -309.16144538006267
    Total Energy =                       -309.1614453800627302
  Basis Set: CC-PVTZ
  Basis Set:
  Basis Set: CC-PVTZ
  Basis Set:
  @DF-RHF Final Energy:  -309.16180461123349
    Total Energy =                       -309.1618046112334923
  Basis Set: CC-PVTZ
  Basis Set:
  Basis Set: CC-PVTZ
  Basis Set:
  @DF-RHF Final Energy:  -309.16180971203698
    Total Energy =                       -309.1618097120373818
  Basis Set: CC-PVTZ
  Basis Set:
  Charge       = 0
  Multiplicity = 1
  Basis Set: CC-PVTZ
  Basis Set:

    Orbital Energies (a.u.)
    -----------------------

    Doubly Occupied:

       1A    -20.541270     2A    -11.267236     3A    -11.218934
       4A    -11.217546     5A    -11.215351     6A    -11.214187
       7A    -11.207745     8A     -1.361676     9A     -1.111791
      10A     -1.005598    11A     -0.989944    12A     -0.852179
      13A     -0.836420    14A     -0.750074    15A     -0.674622
      16A     -0.669733    17A     -0.623555    18A     -0.598309
      19A     -0.581247    20A     -0.557514    21A     -0.533013
      22A     -0.521784    23A     -0.501651    24A     -0.493374
      25A     -0.465619    26A     -0.450104    27A     -0.429676
      28A     -0.412277

  @DF-RHF Final Energy:  -309.16181015322746

   => Energetics <=

    Nuclear Repulsion Energy =            331.8245677610008784
    One-Electron Energy =               -1077.3678944438393046
    Two-Electron Energy =                 436.3815165296108489
    DFT Exchange-Correlation Energy =       0.0000000000000000
    Empirical Dispersion Energy =           0.0000000000000000
    PCM Polarization Energy =               0.0000000000000000
    EFP Energy =                            0.0000000000000000
    Total Energy =                       -309.1618101532275205
    Molecular point group: c1
  Basis Set: CC-PVTZ
  Basis Set:

  -Total Gradient:
     Atom            X                  Y                   Z
    ------   -----------------  -----------------  -----------------
       1       -0.000144187091    -0.001399000919    -0.000836212120
       2        0.000173304559     0.001427976318     0.001073602367
       3       -0.000084532196     0.001318541495    -0.000421510653
       4        0.000045171360    -0.001364813286     0.000212972735
       5       -0.000000223328    -0.000001339818    -0.000027230288
       6        0.000037212214    -0.000006782089     0.000008783459
       7        0.000000556903    -0.000004162702    -0.000015226544
       8        0.000000543936    -0.000004650916     0.000008654355
       9       -0.000019796167    -0.000016826761     0.000051140794
      10        0.000013035570     0.000017710504    -0.000008676926
      11        0.000005434468    -0.000005682967    -0.000006923427
      12       -0.000013131899     0.000025510931    -0.000023891988
      13        0.000019486774    -0.000023553166    -0.000002143295
      14       -0.000010946712     0.000002977543    -0.000002652484
      15       -0.000008171719     0.000023764534    -0.000020567102
      16       -0.000004780316     0.000014853128     0.000014517476
      17       -0.000004302490     0.000001181695     0.000003810844
      18       -0.000009364588    -0.000009845091     0.000001701763
      19        0.000004690719     0.000004141571    -0.000010148966

  **** Optimization is complete! (in 5 steps) ****
    Final optimized geometry and variables:
    Molecular point group: c1

    Geometry (in Angstrom), charge = 0, multiplicity = 1:

    H           -2.543490976752    -0.476602915666     0.704911685317
    O           -2.338131273744    -0.024468382396    -0.092462649946
    C           -0.949070504460    -0.039153827659    -0.318208618870
    H           -0.830978879734    -0.203210404569    -1.383676312726
    C           -0.250879323783    -1.180369304725     0.405894406857
    C           -0.323908070627     1.307936597327     0.066870287090
    H           -0.313079102719    -1.001365493360     1.477578633531
    H           -0.772895255841    -2.110783722038     0.212154038736
    C            1.222637237624    -1.294714399994    -0.025610480211
    H           -0.513093365365     2.022162688282    -0.726536618657
    H           -0.842786012765     1.678655370039     0.943580584205
    C            1.185591545109     1.205167494525     0.351598913977
    H            1.797572274864    -1.719927712570     0.789199025322
    H            1.307497902151    -1.989207344545    -0.853721023406
    C            1.822961005622     0.062442683165    -0.434056982667
    H            1.672946448047     2.144635210361     0.119418471600
    H            1.348762052858     1.033237791978     1.411533462321
    H            2.896388487268     0.049700015833    -0.285414667119
    H            1.665259484366     0.231038852297    -1.495096936095

  Mulliken Charges: (a.u.)
   Center  Symbol    Alpha    Beta     Spin     Total
       1     H     0.39279  0.39279  0.00000  0.21443
       2     O     4.21029  4.21029  0.00000 -0.42059
       3     C     2.92962  2.92962  0.00000  0.14077
       4     H     0.44850  0.44850  0.00000  0.10300
       5     C     3.11559  3.11559  0.00000 -0.23118
       6     C     3.10650  3.10650  0.00000 -0.21300
       7     H     0.45674  0.45674  0.00000  0.08652
       8     H     0.44058  0.44058  0.00000  0.11884
       9     C     3.11271  3.11271  0.00000 -0.22543
      10     H     0.44747  0.44747  0.00000  0.10505
      11     H     0.45046  0.45046  0.00000  0.09907
      12     C     3.10150  3.10150  0.00000 -0.20300
      13     H     0.44737  0.44737  0.00000  0.10527
      14     H     0.44562  0.44562  0.00000  0.10876
      15     C     3.10201  3.10201  0.00000 -0.20402
      16     H     0.44192  0.44192  0.00000  0.11616
      17     H     0.45472  0.45472  0.00000  0.09055
      18     H     0.44273  0.44273  0.00000  0.11455
      19     H     0.45287  0.45287  0.00000  0.09426

   Total alpha = 28.00000, Total beta = 28.00000, Total charge =  0.00000

*** Psi4 exiting successfully. Buy a developer a beer!
