                              Psi4 1.0.54 Driver

  ==> Input File <==

--------------------------------------------------------------------------
set {
	reference rhf
	basis cc-pvtz
}

set_num_threads( 4 )
memory 2 gb

molecule MOL {
0 1

H	 1.563004	 0.772118	 -3.121514
O	 2.096392	 0.932625	 -2.363585
C	 1.410119	 0.726112	 -1.225621
C	 2.080905	 0.927964	 -0.027948
C	 0.090074	 0.328884	 -1.218485
H	 3.107065	 1.236756	 -0.056205
C	 1.429524	 0.731951	 1.168143
H	 -0.451551	 0.165899	 -2.126987
C	 -0.532034	 0.141680	 0.000000
H	 1.955944	 0.890361	 2.088761
C	 0.103742	 0.332997	 1.201028
N	 -1.937041	 -0.281114	 0.000000
H	 -0.414653	 0.177002	 2.121709
O	 -2.159542	 -1.446261	 0.000000
O	 -2.764978	 0.565773	 0.000000

	symmetry c1
}
set optking {
	frozen_dihedral = ("
		11 9 12 14
	")
}

ee,wfn = optimize('scf', return_wfn=True)
oeprop( wfn, 'DIPOLE', 'QUADRUPOLE', 'MULLIKEN_CHARGES')
f=open( 'psi4out.xyz', 'w' )
f.write( "15  " )
f.write( str(ee) + "\n" )
f.write( MOL.save_string_xyz() )
f.close()
--------------------------------------------------------------------------

    Molecular point group: c1
  Charge       = 0
  Multiplicity = 1
  Basis Set: CC-PVTZ
  Basis Set:
  @DF-RHF Final Energy:  -509.20929071569111
    Total Energy =                       -509.2092907156909405
    Molecular point group: c1
  Basis Set: CC-PVTZ
  Basis Set:
  Basis Set: CC-PVTZ
  Basis Set:
  @DF-RHF Final Energy:  -509.20935130547900
    Total Energy =                       -509.2093513054790037
  Basis Set: CC-PVTZ
  Basis Set:
  Basis Set: CC-PVTZ
  Basis Set:
  @DF-RHF Final Energy:  -509.20921501786995
    Total Energy =                       -509.2092150178696102
  Basis Set: CC-PVTZ
  Basis Set:
  Basis Set: CC-PVTZ
  Basis Set:
  @DF-RHF Final Energy:  -509.20949139425778
    Total Energy =                       -509.2094913942573839
  Basis Set: CC-PVTZ
  Basis Set:
  Basis Set: CC-PVTZ
  Basis Set:
  @DF-RHF Final Energy:  -509.20948676295023
    Total Energy =                       -509.2094867629505188
  Basis Set: CC-PVTZ
  Basis Set:
  Basis Set: CC-PVTZ
  Basis Set:
  @DF-RHF Final Energy:  -509.20952717985733
    Total Energy =                       -509.2095271798571048
  Basis Set: CC-PVTZ
  Basis Set:
  Charge       = 0
  Multiplicity = 1
  Basis Set: CC-PVTZ
  Basis Set:

    Orbital Energies (a.u.)
    -----------------------

    Doubly Occupied:

       1A    -20.610733     2A    -20.601243     3A    -20.601187
       4A    -15.851109     5A    -11.330948     6A    -11.315214
       7A    -11.265345     8A    -11.263941     9A    -11.257588
      10A    -11.249734    11A     -1.648825    12A     -1.443752
      13A     -1.432114    14A     -1.204648    15A     -1.096593
      16A     -1.050041    17A     -0.966802    18A     -0.887372
      19A     -0.834247    20A     -0.794029    21A     -0.769025
      22A     -0.741354    23A     -0.724923    24A     -0.712757
      25A     -0.672325    26A     -0.636097    27A     -0.624058
      28A     -0.596188    29A     -0.565911    30A     -0.550411
      31A     -0.538977    32A     -0.495844    33A     -0.486966
      34A     -0.462146    35A     -0.376380    36A     -0.346314

  @DF-RHF Final Energy:  -509.20952732090916

   => Energetics <=

    Nuclear Repulsion Energy =            503.7681019856162266
    One-Electron Energy =               -1693.9449755919522431
    Two-Electron Energy =                 680.9673462854264017
    DFT Exchange-Correlation Energy =       0.0000000000000000
    Empirical Dispersion Energy =           0.0000000000000000
    PCM Polarization Energy =               0.0000000000000000
    EFP Energy =                            0.0000000000000000
    Total Energy =                       -509.2095273209095012
    Molecular point group: c1
  Basis Set: CC-PVTZ
  Basis Set:

  -Total Gradient:
     Atom            X                  Y                   Z
    ------   -----------------  -----------------  -----------------
       1       -0.000002118665    -0.000001793993     0.000000994564
       2        0.000017974151    -0.000002508164    -0.000010981226
       3       -0.000054454535     0.000020824804     0.000010218224
       4        0.000007931897    -0.000020070262     0.000020237807
       5        0.000032157806    -0.000000347633    -0.000023615186
       6       -0.000000508824     0.000002207124    -0.000002273079
       7        0.000019054197     0.000010115280    -0.000011168256
       8       -0.000000405732    -0.000000134572     0.000005235582
       9       -0.000018584996    -0.000041943221     0.000023091629
      10       -0.000002580829     0.000001043732    -0.000000244837
      11       -0.000021717202     0.000010330031    -0.000013389265
      12        0.000032883706     0.000024841937     0.000016815154
      13        0.000001638705     0.000000936395    -0.000002684068
      14       -0.000003337668    -0.000003602440    -0.000015104758
      15       -0.000007932015     0.000000100977     0.000002867714

  **** Optimization is complete! (in 7 steps) ****
    Final optimized geometry and variables:
    Molecular point group: c1

    Geometry (in Angstrom), charge = 0, multiplicity = 1:

    H            1.632830627967     0.525214591901    -2.829703808948
    O            2.159175106136     0.701869094224    -2.070537292532
    C            1.478969351425     0.482919385077    -0.933904035271
    C            2.142284480684     0.706436753843     0.263870247062
    C            0.166703575871     0.050791815056    -0.928056878353
    H            3.159829711414     1.041390017941     0.236577454590
    C            1.492369751304     0.497706164133     1.458054883110
    H           -0.366920530392    -0.128783092489    -1.841664581784
    C           -0.443673392541    -0.144994985445     0.289468793205
    H            2.012694659340     0.673120662425     2.379315966640
    C            0.176102210242     0.064399983677     1.491204718514
    N           -1.837016321645    -0.603550988153     0.285938680148
    H           -0.338966517355    -0.101166514599     2.415471546138
    O           -2.018391280777    -1.773311246187     0.289170759466
    O           -2.677614666426     0.229859512250     0.277483119389

  Mulliken Charges: (a.u.)
   Center  Symbol    Alpha    Beta     Spin     Total
       1     H     0.38450  0.38450  0.00000  0.23100
       2     O     4.16726  4.16726  0.00000 -0.33451
       3     C     2.84084  2.84084  0.00000  0.31832
       4     C     3.11035  3.11035  0.00000 -0.22070
       5     C     3.13712  3.13712  0.00000 -0.27424
       6     H     0.41439  0.41439  0.00000  0.17121
       7     C     3.04795  3.04795  0.00000 -0.09589
       8     H     0.42428  0.42428  0.00000  0.15145
       9     C     2.91905  2.91905  0.00000  0.16190
      10     H     0.41629  0.41629  0.00000  0.16742
      11     C     3.10511  3.10511  0.00000 -0.21022
      12     N     3.29312  3.29312  0.00000  0.41375
      13     H     0.41560  0.41560  0.00000  0.16880
      14     O     4.16207  4.16207  0.00000 -0.32414
      15     O     4.16208  4.16208  0.00000 -0.32415

   Total alpha = 36.00000, Total beta = 36.00000, Total charge = -0.00000

*** Psi4 exiting successfully. Buy a developer a beer!
