  ==> Input File <==

--------------------------------------------------------------------------
set {
	reference rhf
	basis 6-31G*
}

set_num_threads( 4 )
memory 2 gb

molecule MOL {
0 1

H	 -2.589663	 -0.501888	 -0.192131
N	 -1.852125	 0.165761	 -0.074816
C	 -0.563778	 -0.502042	 0.037919
H	 -2.056267	 0.678861	 0.761731
C	 0.575259	 0.508231	 -0.048326
H	 -0.482092	 -1.204004	 -0.786564
H	 -0.460411	 -1.085169	 0.956626
C	 1.954651	 -0.143624	 0.035137
H	 0.475158	 1.060484	 -0.977307
H	 0.469181	 1.234488	 0.755973
H	 2.103292	 -0.853109	 -0.774172
H	 2.742821	 0.599562	 -0.030094
H	 2.083613	 -0.679371	 0.971560

	symmetry c1
}
set optking {
	frozen_dihedral = ("
		1 2 3 6
	")
}

ee = optimize('scf')
oeprop('DIPOLE', 'QUADRUPOLE', 'MULLIKEN_CHARGES')
f=open( 'psi4out.xyz', 'w' )
f.write( "13  " )
f.write( str(ee) + "\n" )
f.write( MOL.save_string_xyz() )
f.close()
--------------------------------------------------------------------------

    Molecular point group: c1
  Charge       = 0
  Multiplicity = 1
  Basis Set: 6-31G*
  Basis Set:
  @DF-RHF Final Energy:  -173.28230905807621
    Total Energy =                       -173.2823090580761800
    Molecular point group: c1
  Basis Set: 6-31G*
  Basis Set:
  Basis Set: 6-31G*
  Basis Set:
  @DF-RHF Final Energy:  -173.28232231356364
    Total Energy =                       -173.2823223135636113
  Basis Set: 6-31G*
  Basis Set:
  Basis Set: 6-31G*
  Basis Set:
  @DF-RHF Final Energy:  -173.28232550875546
    Total Energy =                       -173.2823255087554912
  Basis Set: 6-31G*
  Basis Set:
  Charge       = 0
  Multiplicity = 1
  Basis Set: 6-31G*
  Basis Set:

    Orbital Energies (a.u.)
    -----------------------

    Doubly Occupied:

       1A    -15.532569     2A    -11.240182     3A    -11.210865
       4A    -11.208541     5A     -1.176485     6A     -1.034521
       7A     -0.898388     8A     -0.798835     9A     -0.664691
      10A     -0.626383    11A     -0.602667    12A     -0.567135
      13A     -0.528594    14A     -0.491019    15A     -0.478005
      16A     -0.468003    17A     -0.380563

  @DF-RHF Final Energy:  -173.28232600351254

   => Energetics <=

    Nuclear Repulsion Energy =            131.7373803480646757
    One-Electron Energy =                -494.2245188915192671
    Two-Electron Energy =                 189.2048125399419973
    DFT Exchange-Correlation Energy =       0.0000000000000000
    Empirical Dispersion Energy =           0.0000000000000000
    PCM Polarization Energy =               0.0000000000000000
    EFP Energy =                            0.0000000000000000
    Total Energy =                       -173.2823260035125941
    Molecular point group: c1
  Basis Set: 6-31G*
  Basis Set:

  -Total Gradient:
     Atom            X                  Y                   Z
    ------   -----------------  -----------------  -----------------
       1        0.000134537377     0.000051215169    -0.000962592038
       2       -0.000258296942    -0.000189747014     0.001303524748
       3        0.000522031084     0.000781819677    -0.000781009718
       4        0.000031901979    -0.000011196225    -0.000023979654
       5       -0.000016564376     0.000005842680    -0.000026087207
       6       -0.000384771160    -0.000600329331     0.000499240040
       7        0.000002692987    -0.000020334393    -0.000007809342
       8       -0.000017956362    -0.000006779865     0.000019152102
       9       -0.000003267164     0.000000424437    -0.000008377608
      10       -0.000003145149    -0.000014623358    -0.000009450232
      11       -0.000000645146     0.000006582432    -0.000004300199
      12       -0.000003665389     0.000004439728     0.000005396705
      13       -0.000002851739    -0.000007313934    -0.000003707595

  **** Optimization is complete! (in 4 steps) ****
    Final optimized geometry and variables:
    Molecular point group: c1

    Geometry (in Angstrom), charge = 0, multiplicity = 1:

    H           -2.591537695350    -0.501199702102    -0.180887835567
    N           -1.852581063891     0.165079958443    -0.068939247007
    C           -0.562446734308    -0.500706315866     0.033960832899
    H           -2.050123834657     0.689815927007     0.761393873728
    C            0.576054064990     0.510014250029    -0.050016652867
    H           -0.485778207315    -1.202371298665    -0.791184892817
    H           -0.456148388139    -1.089215547234     0.948985261845
    C            1.955609544042    -0.140760726674     0.038326815158
    H            0.477699154654     1.061812818647    -0.979409741001
    H            0.465961377176     1.236594050222     0.753191888905
    H            2.107812292360    -0.850204477396    -0.770448188602
    H            2.743592178850     0.602876708826    -0.024070033217
    H            2.081805356242    -0.676601363776     0.975118787537

  Mulliken Charges: (a.u.)
   Center  Symbol    Alpha    Beta     Spin     Total
       1     H     0.33196  0.33196  0.00000  0.33609
       2     N     3.92257  3.92257  0.00000 -0.84515
       3     C     3.06043  3.06043  0.00000 -0.12086
       4     H     0.33467  0.33467  0.00000  0.33065
       5     C     3.14876  3.14876  0.00000 -0.29752
       6     H     0.42148  0.42148  0.00000  0.15705
       7     H     0.43484  0.43484  0.00000  0.13032
       8     C     3.24420  3.24420  0.00000 -0.48840
       9     H     0.41293  0.41293  0.00000  0.17413
      10     H     0.42655  0.42655  0.00000  0.14690
      11     H     0.42138  0.42138  0.00000  0.15724
      12     H     0.41772  0.41772  0.00000  0.16455
      13     H     0.42250  0.42250  0.00000  0.15500

   Total alpha = 17.00000, Total beta = 17.00000, Total charge = -0.00000
