                              Psi4 1.0.54 Driver

  ==> Input File <==

--------------------------------------------------------------------------
set {
	reference rhf
	basis cc-pvtz
}

set_num_threads( 4 )
memory 2 gb

molecule MOL {
0 1

H	 2.614283	 2.028610	 0.296620
O	 3.358864	 1.662087	 -0.142800
C	 3.565468	 0.338079	 0.273842
C	 2.533667	 -0.637565	 -0.272227
H	 4.548038	 0.064914	 -0.086598
H	 3.593945	 0.282242	 1.360360
C	 1.114816	 -0.402372	 0.240993
H	 2.544552	 -0.580764	 -1.356576
H	 2.850574	 -1.642962	 -0.005497
C	 0.830023	 -1.138109	 1.549589
H	 0.403206	 -0.719453	 -0.514040
H	 0.958109	 0.664591	 0.390385
C	 -0.553514	 -0.879135	 2.148764
H	 0.959324	 -2.206403	 1.393844
H	 1.580149	 -0.846641	 2.279539
C	 -1.723789	 -1.428139	 1.334643
H	 -0.584168	 -1.322949	 3.140035
H	 -0.686857	 0.190609	 2.293752
C	 -3.073047	 -1.232517	 2.021407
H	 -1.566245	 -2.488951	 1.152089
H	 -1.755680	 -0.952961	 0.358840
C	 -4.244044	 -1.776169	 1.209557
H	 -3.054044	 -1.716614	 2.993964
H	 -3.228204	 -0.173929	 2.212143
H	 -4.134625	 -2.840485	 1.029284
H	 -5.184846	 -1.623744	 1.726050
H	 -4.313579	 -1.284658	 0.244708

	symmetry c1
}
set optking {
	frozen_dihedral = ("
		10 7 4 8
	")
}

ee,wfn = optimize('scf', return_wfn=True)
oeprop( wfn, 'DIPOLE', 'QUADRUPOLE', 'MULLIKEN_CHARGES')
f=open( 'psi4out.xyz', 'w' )
f.write( "27  " )
f.write( str(ee) + "\n" )
f.write( MOL.save_string_xyz() )
f.close()
--------------------------------------------------------------------------

    Molecular point group: c1
  Charge       = 0
  Multiplicity = 1
  Basis Set: CC-PVTZ
  Basis Set:
  @DF-RHF Final Energy:  -388.42429946486743
    Total Energy =                       -388.4242994648668628
    Molecular point group: c1
  Basis Set: CC-PVTZ
  Basis Set:
  Basis Set: CC-PVTZ
  Basis Set:
  @DF-RHF Final Energy:  -388.42460515451012
    Total Energy =                       -388.4246051545101182
  Basis Set: CC-PVTZ
  Basis Set:
  Basis Set: CC-PVTZ
  Basis Set:
  @DF-RHF Final Energy:  -388.42470863640273
    Total Energy =                       -388.4247086364028974
  Basis Set: CC-PVTZ
  Basis Set:
  Basis Set: CC-PVTZ
  Basis Set:
  @DF-RHF Final Energy:  -388.42471361877767
    Total Energy =                       -388.4247136187777869
  Basis Set: CC-PVTZ
  Basis Set:
  Charge       = 0
  Multiplicity = 1
  Basis Set: CC-PVTZ
  Basis Set:

    Orbital Energies (a.u.)
    -----------------------

    Doubly Occupied:

       1A    -20.544806     2A    -11.264862     3A    -11.217588
       4A    -11.216099     5A    -11.214478     6A    -11.214343
       7A    -11.213440     8A    -11.212386     9A    -11.207572
      10A     -1.362868    11A     -1.096811    12A     -1.062209
      13A     -1.011825    14A     -0.948366    15A     -0.892165
      16A     -0.825317    17A     -0.800571    18A     -0.776079
      19A     -0.698954    20A     -0.647970    21A     -0.639387
      22A     -0.611038    23A     -0.608463    24A     -0.586511
      25A     -0.574940    26A     -0.561893    27A     -0.542612
      28A     -0.526205    29A     -0.512575    30A     -0.495912
      31A     -0.488156    32A     -0.473405    33A     -0.469037
      34A     -0.461488    35A     -0.449626    36A     -0.440591
      37A     -0.428109

  @DF-RHF Final Energy:  -388.42471359495704

   => Energetics <=

    Nuclear Repulsion Energy =            461.0861269868043451
    One-Electron Energy =               -1440.4243662406388466
    Two-Electron Energy =                 590.9135256588774610
    DFT Exchange-Correlation Energy =       0.0000000000000000
    Empirical Dispersion Energy =           0.0000000000000000
    PCM Polarization Energy =               0.0000000000000000
    EFP Energy =                            0.0000000000000000
    Total Energy =                       -388.4247135949569838
    Molecular point group: c1
  Basis Set: CC-PVTZ
  Basis Set:

  -Total Gradient:
     Atom            X                  Y                   Z
    ------   -----------------  -----------------  -----------------
       1        0.000057859337    -0.000068914491     0.000034663785
       2        0.000082430927     0.000018693999    -0.000166919850
       3       -0.000249701704     0.000042263064     0.000226609994
       4        0.000268401812     0.002754807460    -0.000263615698
       5       -0.000038685666     0.000096732398    -0.000041542082
       6        0.000070018891    -0.000061398360     0.000035008568
       7        0.000780711972     0.001549819903     0.001428838566
       8       -0.000400937215    -0.002706020452    -0.000194283246
       9       -0.000044883107    -0.000043079962     0.000027551095
      10       -0.000555928811    -0.001526495526    -0.001050566568
      11       -0.000101359838    -0.000031557973    -0.000021185912
      12        0.000075325548    -0.000007368782    -0.000003890089
      13       -0.000012883396    -0.000048177132     0.000042848379
      14        0.000040421436     0.000016102143     0.000007780573
      15       -0.000007857943     0.000036459777    -0.000026431406
      16       -0.000004426854    -0.000035256438     0.000000379742
      17       -0.000023159187    -0.000017214531     0.000003668440
      18        0.000022951139    -0.000012733906     0.000017972940
      19       -0.000001305365     0.000017016060    -0.000010808312
      20       -0.000000226644    -0.000004978609     0.000007535806
      21        0.000030126605     0.000009195348    -0.000040942677
      22        0.000007731502     0.000016722521    -0.000013061242
      23        0.000009859937    -0.000004791517    -0.000009524030
      24       -0.000006920650     0.000008223682     0.000010772366
      25        0.000002686595     0.000000451636     0.000003546406
      26        0.000005218336     0.000001722231     0.000002165414
      27       -0.000005467649    -0.000000222541    -0.000006570963

  **** Optimization is complete! (in 5 steps) ****
    Final optimized geometry and variables:
    Molecular point group: c1

    Geometry (in Angstrom), charge = 0, multiplicity = 1:

    H            2.335114544696     2.635144608181    -0.744839619834
    O            3.102725993686     2.264737339626    -1.138441289208
    C            3.306635994721     0.956447551662    -0.673851358366
    C            2.290834890824    -0.039979539147    -1.213663050064
    H            4.296195907870     0.677870437584    -1.009823461374
    H            3.320892171234     0.937977792659     0.413542965768
    C            0.861832978067     0.133990204708    -0.680910823365
    H            2.293790163629     0.016372686868    -2.296463047123
    H            2.638038394762    -1.040359118311    -0.966095685641
    C            0.609346101289    -0.609059411281     0.631705900616
    H            0.166476491198    -0.223872940333    -1.430805980997
    H            0.632252337593     1.189454854872    -0.552780916067
    C           -0.759971343060    -0.355208642221     1.264753380156
    H            0.733272708785    -1.675161811958     0.458942402800
    H            1.373843875037    -0.331245621602     1.352099626361
    C           -1.950767575730    -0.858379149750     0.450835979052
    H           -0.779938084777    -0.833916981074     2.239929275736
    H           -0.876964934591     0.710232656838     1.450274658938
    C           -3.285642554730    -0.670803740019     1.167089131028
    H           -1.810716819632    -1.913777303171     0.226901665437
    H           -1.991497606935    -0.346823931525    -0.505864562493
    C           -4.477370495655    -1.165217448014     0.354060521119
    H           -3.258366496042    -1.192858975012     2.119604181999
    H           -3.421981407095     0.381579410185     1.401376180244
    H           -4.387152827094    -2.223262022818     0.131293467346
    H           -5.407432149047    -1.019124606404     0.891310917337
    H           -4.554373166768    -0.635742480611    -0.589824279516

  Mulliken Charges: (a.u.)
   Center  Symbol    Alpha    Beta     Spin     Total
       1     H     0.39279  0.39279  0.00000  0.21443
       2     O     4.20537  4.20537  0.00000 -0.41074
       3     C     2.97673  2.97673  0.00000  0.04655
       4     C     3.09657  3.09657  0.00000 -0.19314
       5     H     0.44805  0.44805  0.00000  0.10390
       6     H     0.47019  0.47019  0.00000  0.05962
       7     C     3.10942  3.10942  0.00000 -0.21885
       8     H     0.44442  0.44442  0.00000  0.11115
       9     H     0.45731  0.45731  0.00000  0.08538
      10     C     3.10064  3.10064  0.00000 -0.20128
      11     H     0.44161  0.44161  0.00000  0.11677
      12     H     0.46093  0.46093  0.00000  0.07813
      13     C     3.09730  3.09730  0.00000 -0.19460
      14     H     0.45163  0.45163  0.00000  0.09675
      15     H     0.44736  0.44736  0.00000  0.10529
      16     C     3.08843  3.08843  0.00000 -0.17687
      17     H     0.44791  0.44791  0.00000  0.10417
      18     H     0.45440  0.45440  0.00000  0.09119
      19     C     3.08423  3.08423  0.00000 -0.16846
      20     H     0.45463  0.45463  0.00000  0.09075
      21     H     0.45307  0.45307  0.00000  0.09386
      22     C     3.14971  3.14971  0.00000 -0.29942
      23     H     0.45391  0.45391  0.00000  0.09217
      24     H     0.45470  0.45470  0.00000  0.09060
      25     H     0.45512  0.45512  0.00000  0.08977
      26     H     0.44827  0.44827  0.00000  0.10346
      27     H     0.45530  0.45530  0.00000  0.08940

   Total alpha = 37.00000, Total beta = 37.00000, Total charge = -0.00000

*** Psi4 exiting successfully. Buy a developer a beer!
