  ==> Input File <==

--------------------------------------------------------------------------
set {
	reference rhf
	basis 6-31G*
}

set_num_threads( 1 )
memory 2 gb

molecule MOL {
0 1

H	 -3.135461	 -1.215070	 0.001379
O	 -2.310168	 -0.871793	 -0.309793
C	 -2.026376	 0.340750	 0.341611
C	 -0.673256	 0.843270	 -0.132153
H	 -2.792215	 1.080697	 0.115987
H	 -2.013526	 0.200402	 1.421792
C	 0.486613	 -0.083066	 0.235839
H	 -0.715586	 0.970948	 -1.210718
H	 -0.508072	 1.829858	 0.297090
C	 1.840266	 0.629275	 0.239011
H	 0.513260	 -0.913884	 -0.461688
H	 0.304655	 -0.511235	 1.220929
C	 2.998627	 -0.295065	 0.612464
H	 2.023643	 1.056707	 -0.744550
H	 1.808800	 1.466257	 0.933932
H	 3.077888	 -1.123958	 -0.085063
H	 3.945509	 0.236248	 0.604301
H	 2.862332	 -0.712692	 1.606206

	symmetry c1
}
set optking {
	frozen_dihedral = ("
		14 10 7 11,
		2 3 4 8,
		1 2 3 4
	")
}

ee = energy('scf')
oeprop('DIPOLE', 'QUADRUPOLE', 'MULLIKEN_CHARGES')
f=open( 'psi4out.xyz', 'w' )
f.write( "18  " )
f.write( str(ee) + "\n" )
f.write( MOL.save_string_xyz() )
f.close()
--------------------------------------------------------------------------

    Molecular point group: c1

    Geometry (in Angstrom), charge = 0, multiplicity = 1:

       Center              X                  Y                   Z               Mass
    ------------   -----------------  -----------------  -----------------  -----------------
           H         -3.135152278702    -1.279328918115    -0.161351056929     1.007825032070
           O         -2.309859278702    -0.936051918115    -0.472523056929    15.994914619560
           C         -2.026067278702     0.276491081885     0.178880943071    12.000000000000
           C         -0.672947278702     0.779011081885    -0.294883056929    12.000000000000
           H         -2.791906278702     1.016438081885    -0.046743056929     1.007825032070
           H         -2.013217278702     0.136143081885     1.259061943071     1.007825032070
           C          0.486921721298    -0.147324918115     0.073108943071    12.000000000000
           H         -0.715277278702     0.906689081885    -1.373448056929     1.007825032070
           H         -0.507763278702     1.765599081885     0.134359943071     1.007825032070
           C          1.840574721298     0.565016081885     0.076280943071    12.000000000000
           H          0.513568721298    -0.978142918115    -0.624418056929     1.007825032070
           H          0.304963721298    -0.575493918115     1.058198943071     1.007825032070
           C          2.998935721298    -0.359323918115     0.449733943071    12.000000000000
           H          2.023951721298     0.992448081885    -0.907280056929     1.007825032070
           H          1.809108721298     1.401998081885     0.771201943071     1.007825032070
           H          3.078196721298    -1.188216918115    -0.247793056929     1.007825032070
           H          3.945817721298     0.171989081885     0.441570943071     1.007825032070
           H          2.862640721298    -0.776950918115     1.443475943071     1.007825032070

  Charge       = 0
  Multiplicity = 1
  Basis Set: 6-31G*
  Basis Set:

    Orbital Energies (a.u.)
    -----------------------

    Doubly Occupied:

       1A    -20.552726     2A    -11.267900     3A    -11.211642
       4A    -11.211485     5A    -11.206811     6A    -11.204960
       7A     -1.359390     8A     -1.075299     9A     -1.008819
      10A     -0.913169    11A     -0.818501    12A     -0.783888
      13A     -0.703350    14A     -0.647029    15A     -0.622051
      16A     -0.577277    17A     -0.572646    18A     -0.557909
      19A     -0.522752    20A     -0.504071    21A     -0.485376
      22A     -0.467276    23A     -0.457768    24A     -0.448994
      25A     -0.428744

  @DF-RHF Final Energy:  -271.17842340322841

   => Energetics <=

    Nuclear Repulsion Energy =            248.9049536211249176
    One-Electron Energy =                -860.9470810960149265
    Two-Electron Energy =                 340.8637040716612887
    DFT Exchange-Correlation Energy =       0.0000000000000000
    Empirical Dispersion Energy =           0.0000000000000000
    PCM Polarization Energy =               0.0000000000000000
    EFP Energy =                            0.0000000000000000
    Total Energy =                       -271.1784234032286918

  Mulliken Charges: (a.u.)
   Center  Symbol    Alpha    Beta     Spin     Total
       1     H     0.28072  0.28072  0.00000  0.43856
       2     O     4.36972  4.36972  0.00000 -0.73944
       3     C     2.99809  2.99809  0.00000  0.00383
       4     C     3.16090  3.16090  0.00000 -0.32180
       5     H     0.42974  0.42974  0.00000  0.14052
       6     H     0.43253  0.43253  0.00000  0.13494
       7     C     3.14928  3.14928  0.00000 -0.29857
       8     H     0.41396  0.41396  0.00000  0.17208
       9     H     0.42381  0.42381  0.00000  0.15237
      10     C     3.15311  3.15311  0.00000 -0.30622
      11     H     0.41163  0.41163  0.00000  0.17675
      12     H     0.42557  0.42557  0.00000  0.14885
      13     C     3.23897  3.23897  0.00000 -0.47795
      14     H     0.42315  0.42315  0.00000  0.15371
      15     H     0.42508  0.42508  0.00000  0.14984
      16     H     0.42099  0.42099  0.00000  0.15801
      17     H     0.42040  0.42040  0.00000  0.15920
      18     H     0.42233  0.42233  0.00000  0.15533

   Total alpha = 25.00000, Total beta = 25.00000, Total charge =  0.00000
