  ==> Input File <==

--------------------------------------------------------------------------
set {
	reference rhf
	basis cc-pvtz
}

set_num_threads( 4 )
memory 2 gb

molecule MOL {
0 1

H	 -3.162190	 0.493205	 -0.000107
C	 -2.363908	 -0.234727	 0.000005
O	 -1.158738	 0.454634	 -0.000087
H	 -2.464314	 -0.863616	 -0.882153
H	 -2.464327	 -0.863359	 0.882345
C	 -0.109378	 -0.218411	 0.621339
C	 1.140858	 0.635241	 0.553665
H	 0.062918	 -1.176620	 0.130637
H	 -0.364017	 -0.430124	 1.660078
C	 2.339899	 -0.034686	 1.215369
H	 1.358641	 0.846938	 -0.487335
H	 0.935111	 1.587467	 1.029991
H	 2.578480	 -0.979183	 0.737779
H	 3.218116	 0.596031	 1.152513
H	 2.152239	 -0.233431	 2.265298

	symmetry c1
}
set optking {
	frozen_dihedral = ("
		6 3 2 4
	")
}

ee = optimize('scf')
oeprop('DIPOLE', 'QUADRUPOLE', 'MULLIKEN_CHARGES')
f=open( 'psi4out.xyz', 'w' )
f.write( "15  " )
f.write( str(ee) + "\n" )
f.write( MOL.save_string_xyz() )
f.close()
--------------------------------------------------------------------------

    Molecular point group: c1
  Charge       = 0
  Multiplicity = 1
  Basis Set: CC-PVTZ
  Basis Set:
  @DF-RHF Final Energy:  -232.22638060325676
    Total Energy =                       -232.2263806032567572
    Molecular point group: c1
  Basis Set: CC-PVTZ
  Basis Set:
  Basis Set: CC-PVTZ
  Basis Set:
  @DF-RHF Final Energy:  -232.22647376310718
    Total Energy =                       -232.2264737631071512
  Basis Set: CC-PVTZ
  Basis Set:
  Basis Set: CC-PVTZ
  Basis Set:
  @DF-RHF Final Energy:  -232.22648903278343
    Total Energy =                       -232.2264890327834337
  Basis Set: CC-PVTZ
  Basis Set:
  Charge       = 0
  Multiplicity = 1
  Basis Set: CC-PVTZ
  Basis Set:

    Orbital Energies (a.u.)
    -----------------------

    Doubly Occupied:

       1A    -20.545909     2A    -11.264642     3A    -11.261445
       4A    -11.212509     5A    -11.210609     6A     -1.379435
       7A     -1.058263     8A     -0.956222     9A     -0.877273
      10A     -0.809345    11A     -0.675221    12A     -0.654793
      13A     -0.632030    14A     -0.608427    15A     -0.564393
      16A     -0.543356    17A     -0.503316    18A     -0.489826
      19A     -0.478851    20A     -0.462502    21A     -0.413936

  @DF-RHF Final Energy:  -232.22648921275672

   => Energetics <=

    Nuclear Repulsion Energy =            189.8236936825447003
    One-Electron Energy =                -690.8957578608969925
    Two-Electron Energy =                 268.8455749655955742
    DFT Exchange-Correlation Energy =       0.0000000000000000
    Empirical Dispersion Energy =           0.0000000000000000
    PCM Polarization Energy =               0.0000000000000000
    EFP Energy =                            0.0000000000000000
    Total Energy =                       -232.2264892127567464
    Molecular point group: c1
  Basis Set: CC-PVTZ
  Basis Set:

  -Total Gradient:
     Atom            X                  Y                   Z
    ------   -----------------  -----------------  -----------------
       1       -0.000013786045    -0.000002559949    -0.000001601310
       2        0.001338657011    -0.002383734026     0.002636941590
       3        0.000398816059    -0.000780713827    -0.003274723323
       4       -0.001212371988     0.002203637616    -0.001380128165
       5        0.000004682903     0.000000616785     0.000003707802
       6       -0.000538629444     0.000962545030     0.001991665700
       7       -0.000001817908    -0.000010529907     0.000011390406
       8       -0.000004163518     0.000003162951     0.000007545667
       9       -0.000006874739     0.000007770683    -0.000014113557
      10        0.000029142017     0.000011328050     0.000007268928
      11       -0.000010357991    -0.000006987028     0.000006820405
      12        0.000003293173    -0.000001334390    -0.000001832689
      13       -0.000002490296     0.000003456712     0.000000409611
      14        0.000014305991    -0.000005990702     0.000007521563
      15        0.000001594776    -0.000000667997    -0.000000872630

  **** Optimization is complete! (in 4 steps) ****
    Final optimized geometry and variables:
    Molecular point group: c1

    Geometry (in Angstrom), charge = 0, multiplicity = 1:

    H           -3.107652392156     0.391260024688    -0.491482404441
    C           -2.310596440180    -0.340295628528    -0.478783025252
    O           -1.098224879002     0.341686545659    -0.464557183202
    H           -2.406630645973    -0.953722863602    -1.371088178943
    H           -2.434373730170    -0.967355853403     0.399294665434
    C           -0.042959876618    -0.331879278404     0.147671497207
    C            1.203700579161     0.526548948575     0.074235689541
    H            0.133126279870    -1.288680146803    -0.344872367875
    H           -0.291186739364    -0.545304812763     1.186958915571
    C            2.407066242381    -0.136407760653     0.735439232942
    H            1.418611444761     0.736229884706    -0.967801455546
    H            0.994709490167     1.479396800803     0.548095685792
    H            2.648488250474    -1.081460197992     0.260290537168
    H            3.282738293024     0.497610145090     0.668858248197
    H            2.222405441964    -0.332659240863     1.786433621027

  Mulliken Charges: (a.u.)
   Center  Symbol    Alpha    Beta     Spin     Total
       1     H     0.45079  0.45079  0.00000  0.09842
       2     C     3.03164  3.03164  0.00000 -0.06328
       3     O     4.17397  4.17397  0.00000 -0.34794
       4     H     0.46524  0.46524  0.00000  0.06952
       5     H     0.47388  0.47388  0.00000  0.05225
       6     C     2.95590  2.95590  0.00000  0.08820
       7     C     3.08113  3.08113  0.00000 -0.16226
       8     H     0.47678  0.47678  0.00000  0.04645
       9     H     0.47459  0.47459  0.00000  0.05081
      10     C     3.15582  3.15582  0.00000 -0.31163
      11     H     0.45101  0.45101  0.00000  0.09798
      12     H     0.45123  0.45123  0.00000  0.09755
      13     H     0.45583  0.45583  0.00000  0.08834
      14     H     0.44627  0.44627  0.00000  0.10746
      15     H     0.45593  0.45593  0.00000  0.08814

   Total alpha = 21.00000, Total beta = 21.00000, Total charge = -0.00000
