  ==> Input File <==

--------------------------------------------------------------------------
set {
	reference rhf
	basis cc-pvtz
}

set_num_threads( 4 )
memory 2 gb

molecule MOL {
0 1

H	 2.263845	 1.694029	 -1.866059
C	 1.974333	 1.042102	 -1.048771
C	 0.464160	 0.847646	 -1.040621
H	 2.299630	 1.491315	 -0.118550
H	 2.507808	 0.107715	 -1.171483
N	 0.000297	 0.000045	 0.046090
H	 0.002272	 1.819723	 -0.936499
H	 0.134529	 0.458457	 -2.007992
C	 -1.359159	 0.315706	 0.454404
C	 0.179757	 -1.414710	 -0.238139
C	 -2.416729	 -0.286720	 -0.460525
H	 -1.478729	 1.390261	 0.442008
H	 -1.539692	 0.003361	 1.486761
C	 0.358219	 -2.261449	 1.014706
H	 1.063962	 -1.530996	 -0.849464
H	 -0.652047	 -1.802402	 -0.832876
H	 -2.285276	 0.073129	 -1.473515
H	 -2.371743	 -1.368476	 -0.483209
H	 -3.408658	 -0.007405	 -0.121593
H	 1.222973	 -1.926169	 1.573898
H	 -0.502189	 -2.210629	 1.670369
H	 0.503918	 -3.302304	 0.745995

	symmetry c1
}
set optking {
	frozen_dihedral = ("
		3 6 9 11
	")
}

ee = optimize('scf')
oeprop('DIPOLE', 'QUADRUPOLE', 'MULLIKEN_CHARGES')
f=open( 'psi4out.xyz', 'w' )
f.write( "22  " )
f.write( str(ee) + "\n" )
f.write( MOL.save_string_xyz() )
f.close()
--------------------------------------------------------------------------

    Molecular point group: c1
  Charge       = 0
  Multiplicity = 1
  Basis Set: CC-PVTZ
  Basis Set:
  @DF-RHF Final Energy:  -290.46780524568459
    Total Energy =                       -290.4678052456848718
    Molecular point group: c1
  Basis Set: CC-PVTZ
  Basis Set:
  Basis Set: CC-PVTZ
  Basis Set:
  @DF-RHF Final Energy:  -290.47164991830789
    Total Energy =                       -290.4716499183076621
  Basis Set: CC-PVTZ
  Basis Set:
  Basis Set: CC-PVTZ
  Basis Set:
  @DF-RHF Final Energy:  -290.47388516137948
    Total Energy =                       -290.4738851613794282
  Basis Set: CC-PVTZ
  Basis Set:
  Basis Set: CC-PVTZ
  Basis Set:
  @DF-RHF Final Energy:  -290.47419757375638
    Total Energy =                       -290.4741975737561006
  Basis Set: CC-PVTZ
  Basis Set:
  Basis Set: CC-PVTZ
  Basis Set:
  @DF-RHF Final Energy:  -290.47426634416928
    Total Energy =                       -290.4742663441692230
  Basis Set: CC-PVTZ
  Basis Set:
  Basis Set: CC-PVTZ
  Basis Set:
  @DF-RHF Final Energy:  -290.47429431569651
    Total Energy =                       -290.4742943156963975
  Basis Set: CC-PVTZ
  Basis Set:
  Basis Set: CC-PVTZ
  Basis Set:
  @DF-RHF Final Energy:  -290.47429905242990
    Total Energy =                       -290.4742990524302400
  Basis Set: CC-PVTZ
  Basis Set:
  Charge       = 0
  Multiplicity = 1
  Basis Set: CC-PVTZ
  Basis Set:

    Orbital Energies (a.u.)
    -----------------------

    Doubly Occupied:

       1A    -15.529344     2A    -11.238397     3A    -11.237831
       4A    -11.237526     5A    -11.204751     6A    -11.204714
       7A    -11.202212     8A     -1.222918     9A     -1.025932
      10A     -1.020285    11A     -0.957051    12A     -0.864029
      13A     -0.841726    14A     -0.758495    15A     -0.660187
      16A     -0.644956    17A     -0.618044    18A     -0.596501
      19A     -0.569844    20A     -0.550637    21A     -0.544251
      22A     -0.524907    23A     -0.516036    24A     -0.504494
      25A     -0.492124    26A     -0.481972    27A     -0.470125
      28A     -0.460334    29A     -0.334305

  @DF-RHF Final Energy:  -290.47429984947092

   => Energetics <=

    Nuclear Repulsion Energy =            339.2499149077413563
    One-Electron Energy =               -1064.4205610926619556
    Two-Electron Energy =                 434.6963463354495616
    DFT Exchange-Correlation Energy =       0.0000000000000000
    Empirical Dispersion Energy =           0.0000000000000000
    PCM Polarization Energy =               0.0000000000000000
    EFP Energy =                            0.0000000000000000
    Total Energy =                       -290.4742998494709809
    Molecular point group: c1
  Basis Set: CC-PVTZ
  Basis Set:

  -Total Gradient:
     Atom            X                  Y                   Z
    ------   -----------------  -----------------  -----------------
       1        0.000003955941     0.000004444493     0.000007575701
       2        0.000011614193     0.000008571722    -0.000023181392
       3        0.001074582267     0.001700681570     0.001783751353
       4       -0.000000825786    -0.000006640345    -0.000003064201
       5       -0.000000245152    -0.000010739860     0.000017749473
       6       -0.001528977081    -0.003464563060    -0.001846557829
       7       -0.000021786226     0.000007568672    -0.000025825643
       8        0.000003195984    -0.000005826903     0.000010842029
       9        0.000401732444     0.003904532215    -0.001303815782
      10       -0.000004747686     0.000009335641     0.000032821591
      11        0.000016868504    -0.002178312326     0.001387579046
      12        0.000002759157     0.000009179190     0.000000002319
      13        0.000026290211     0.000012979456    -0.000004459312
      14        0.000003745082    -0.000007218300    -0.000015833490
      15        0.000014865245     0.000011102097    -0.000013772733
      16       -0.000002796944    -0.000003270142    -0.000001293237
      17        0.000017240554     0.000005193162    -0.000002657189
      18       -0.000021353255    -0.000000112358    -0.000006284589
      19        0.000003776087     0.000001853072     0.000008163568
      20       -0.000004769286    -0.000004177371    -0.000002458315
      21       -0.000001209815     0.000007049844    -0.000004465600
      22        0.000006085564    -0.000001630470     0.000005184232

  **** Optimization is complete! (in 8 steps) ****
    Final optimized geometry and variables:
    Molecular point group: c1

    Geometry (in Angstrom), charge = 0, multiplicity = 1:

    H            2.366080600768     2.039354659994    -1.689021305011
    C            2.088534870060     1.371036665834    -0.880583146292
    C            0.593370753697     1.078923279122    -0.930947292281
    H            2.347897891355     1.841441913169     0.059893518958
    H            2.685495820045     0.473294632469    -0.981175898819
    N            0.141202317960     0.228447079477     0.155592136662
    H            0.064816221471     2.021169094553    -0.865007683839
    H            0.341874566534     0.657600149417    -1.907679093026
    C           -1.182955902087     0.542888555142     0.661852514467
    C            0.425033775493    -1.176841297142    -0.052645648019
    C           -2.377066324599     0.021438086178    -0.142125228209
    H           -1.252066073430     1.619651583996     0.744342931833
    H           -1.262022364214     0.164541348080     1.674361042175
    C            0.338048058312    -2.014408608521     1.216300131995
    H            1.434273541178    -1.253655203664    -0.433436684854
    H           -0.218471161156    -1.614053868926    -0.819968183330
    H           -2.351148396844     0.367374764604    -1.169969726892
    H           -2.416346707537    -1.060611102775    -0.155879457876
    H           -3.300409213954     0.376055460747     0.303089766529
    H            0.966190480533    -1.593999177206     1.992426414032
    H           -0.672735384305    -2.080376078194     1.599175061382
    H            0.674355003756    -3.024839989062     1.012841892899

  Mulliken Charges: (a.u.)
   Center  Symbol    Alpha    Beta     Spin     Total
       1     H     0.45388  0.45388  0.00000  0.09225
       2     C     3.13824  3.13824  0.00000 -0.27648
       3     C     3.04101  3.04101  0.00000 -0.08202
       4     H     0.45272  0.45272  0.00000  0.09456
       5     H     0.45636  0.45636  0.00000  0.08728
       6     N     3.61362  3.61362  0.00000 -0.22723
       7     H     0.45308  0.45308  0.00000  0.09385
       8     H     0.46531  0.46531  0.00000  0.06938
       9     C     3.06230  3.06230  0.00000 -0.12460
      10     C     3.04670  3.04670  0.00000 -0.09340
      11     C     3.15168  3.15168  0.00000 -0.30335
      12     H     0.44771  0.44771  0.00000  0.10459
      13     H     0.44920  0.44920  0.00000  0.10160
      14     C     3.15155  3.15155  0.00000 -0.30310
      15     H     0.44723  0.44723  0.00000  0.10554
      16     H     0.46363  0.46363  0.00000  0.07273
      17     H     0.45206  0.45206  0.00000  0.09588
      18     H     0.45350  0.45350  0.00000  0.09300
      19     H     0.44769  0.44769  0.00000  0.10463
      20     H     0.44875  0.44875  0.00000  0.10251
      21     H     0.45442  0.45442  0.00000  0.09116
      22     H     0.44938  0.44938  0.00000  0.10124

   Total alpha = 29.00000, Total beta = 29.00000, Total charge = -0.00000
