  ==> Input File <==

--------------------------------------------------------------------------
set {
	reference rhf
	basis 6-31G*
}

set_num_threads( 4 )
memory 2 gb

molecule MOL {
0 1

H	 -2.172150	 0.880146	 0.502514
C	 -2.018062	 -0.000025	 -0.114509
O	 -0.774054	 0.001095	 -0.743181
H	 -2.760490	 0.003458	 -0.901350
H	 -2.173624	 -0.884374	 0.496163
C	 0.056783	 1.144735	 -0.651909
C	 1.299131	 0.753028	 -1.448870
C	 -0.611308	 2.365621	 -1.292441
C	 0.439364	 1.435464	 0.802816
H	 1.027990	 0.520674	 -2.472552
H	 1.759057	 -0.127379	 -1.014444
H	 2.027992	 1.556992	 -1.456949
H	 -0.943129	 2.127786	 -2.297606
H	 0.090889	 3.190893	 -1.351152
H	 -1.467982	 2.709259	 -0.722724
H	 0.845994	 0.544414	 1.269434
H	 1.191819	 2.216225	 0.844746
H	 -0.408808	 1.771234	 1.389752

	symmetry c1
}
set optking {
	frozen_dihedral = ("
		6 3 2 5
	")
}

ee = optimize('scf')
oeprop('DIPOLE', 'QUADRUPOLE', 'MULLIKEN_CHARGES')
f=open( 'psi4out.xyz', 'w' )
f.write( "18  " )
f.write( str(ee) + "\n" )
f.write( MOL.save_string_xyz() )
f.close()
--------------------------------------------------------------------------

    Molecular point group: c1
  Charge       = 0
  Multiplicity = 1
  Basis Set: 6-31G*
  Basis Set:
  @DF-RHF Final Energy:  -271.17212832891852
    Total Energy =                       -271.1721283289185749
    Molecular point group: c1
  Basis Set: 6-31G*
  Basis Set:
  Basis Set: 6-31G*
  Basis Set:
  @DF-RHF Final Energy:  -271.17289332754780
    Total Energy =                       -271.1728933275478539
  Basis Set: 6-31G*
  Basis Set:
  Basis Set: 6-31G*
  Basis Set:
  @DF-RHF Final Energy:  -271.17328982761643
    Total Energy =                       -271.1732898276165429
  Basis Set: 6-31G*
  Basis Set:
  Basis Set: 6-31G*
  Basis Set:
  @DF-RHF Final Energy:  -271.17328331889092
    Total Energy =                       -271.1732833188907534
  Basis Set: 6-31G*
  Basis Set:
  @DF-RHF Final Energy:  -271.17329750194932
    Total Energy =                       -271.1732975019493779
  Basis Set: 6-31G*
  Basis Set:
  @DF-RHF Final Energy:  -271.17331750535294
    Total Energy =                       -271.1733175053529408
  Basis Set: 6-31G*
  Basis Set:
  Basis Set: 6-31G*
  Basis Set:
  @DF-RHF Final Energy:  -271.17332191724984
    Total Energy =                       -271.1733219172500071
  Basis Set: 6-31G*
  Basis Set:
  Basis Set: 6-31G*
  Basis Set:
  @DF-RHF Final Energy:  -271.17332368957102
    Total Energy =                       -271.1733236895709638
  Basis Set: 6-31G*
  Basis Set:
  Charge       = 0
  Multiplicity = 1
  Basis Set: 6-31G*
  Basis Set:

    Orbital Energies (a.u.)
    -----------------------

    Doubly Occupied:

       1A    -20.544354     2A    -11.281969     3A    -11.260952
       4A    -11.208892     5A    -11.208384     6A    -11.203198
       7A     -1.367738     8A     -1.072538     9A     -0.945623
      10A     -0.939931    11A     -0.912815    12A     -0.752658
      13A     -0.654892    14A     -0.643466    15A     -0.638407
      16A     -0.590328    17A     -0.570906    18A     -0.551634
      19A     -0.538822    20A     -0.523680    21A     -0.514928
      22A     -0.489894    23A     -0.487225    24A     -0.437562
      25A     -0.401156

  @DF-RHF Final Energy:  -271.17332370540117

   => Energetics <=

    Nuclear Repulsion Energy =            272.1411528228370003
    One-Electron Energy =                -907.1450439391555847
    Two-Electron Energy =                 363.8305674109175243
    DFT Exchange-Correlation Energy =       0.0000000000000000
    Empirical Dispersion Energy =           0.0000000000000000
    PCM Polarization Energy =               0.0000000000000000
    EFP Energy =                            0.0000000000000000
    Total Energy =                       -271.1733237054010033
    Molecular point group: c1
  Basis Set: 6-31G*
  Basis Set:

  -Total Gradient:
     Atom            X                  Y                   Z
    ------   -----------------  -----------------  -----------------
       1       -0.000001006720     0.000004982638    -0.000005967855
       2       -0.000312744508    -0.000874443270    -0.000661582229
       3       -0.000478608082     0.000653000582    -0.001039794632
       4        0.000015783548     0.000005727016    -0.000010696744
       5        0.000399796276     0.000557410111     0.000881481833
       6        0.000375064358    -0.000321123555     0.000815188891
       7        0.000000600534    -0.000003895340    -0.000000932507
       8        0.000007697257    -0.000027517415    -0.000007843774
       9       -0.000008404892     0.000013482389     0.000016982764
      10        0.000000268069    -0.000004969717     0.000002987989
      11        0.000003969771     0.000002053574     0.000003152928
      12       -0.000002684969     0.000002090586    -0.000004168944
      13       -0.000016599082     0.000003919042     0.000001151692
      14        0.000009902561    -0.000004840723    -0.000003229508
      15        0.000002657278    -0.000010183569     0.000010034965
      16        0.000007716143     0.000000867411    -0.000010829603
      17       -0.000009022308     0.000004976339     0.000004303759
      18        0.000005614765    -0.000001536095     0.000009760977

  **** Optimization is complete! (in 9 steps) ****
    Final optimized geometry and variables:
    Molecular point group: c1

    Geometry (in Angstrom), charge = 0, multiplicity = 1:

    H           -1.922203715258    -0.060447367508     1.059262876314
    C           -1.753214910490    -0.925286789735     0.429676284392
    O           -0.483406308360    -0.940866630251    -0.153967821375
    H           -2.518371542336    -0.938265719174    -0.340042247519
    H           -1.862729979828    -1.809935471346     1.046609240646
    C            0.350404812203     0.200994251389    -0.078771729804
    C            1.587013400923    -0.196434164671    -0.881446007328
    C           -0.323275248547     1.415374202944    -0.725333521960
    C            0.744962164780     0.493816941806     1.372338439802
    H            1.309948289126    -0.432174604294    -1.902646812930
    H            2.048160944108    -1.075663815265    -0.446084696342
    H            2.317012870170     0.606547116654    -0.896423547497
    H           -0.627378429554     1.177942982746    -1.739246775073
    H            0.361970991277     2.256129923430    -0.762413768641
    H           -1.201520247601     1.735106953320    -0.174414209875
    H            1.186182342122    -0.388642146350     1.822990702391
    H            1.471724327458     1.298849095198     1.413286826093
    H           -0.105017973913     0.793312477119     1.975992942462

  Mulliken Charges: (a.u.)
   Center  Symbol    Alpha    Beta     Spin     Total
       1     H     0.42996  0.42996  0.00000  0.14008
       2     C     3.07653  3.07653  0.00000 -0.15306
       3     O     4.32201  4.32201  0.00000 -0.64403
       4     H     0.42271  0.42271  0.00000  0.15459
       5     H     0.41868  0.41868  0.00000  0.16264
       6     C     2.84406  2.84406  0.00000  0.31188
       7     C     3.23300  3.23300  0.00000 -0.46600
       8     C     3.24583  3.24583  0.00000 -0.49165
       9     C     3.24439  3.24439  0.00000 -0.48877
      10     H     0.41424  0.41424  0.00000  0.17152
      11     H     0.41396  0.41396  0.00000  0.17208
      12     H     0.42509  0.42509  0.00000  0.14981
      13     H     0.41363  0.41363  0.00000  0.17275
      14     H     0.41992  0.41992  0.00000  0.16017
      15     H     0.42091  0.42091  0.00000  0.15818
      16     H     0.41349  0.41349  0.00000  0.17301
      17     H     0.42061  0.42061  0.00000  0.15877
      18     H     0.42098  0.42098  0.00000  0.15803

   Total alpha = 25.00000, Total beta = 25.00000, Total charge =  0.00000
