  ==> Input File <==

--------------------------------------------------------------------------
set {
	reference rhf
	basis 6-31G*
}

set_num_threads( 4 )
memory 2 gb

molecule MOL {
0 1

H	 0.301643	 -2.350525	 -4.486987
O	 1.244086	 -2.428410	 -4.515375
C	 1.829208	 -1.350216	 -3.830405
C	 1.679109	 -1.447381	 -2.316220
H	 2.878525	 -1.367712	 -4.095548
H	 1.421367	 -0.405341	 -4.187693
C	 0.229424	 -1.383737	 -1.829158
H	 2.135529	 -2.375946	 -1.983331
H	 2.247756	 -0.635214	 -1.866338
C	 0.115918	 -1.429151	 -0.302766
H	 -0.328404	 -2.210917	 -2.259236
H	 -0.235521	 -0.468047	 -2.194777
C	 -1.309753	 -1.282496	 0.241564
H	 0.545766	 -2.360836	 0.060610
H	 0.727126	 -0.631179	 0.113606
C	 -2.037799	 -0.007733	 -0.193645
H	 -1.890610	 -2.142323	 -0.085726
H	 -1.285946	 -1.330893	 1.329189
C	 -3.489788	 0.042957	 0.286558
H	 -2.017067	 0.064384	 -1.280144
H	 -1.513726	 0.868678	 0.179924
C	 -4.216917	 1.317354	 -0.141063
H	 -4.025645	 -0.823308	 -0.095450
H	 -3.513059	 -0.038752	 1.371301
H	 -4.239342	 1.411634	 -1.223113
H	 -5.243387	 1.322503	 0.212445
H	 -3.726170	 2.201406	 0.256408

	symmetry c1
}
set optking {
	frozen_dihedral = ("
		14 10 13 16
	")
}

ee = optimize('scf')
oeprop('DIPOLE', 'QUADRUPOLE', 'MULLIKEN_CHARGES')
f=open( 'psi4out.xyz', 'w' )
f.write( "27  " )
f.write( str(ee) + "\n" )
f.write( MOL.save_string_xyz() )
f.close()
--------------------------------------------------------------------------

    Molecular point group: c1
  Charge       = 0
  Multiplicity = 1
  Basis Set: 6-31G*
  Basis Set:
  @DF-RHF Final Energy:  -388.28031580013430
    Total Energy =                       -388.2803158001337351
    Molecular point group: c1
  Basis Set: 6-31G*
  Basis Set:
  Basis Set: 6-31G*
  Basis Set:
  @DF-RHF Final Energy:  -388.28117992118456
    Total Energy =                       -388.2811799211849575
  Basis Set: 6-31G*
  Basis Set:
  Basis Set: 6-31G*
  Basis Set:
  @DF-RHF Final Energy:  -388.28151813421960
    Total Energy =                       -388.2815181342200503
  Basis Set: 6-31G*
  Basis Set:
  Basis Set: 6-31G*
  Basis Set:
  @DF-RHF Final Energy:  -388.28158407474115
    Total Energy =                       -388.2815840747414313
  Basis Set: 6-31G*
  Basis Set:
  Basis Set: 6-31G*
  Basis Set:
  @DF-RHF Final Energy:  -388.28159105888454
    Total Energy =                       -388.2815910588847146
  Basis Set: 6-31G*
  Basis Set:
  Charge       = 0
  Multiplicity = 1
  Basis Set: 6-31G*
  Basis Set:

    Orbital Energies (a.u.)
    -----------------------

    Doubly Occupied:

       1A    -20.552179     2A    -11.266984     3A    -11.219918
       4A    -11.217527     5A    -11.216522     6A    -11.215846
       7A    -11.215312     8A    -11.214808     9A    -11.209966
      10A     -1.358962    11A     -1.095591    12A     -1.061737
      13A     -1.011704    14A     -0.948534    15A     -0.888773
      16A     -0.820178    17A     -0.803410    18A     -0.776269
      19A     -0.694349    20A     -0.649866    21A     -0.638451
      22A     -0.613589    23A     -0.606418    24A     -0.584570
      25A     -0.575753    26A     -0.553693    27A     -0.546238
      28A     -0.522140    29A     -0.507081    30A     -0.500679
      31A     -0.484553    32A     -0.474520    33A     -0.466330
      34A     -0.460003    35A     -0.454150    36A     -0.442030
      37A     -0.423034

  @DF-RHF Final Energy:  -388.28159047129213

   => Energetics <=

    Nuclear Repulsion Energy =            459.5403443667075862
    One-Electron Energy =               -1437.0605332472778173
    Two-Electron Energy =                 589.2385984092779836
    DFT Exchange-Correlation Energy =       0.0000000000000000
    Empirical Dispersion Energy =           0.0000000000000000
    PCM Polarization Energy =               0.0000000000000000
    EFP Energy =                            0.0000000000000000
    Total Energy =                       -388.2815904712922475
    Molecular point group: c1
  Basis Set: 6-31G*
  Basis Set:

  -Total Gradient:
     Atom            X                  Y                   Z
    ------   -----------------  -----------------  -----------------
       1        0.000041632578     0.000007955137    -0.000021994896
       2        0.000041383568    -0.000039353831    -0.000031360821
       3       -0.000110423847     0.000094315051    -0.000005080099
       4        0.000001928549    -0.000103228558     0.000041385040
       5       -0.000017329848    -0.000001760332     0.000005933970
       6        0.000004425244     0.000008297733    -0.000019276871
       7        0.000064926970     0.000167358921    -0.000055052856
       8        0.000013929556    -0.000035035032    -0.000000625124
       9       -0.000014125358    -0.000027808789     0.000020808332
      10        0.000380027330     0.000502911206     0.001050135686
      11        0.000069575184    -0.000007849707     0.000125868607
      12       -0.000017698299    -0.000011008110    -0.000069109507
      13        0.000403794107     0.000730843007     0.001073140999
      14       -0.000448375059    -0.000742132065    -0.001236411685
      15       -0.000084715768    -0.000035232404    -0.000018761482
      16       -0.000425849810    -0.000536010038    -0.001009728413
      17        0.000082524670     0.000008540080    -0.000007273484
      18       -0.000023561578     0.000024654144     0.000021341562
      19        0.000040911788     0.000040527647     0.000091075950
      20        0.000030475320     0.000016772160     0.000002597545
      21       -0.000027589190    -0.000035974316     0.000039578359
      22        0.000008669593    -0.000032330801    -0.000034407686
      23        0.000013748787     0.000008361168     0.000007020243
      24       -0.000033419470     0.000012137290     0.000037250413
      25        0.000006636979     0.000012750727    -0.000009992382
      26        0.000002129448    -0.000017975678    -0.000009103125
      27       -0.000003631440    -0.000009724609     0.000012041738

  **** Optimization is complete! (in 6 steps) ****
    Final optimized geometry and variables:
    Molecular point group: c1

    Geometry (in Angstrom), charge = 0, multiplicity = 1:

    H            0.968593073966    -1.334849026912    -3.067428721479
    O            1.897421446536    -1.514709879721    -3.077128377246
    C            2.578598290269    -0.523946003446    -2.350366091890
    C            2.368537627422    -0.632519899404    -0.844175835709
    H            3.627086959724    -0.657055609263    -2.583924244679
    H            2.293444285652     0.468200708445    -2.698488082385
    C            0.920663917200    -0.409001037863    -0.400316026686
    H            2.704152878874    -1.613568965891    -0.518436078704
    H            3.011299693171     0.100004593424    -0.358515556461
    C            0.759322409758    -0.448625307549     1.122474856737
    H            0.283666908703    -1.175000173536    -0.839310514512
    H            0.573651804356     0.546795087361    -0.787045895292
    C           -0.688497474215    -0.379711146146     1.622036560470
    H            1.200405880664    -1.374772829002     1.484579712751
    H            1.334706484587     0.362586750802     1.564533426063
    C           -1.464253554518     0.870968343946     1.200079329598
    H           -1.224991812617    -1.262452083251     1.277472004538
    H           -0.678420687215    -0.438243167654     2.708376461058
    C           -2.853779091769     0.951357064215     1.835958234506
    H           -1.570826909608     0.895605407525     0.118519929679
    H           -0.894788047080     1.759155913815     1.471578854020
    C           -3.639969937069     2.187386006301     1.400498263712
    H           -3.418142561744     0.056838200910     1.580630610107
    H           -2.755022420928     0.949942592098     2.919330062195
    H           -3.786299887031     2.200411651648     0.324014280651
    H           -4.619764379959     2.215326764430     1.867190127515
    H           -3.117820878737     3.100279210736     1.673042476745

  Mulliken Charges: (a.u.)
   Center  Symbol    Alpha    Beta     Spin     Total
       1     H     0.27996  0.27996  0.00000  0.44007
       2     O     4.37096  4.37096  0.00000 -0.74192
       3     C     2.99726  2.99726  0.00000  0.00548
       4     C     3.16109  3.16109  0.00000 -0.32219
       5     H     0.41447  0.41447  0.00000  0.17107
       6     H     0.43210  0.43210  0.00000  0.13580
       7     C     3.16440  3.16440  0.00000 -0.32880
       8     H     0.41501  0.41501  0.00000  0.16999
       9     H     0.42414  0.42414  0.00000  0.15172
      10     C     3.15142  3.15142  0.00000 -0.30284
      11     H     0.42556  0.42556  0.00000  0.14887
      12     H     0.42225  0.42225  0.00000  0.15550
      13     C     3.15330  3.15330  0.00000 -0.30660
      14     H     0.41998  0.41998  0.00000  0.16004
      15     H     0.42310  0.42310  0.00000  0.15379
      16     C     3.15289  3.15289  0.00000 -0.30578
      17     H     0.42376  0.42376  0.00000  0.15249
      18     H     0.42113  0.42113  0.00000  0.15774
      19     C     3.15125  3.15125  0.00000 -0.30250
      20     H     0.42324  0.42324  0.00000  0.15351
      21     H     0.42466  0.42466  0.00000  0.15069
      22     C     3.23915  3.23915  0.00000 -0.47830
      23     H     0.42300  0.42300  0.00000  0.15400
      24     H     0.42271  0.42271  0.00000  0.15458
      25     H     0.42234  0.42234  0.00000  0.15531
      26     H     0.41906  0.41906  0.00000  0.16188
      27     H     0.42180  0.42180  0.00000  0.15640

   Total alpha = 37.00000, Total beta = 37.00000, Total charge =  0.00000
