  ==> Input File <==

--------------------------------------------------------------------------
set {
	reference rhf
	basis cc-pvtz
}

set_num_threads( 4 )
memory 2 gb

molecule MOL {
0 1

H	 1.880235	 1.696287	 -0.274680
O	 0.999744	 1.352324	 -0.287419
C	 1.050374	 0.054877	 0.000135
C	 -0.318151	 -0.570512	 0.000144
O	 2.069837	 -0.501100	 0.222738
C	 -1.454884	 0.441630	 -0.000560
H	 -0.371613	 -1.223646	 -0.864985
H	 -0.371920	 -1.222758	 0.865929
C	 -2.822577	 -0.232186	 0.000063
H	 -1.359760	 1.084704	 -0.867077
H	 -1.359641	 1.085996	 0.864983
H	 -2.954352	 -0.858985	 -0.875745
H	 -3.615886	 0.505352	 0.000019
H	 -2.953878	 -0.858359	 0.876394

	symmetry c1
}
set optking {
	frozen_dihedral = ("
		2 3 4 7
	")
}

ee = optimize('scf')
oeprop('DIPOLE', 'QUADRUPOLE', 'MULLIKEN_CHARGES')
f=open( 'psi4out.xyz', 'w' )
f.write( "14  " )
f.write( str(ee) + "\n" )
f.write( MOL.save_string_xyz() )
f.close()
--------------------------------------------------------------------------

    Molecular point group: c1
  Charge       = 0
  Multiplicity = 1
  Basis Set: CC-PVTZ
  Basis Set:
  @DF-RHF Final Energy:  -305.99718500933591
    Total Energy =                       -305.9971850093359080
    Molecular point group: c1
  Basis Set: CC-PVTZ
  Basis Set:
  Basis Set: CC-PVTZ
  Basis Set:
  @DF-RHF Final Energy:  -305.99802426636040
    Total Energy =                       -305.9980242663604599
  Basis Set: CC-PVTZ
  Basis Set:
  Basis Set: CC-PVTZ
  Basis Set:
  @DF-RHF Final Energy:  -305.99825335340000
    Total Energy =                       -305.9982533533997753
  Basis Set: CC-PVTZ
  Basis Set:
  Basis Set: CC-PVTZ
  Basis Set:
  @DF-RHF Final Energy:  -305.99829857349772
    Total Energy =                       -305.9982985734980048
  Basis Set: CC-PVTZ
  Basis Set:
  Basis Set: CC-PVTZ
  Basis Set:
  @DF-RHF Final Energy:  -305.99837938307542
    Total Energy =                       -305.9983793830753029
  Basis Set: CC-PVTZ
  Basis Set:
  Basis Set: CC-PVTZ
  Basis Set:
  @DF-RHF Final Energy:  -305.99838877188438
    Total Energy =                       -305.9983887718842652
  Basis Set: CC-PVTZ
  Basis Set:
  Charge       = 0
  Multiplicity = 1
  Basis Set: CC-PVTZ
  Basis Set:

    Orbital Energies (a.u.)
    -----------------------

    Doubly Occupied:

       1A    -20.607233     2A    -20.536678     3A    -11.374481
       4A    -11.240068     5A    -11.228392     6A    -11.217828
       7A     -1.479263     8A     -1.368159     9A     -1.086363
      10A     -0.979289    11A     -0.848458    12A     -0.821166
      13A     -0.703680    14A     -0.682206    15A     -0.668749
      16A     -0.619737    17A     -0.593209    18A     -0.565333
      19A     -0.550366    20A     -0.527421    21A     -0.497949
      22A     -0.494014    23A     -0.470785    24A     -0.439981

  @DF-RHF Final Energy:  -305.99838883795348

   => Energetics <=

    Nuclear Repulsion Energy =            240.8445433521891346
    One-Electron Energy =                -894.4842405598926689
    Two-Electron Energy =                 347.6413083697502202
    DFT Exchange-Correlation Energy =       0.0000000000000000
    Empirical Dispersion Energy =           0.0000000000000000
    PCM Polarization Energy =               0.0000000000000000
    EFP Energy =                            0.0000000000000000
    Total Energy =                       -305.9983888379533141
    Molecular point group: c1
  Basis Set: CC-PVTZ
  Basis Set:

  -Total Gradient:
     Atom            X                  Y                   Z
    ------   -----------------  -----------------  -----------------
       1        0.000003318828     0.000003511710     0.000000748940
       2       -0.000043493460     0.000134819681     0.000456685757
       3        0.000113484534    -0.000272549498    -0.000568004766
       4       -0.000229943990     0.000536224982    -0.000162317078
       5       -0.000030231960     0.000018588590     0.000001208956
       6        0.000001651311     0.000011883901    -0.000052589419
       7        0.000168631250    -0.000407331578     0.000300217321
       8        0.000001240788    -0.000007650652     0.000001486497
       9        0.000004926970    -0.000013312676     0.000018503261
      10        0.000000576173     0.000003201844    -0.000001065466
      11        0.000006515338    -0.000007821971     0.000001580505
      12        0.000001491787     0.000005278399    -0.000001724027
      13        0.000006024405     0.000002199718     0.000004930675
      14       -0.000004191971    -0.000007042450     0.000000338845

  **** Optimization is complete! (in 7 steps) ****
    Final optimized geometry and variables:
    Molecular point group: c1

    Geometry (in Angstrom), charge = 0, multiplicity = 1:

    H            2.054898662535     1.527592795863    -0.250068283661
    O            1.150302895636     1.252353951564    -0.264884681470
    C            1.108095079835    -0.044329036549     0.015848253001
    C           -0.280263597074    -0.635335870939     0.006515347419
    O            2.087768943980    -0.669331825411     0.238690452195
    C           -1.448628145649     0.344394577577     0.003811013006
    H           -0.319579185923    -1.280327727704    -0.866139287417
    H           -0.327105327614    -1.296561540317     0.862946972831
    C           -2.791286763423    -0.378264322032     0.023336221755
    H           -1.388336458133     0.981651687444    -0.869514285840
    H           -1.374756488009     0.998838052215     0.865125476328
    H           -2.906184013816    -1.017562043187    -0.845634377813
    H           -3.611060755139     0.329797779899     0.023229243180
    H           -2.891333527889    -1.000478374434     0.906258937190

  Mulliken Charges: (a.u.)
   Center  Symbol    Alpha    Beta     Spin     Total
       1     H     0.38426  0.38426  0.00000  0.23147
       2     O     4.15089  4.15089  0.00000 -0.30178
       3     C     2.81197  2.81197  0.00000  0.37606
       4     C     3.09697  3.09697  0.00000 -0.19395
       5     O     4.19732  4.19732  0.00000 -0.39465
       6     C     3.08412  3.08412  0.00000 -0.16824
       7     H     0.43981  0.43981  0.00000  0.12038
       8     H     0.43555  0.43555  0.00000  0.12890
       9     C     3.15171  3.15171  0.00000 -0.30343
      10     H     0.44557  0.44557  0.00000  0.10887
      11     H     0.44770  0.44770  0.00000  0.10460
      12     H     0.45456  0.45456  0.00000  0.09087
      13     H     0.44541  0.44541  0.00000  0.10918
      14     H     0.45415  0.45415  0.00000  0.09170

   Total alpha = 24.00000, Total beta = 24.00000, Total charge = -0.00000
