                              Psi4 1.0.54 Driver

  ==> Input File <==

--------------------------------------------------------------------------
set {
	reference rhf
	basis cc-pvtz
}

set_num_threads( 4 )
memory 2 gb

molecule MOL {
0 1

H	 2.883198	 0.355089	 0.264419
C	 1.948180	 -0.217873	 0.320185
C	 0.692262	 0.592428	 0.156232
O	 1.980204	 -1.385635	 0.501681
C	 -0.554654	 -0.292621	 0.086567
H	 0.791858	 1.203694	 -0.731051
H	 0.617379	 1.254358	 1.016534
C	 -1.846385	 0.513195	 -0.016346
H	 -0.473986	 -0.956115	 -0.769708
H	 -0.597929	 -0.929215	 0.966651
C	 -3.089953	 -0.365049	 -0.098564
H	 -1.798267	 1.154820	 -0.891143
H	 -1.925398	 1.173265	 0.842889
H	 -3.055079	 -1.012299	 -0.968245
H	 -3.988403	 0.236438	 -0.170014
H	 -3.183055	 -0.995885	 0.779079

	symmetry c1
}
set optking {
	frozen_dihedral = ("
		4 2 3 6
	")
}

ee,wfn = optimize('scf', return_wfn=True)
oeprop( wfn, 'DIPOLE', 'QUADRUPOLE', 'MULLIKEN_CHARGES')
f=open( 'psi4out.xyz', 'w' )
f.write( "16  " )
f.write( str(ee) + "\n" )
f.write( MOL.save_string_xyz() )
f.close()
--------------------------------------------------------------------------

    Molecular point group: c1
  Charge       = 0
  Multiplicity = 1
  Basis Set: CC-PVTZ
  Basis Set:
  @DF-RHF Final Energy:  -270.11960394460004
    Total Energy =                       -270.1196039446000441
    Molecular point group: c1
  Basis Set: CC-PVTZ
  Basis Set:
  Basis Set: CC-PVTZ
  Basis Set:
  @DF-RHF Final Energy:  -270.12026382466428
    Total Energy =                       -270.1202638246640504
  Basis Set: CC-PVTZ
  Basis Set:
  Basis Set: CC-PVTZ
  Basis Set:
  @DF-RHF Final Energy:  -270.11976007671944
    Total Energy =                       -270.1197600767193308
  Basis Set: CC-PVTZ
  Basis Set:
  Basis Set: CC-PVTZ
  Basis Set:
  @DF-RHF Final Energy:  -270.12032062916694
    Total Energy =                       -270.1203206291669403
  Basis Set: CC-PVTZ
  Basis Set:
  Basis Set: CC-PVTZ
  Basis Set:
  @DF-RHF Final Energy:  -270.12033586683424
    Total Energy =                       -270.1203358668340684
  Basis Set: CC-PVTZ
  Basis Set:
  Charge       = 0
  Multiplicity = 1
  Basis Set: CC-PVTZ
  Basis Set:

    Orbital Energies (a.u.)
    -----------------------

    Doubly Occupied:

       1A    -20.552599     2A    -11.322625     3A    -11.236380
       4A    -11.221279     5A    -11.220489     6A    -11.210796
       7A     -1.408083     8A     -1.090647     9A     -1.016918
      10A     -0.910016    11A     -0.814980    12A     -0.771456
      13A     -0.677921    14A     -0.657998    15A     -0.632790
      16A     -0.599501    17A     -0.586943    18A     -0.535631
      19A     -0.531258    20A     -0.498085    21A     -0.487174
      22A     -0.478693    23A     -0.473029    24A     -0.413354

  @DF-RHF Final Energy:  -270.12033548967281

   => Energetics <=

    Nuclear Repulsion Energy =            232.1196877923896125
    One-Electron Energy =                -825.7827574391485541
    Two-Electron Energy =                 323.5427341570863291
    DFT Exchange-Correlation Energy =       0.0000000000000000
    Empirical Dispersion Energy =           0.0000000000000000
    PCM Polarization Energy =               0.0000000000000000
    EFP Energy =                            0.0000000000000000
    Total Energy =                       -270.1203354896725841
    Molecular point group: c1
  Basis Set: CC-PVTZ
  Basis Set:

  -Total Gradient:
     Atom            X                  Y                   Z
    ------   -----------------  -----------------  -----------------
       1       -0.000129035550    -0.000127564277     0.000015550851
       2        0.000330843797     0.000004050782    -0.000860618240
       3       -0.000270327430    -0.000480611490    -0.000064505113
       4       -0.000023850402     0.000171423253     0.000657954385
       5       -0.000053506367    -0.000027443295    -0.000134376430
       6        0.000195652084     0.000408239229     0.000351039182
       7       -0.000003117339     0.000010651042    -0.000014213113
       8       -0.000050323404    -0.000006528898     0.000037877346
       9        0.000006400640     0.000005245283     0.000008715314
      10        0.000033657516    -0.000002161907    -0.000014536349
      11       -0.000001407539     0.000028101838     0.000014897842
      12       -0.000011499934    -0.000009204672    -0.000010073603
      13       -0.000025229561     0.000023439924     0.000004508381
      14        0.000011199355     0.000002706475    -0.000005737703
      15       -0.000009592744     0.000004444982     0.000004514098
      16        0.000000136871    -0.000004788270     0.000009003153

  **** Optimization is complete! (in 6 steps) ****
    Final optimized geometry and variables:
    Molecular point group: c1

    Geometry (in Angstrom), charge = 0, multiplicity = 1:

    H            3.004539155733     0.684825658001     0.146685514417
    C            2.112803768247     0.046677566419     0.171223152772
    C            0.809256056407     0.781696193253     0.017469936174
    O            2.223676270853    -1.120434450702     0.323336817964
    C           -0.422333842518    -0.108943384187    -0.059275763834
    H            0.898486997235     1.416936093928    -0.861447697943
    H            0.743320912905     1.469901137376     0.859258281007
    C           -1.717575419182     0.687210191006    -0.191426435749
    H           -0.319933754134    -0.785976270227    -0.900638913886
    H           -0.463425865296    -0.734701584661     0.824988616265
    C           -2.954059488367    -0.201771405157    -0.266858466086
    H           -1.669594868453     1.312400997633    -1.079193786207
    H           -1.813084593870     1.364922452506     0.652900663526
    H           -2.904885984408    -0.867505714110    -1.121812729911
    H           -3.857247503675     0.390107623591    -0.359350804044
    H           -3.048983105106    -0.814973272410     0.622790811587

  Mulliken Charges: (a.u.)
   Center  Symbol    Alpha    Beta     Spin     Total
       1     H     0.45240  0.45240  0.00000  0.09520
       2     C     2.92146  2.92146  0.00000  0.15708
       3     C     3.09321  3.09321  0.00000 -0.18642
       4     O     4.16510  4.16510  0.00000 -0.33021
       5     C     3.08227  3.08227  0.00000 -0.16454
       6     H     0.44696  0.44696  0.00000  0.10609
       7     H     0.44680  0.44680  0.00000  0.10640
       8     C     3.08413  3.08413  0.00000 -0.16827
       9     H     0.44735  0.44735  0.00000  0.10530
      10     H     0.44516  0.44516  0.00000  0.10968
      11     C     3.14908  3.14908  0.00000 -0.29816
      12     H     0.45536  0.45536  0.00000  0.08928
      13     H     0.45514  0.45514  0.00000  0.08972
      14     H     0.45376  0.45376  0.00000  0.09247
      15     H     0.44826  0.44826  0.00000  0.10348
      16     H     0.45355  0.45355  0.00000  0.09291

   Total alpha = 24.00000, Total beta = 24.00000, Total charge = -0.00000

*** Psi4 exiting successfully. Buy a developer a beer!
