  ==> Input File <==

--------------------------------------------------------------------------
set {
	reference rhf
	basis 6-31G*
}

set_num_threads( 4 )
memory 2 gb

molecule MOL {
0 1

H	 2.573798	 2.047599	 1.184256
N	 1.745993	 1.488343	 1.109981
C	 1.865559	 0.531981	 0.018834
H	 0.984897	 2.118804	 0.942405
C	 0.645745	 -0.382037	 -0.029944
H	 2.754045	 -0.065231	 0.199908
H	 2.001343	 1.007572	 -0.955730
C	 -0.679275	 0.379305	 0.025956
H	 0.698998	 -0.976915	 -0.937203
H	 0.693479	 -1.083846	 0.802235
C	 -1.903357	 -0.536963	 -0.023547
H	 -0.726309	 1.082987	 -0.803784
H	 -0.717680	 0.977832	 0.934877
C	 -3.225172	 0.228290	 0.028445
H	 -1.867824	 -1.134999	 -0.931459
H	 -1.860449	 -1.239604	 0.805977
H	 -3.313397	 0.915643	 -0.808262
H	 -4.073500	 -0.448134	 -0.008893
H	 -3.306061	 0.809945	 0.942516

	symmetry c1
}
set optking {
	frozen_dihedral = ("
		6 3 5 9
	")
}

ee = optimize('scf')
oeprop('DIPOLE', 'QUADRUPOLE', 'MULLIKEN_CHARGES')
f=open( 'psi4out.xyz', 'w' )
f.write( "19  " )
f.write( str(ee) + "\n" )
f.write( MOL.save_string_xyz() )
f.close()
--------------------------------------------------------------------------

    Molecular point group: c1
  Charge       = 0
  Multiplicity = 1
  Basis Set: 6-31G*
  Basis Set:
  @DF-RHF Final Energy:  -251.34874014120163
    Total Energy =                       -251.3487401412016879
    Molecular point group: c1
  Basis Set: 6-31G*
  Basis Set:
  Basis Set: 6-31G*
  Basis Set:
  @DF-RHF Final Energy:  -251.34925804454198
    Total Energy =                       -251.3492580445420117
  Basis Set: 6-31G*
  Basis Set:
  Basis Set: 6-31G*
  Basis Set:
  @DF-RHF Final Energy:  -251.34990302423836
    Total Energy =                       -251.3499030242384151
  Basis Set: 6-31G*
  Basis Set:
  Basis Set: 6-31G*
  Basis Set:
  @DF-RHF Final Energy:  -251.34995778682793
    Total Energy =                       -251.3499577868279289
  Basis Set: 6-31G*
  Basis Set:
  Basis Set: 6-31G*
  Basis Set:
  @DF-RHF Final Energy:  -251.34995891925863
    Total Energy =                       -251.3499589192585972
  Basis Set: 6-31G*
  Basis Set:
  Basis Set: 6-31G*
  Basis Set:
  @DF-RHF Final Energy:  -251.34996223768147
    Total Energy =                       -251.3499622376814386
  Basis Set: 6-31G*
  Basis Set:
  Charge       = 0
  Multiplicity = 1
  Basis Set: 6-31G*
  Basis Set:

    Orbital Energies (a.u.)
    -----------------------

    Doubly Occupied:

       1A    -15.532241     2A    -11.240371     3A    -11.212801
       4A    -11.210428     5A    -11.208970     6A    -11.206657
       7A     -1.176528     8A     -1.069811     9A     -0.996130
      10A     -0.906146    11A     -0.813831    12A     -0.778278
      13A     -0.663406    14A     -0.652900    15A     -0.612626
      16A     -0.584557    17A     -0.559602    18A     -0.550590
      19A     -0.526934    20A     -0.499783    21A     -0.488139
      22A     -0.462441    23A     -0.460044    24A     -0.443916
      25A     -0.380478

  @DF-RHF Final Energy:  -251.34996316180073

   => Energetics <=

    Nuclear Repulsion Energy =            249.6470515156056820
    One-Electron Energy =                -833.5188122696570190
    Two-Electron Energy =                 332.5217975922506639
    DFT Exchange-Correlation Energy =       0.0000000000000000
    Empirical Dispersion Energy =           0.0000000000000000
    PCM Polarization Energy =               0.0000000000000000
    EFP Energy =                            0.0000000000000000
    Total Energy =                       -251.3499631618007015
    Molecular point group: c1
  Basis Set: 6-31G*
  Basis Set:

  -Total Gradient:
     Atom            X                  Y                   Z
    ------   -----------------  -----------------  -----------------
       1       -0.000001263978    -0.000007221285    -0.000005426265
       2       -0.000013164438    -0.000005524797    -0.000003382147
       3       -0.000035809715    -0.000026613119    -0.004730275721
       4       -0.000001168652    -0.000001038592     0.000001534703
       5        0.002219931631    -0.002938505554     0.002929485040
       6       -0.000305112811     0.000475279955     0.003547759236
       7        0.000000509716    -0.000004534936    -0.000003294606
       8        0.000004244611     0.000013633109    -0.000014764450
       9       -0.001871960558     0.002511358094    -0.001731034042
      10        0.000002456028    -0.000007275199     0.000002719747
      11       -0.000003977769    -0.000007750658     0.000011858281
      12        0.000001359592     0.000004565822    -0.000001315868
      13        0.000002804968    -0.000001727258    -0.000001546829
      14        0.000004460318    -0.000000980224    -0.000005368194
      15       -0.000004471588    -0.000001405265     0.000000684097
      16       -0.000000867575    -0.000001314194     0.000000885242
      17        0.000001301327     0.000002681427     0.000002537937
      18        0.000002010707    -0.000000188215    -0.000003369576
      19       -0.000001281812    -0.000003439109     0.000002313416

  **** Optimization is complete! (in 7 steps) ****
    Final optimized geometry and variables:
    Molecular point group: c1

    Geometry (in Angstrom), charge = 0, multiplicity = 1:

    H            2.961995875950     1.649967682510     0.983287564873
    N            2.073179104485     1.196188021515     0.898135092057
    C            2.100480481543     0.227349506034    -0.191686309808
    H            1.400054488172     1.916422627968     0.722956884713
    C            0.871579133268    -0.682571369413    -0.172626433874
    H            2.983302853871    -0.383320635036    -0.033861646927
    H            2.194696876710     0.693797266648    -1.174575723483
    C           -0.463938653248     0.066451872002    -0.141037224664
    H            0.891525159822    -1.293619400841    -1.073280190974
    H            0.932316993005    -1.347391788046     0.683807689185
    C           -1.671656989224    -0.867259507222    -0.244645302696
    H           -0.498323085658     0.784535239318    -0.961032547422
    H           -0.538735750594     0.638376009882     0.779611493949
    C           -3.006789846092    -0.125285911733    -0.195145648852
    H           -1.609740440947    -1.436954494412    -1.169466729174
    H           -1.632690177955    -1.593605645469     0.564236420205
    H           -3.089980182931     0.587582332759    -1.010925608745
    H           -3.843007178318    -0.813511051914    -0.271627748291
    H           -3.115193711276     0.424552447887     0.735497599888

  Mulliken Charges: (a.u.)
   Center  Symbol    Alpha    Beta     Spin     Total
       1     H     0.33209  0.33209  0.00000  0.33582
       2     N     3.92318  3.92318  0.00000 -0.84637
       3     C     3.06629  3.06629  0.00000 -0.13259
       4     H     0.33270  0.33270  0.00000  0.33460
       5     C     3.14599  3.14599  0.00000 -0.29198
       6     H     0.41923  0.41923  0.00000  0.16154
       7     H     0.43347  0.43347  0.00000  0.13305
       8     C     3.16020  3.16020  0.00000 -0.32039
       9     H     0.42599  0.42599  0.00000  0.14803
      10     H     0.41687  0.41687  0.00000  0.16625
      11     C     3.15054  3.15054  0.00000 -0.30107
      12     H     0.42850  0.42850  0.00000  0.14300
      13     H     0.41610  0.41610  0.00000  0.16779
      14     C     3.23922  3.23922  0.00000 -0.47844
      15     H     0.42396  0.42396  0.00000  0.15208
      16     H     0.42172  0.42172  0.00000  0.15657
      17     H     0.42284  0.42284  0.00000  0.15433
      18     H     0.41964  0.41964  0.00000  0.16073
      19     H     0.42147  0.42147  0.00000  0.15705

   Total alpha = 25.00000, Total beta = 25.00000, Total charge = -0.00000
