  ==> Input File <==

--------------------------------------------------------------------------
set {
	reference rhf
	basis cc-pvtz
}

set_num_threads( 4 )
memory 2 gb

molecule MOL {
0 1

H	 1.651322	 -0.822465	 0.000000
O	 0.729993	 -1.034364	 0.000000
C	 0.037305	 0.100061	 0.000000
C	 -1.441964	 -0.144562	 0.000000
O	 0.559332	 1.160383	 0.000000
H	 -1.712516	 -0.722838	 -0.873995
H	 -1.963806	 0.797991	 0.000000
H	 -1.712516	 -0.722838	 0.873995

	symmetry c1
}
set optking {
	frozen_dihedral = ("
		4 3 2 1
	")
}

ee = optimize('scf')
oeprop('DIPOLE', 'QUADRUPOLE', 'MULLIKEN_CHARGES')
f=open( 'psi4out.xyz', 'w' )
f.write( "8  " )
f.write( str(ee) + "\n" )
f.write( MOL.save_string_xyz() )
f.close()
--------------------------------------------------------------------------

    Molecular point group: c1
  Charge       = 0
  Multiplicity = 1
  Basis Set: CC-PVTZ
  Basis Set:

    Orbital Energies (a.u.)
    -----------------------

    Doubly Occupied:

       1A    -20.607074     2A    -20.542309     3A    -11.378405
       4A    -11.239251     5A     -1.480361     6A     -1.371695
       7A     -1.028539     8A     -0.834786     9A     -0.707026
      10A     -0.686382    11A     -0.657649    12A     -0.584766
      13A     -0.574064    14A     -0.563588    15A     -0.485940
      16A     -0.452487

  @DF-RHF Final Energy:  -227.90470989530166

   => Energetics <=

    Nuclear Repulsion Energy =            122.7987284805805785
    One-Electron Energy =                -555.0182308124230985
    Two-Electron Energy =                 204.3147924365408130
    DFT Exchange-Correlation Energy =       0.0000000000000000
    Empirical Dispersion Energy =           0.0000000000000000
    PCM Polarization Energy =               0.0000000000000000
    EFP Energy =                            0.0000000000000000
    Total Energy =                       -227.9047098953017212
    Molecular point group: c1
  Basis Set: CC-PVTZ
  Basis Set:

  -Total Gradient:
     Atom            X                  Y                   Z
    ------   -----------------  -----------------  -----------------
       1       -0.000126815985     0.000006555639    -0.000000000000
       2        0.000023606964     0.000022657852     0.000000000002
       3       -0.000039007967    -0.000245673769    -0.000000000002
       4        0.000067241415     0.000026043394    -0.000000000050
       5        0.000046552643     0.000222931103     0.000000000001
       6       -0.000009075305     0.000002743740     0.000002418563
       7        0.000046573556    -0.000038001675     0.000000000002
       8       -0.000009075321     0.000002743714    -0.000002418516

  **** Optimization is complete! (in 1 steps) ****
    Final optimized geometry and variables:
    Molecular point group: c1

    Geometry (in Angstrom), charge = 0, multiplicity = 1:

    H            1.651322448021    -0.822464952926     0.000000000000
    O            0.729993448021    -1.034363952926     0.000000000000
    C            0.037305448021     0.100061047074     0.000000000000
    C           -1.441963551979    -0.144561952926     0.000000000000
    O            0.559332448021     1.160383047074     0.000000000000
    H           -1.712515551979    -0.722837952926    -0.873995000000
    H           -1.963805551979     0.797991047074     0.000000000000
    H           -1.712515551979    -0.722837952926     0.873995000000

  Mulliken Charges: (a.u.)
   Center  Symbol    Alpha    Beta     Spin     Total
       1     H     0.38080  0.38080  0.00000  0.23841
       2     O     4.16075  4.16075  0.00000 -0.32151
       3     C     2.80234  2.80234  0.00000  0.39533
       4     C     3.14019  3.14019  0.00000 -0.28038
       5     O     4.19099  4.19099  0.00000 -0.38197
       6     H     0.44393  0.44393  0.00000  0.11214
       7     H     0.43708  0.43708  0.00000  0.12584
       8     H     0.44393  0.44393  0.00000  0.11214

   Total alpha = 16.00000, Total beta = 16.00000, Total charge = -0.00000
