  ==> Input File <==

--------------------------------------------------------------------------
set {
	reference rhf
	basis cc-pvtz
}

set_num_threads( 4 )
memory 2 gb

molecule MOL {
0 1

H	 -2.698799	 -0.000846	 0.036018
C	 -1.694291	 -0.000483	 0.434279
O	 -0.828718	 -0.000608	 -0.655022
H	 -1.576855	 0.881100	 1.056504
H	 -1.576401	 -0.881658	 1.057001
C	 0.557892	 0.000078	 -0.420099
C	 0.900735	 0.101667	 1.061930
C	 1.267640	 -1.165412	 -1.099909
H	 0.889530	 0.912988	 -0.898880
H	 0.351606	 0.914535	 1.521015
H	 1.960215	 0.296492	 1.181478
H	 0.674508	 -0.812327	 1.598604
H	 0.973027	 -1.231216	 -2.140062
H	 2.340477	 -1.016722	 -1.058862
H	 1.051059	 -2.113019	 -0.620666

	symmetry c1
}
set optking {
	frozen_dihedral = ("
		9 6 3 2
	")
}

ee = optimize('scf')
oeprop('DIPOLE', 'QUADRUPOLE', 'MULLIKEN_CHARGES')
f=open( 'psi4out.xyz', 'w' )
f.write( "15  " )
f.write( str(ee) + "\n" )
f.write( MOL.save_string_xyz() )
f.close()
--------------------------------------------------------------------------

    Molecular point group: c1
  Charge       = 0
  Multiplicity = 1
  Basis Set: CC-PVTZ
  Basis Set:
  @DF-RHF Final Energy:  -232.21779081761372
    Total Energy =                       -232.2177908176138885
    Molecular point group: c1
  Basis Set: CC-PVTZ
  Basis Set:
  Basis Set: CC-PVTZ
  Basis Set:
  @DF-RHF Final Energy:  -232.21840324161127
    Total Energy =                       -232.2184032416112132
  Basis Set: CC-PVTZ
  Basis Set:
  Basis Set: CC-PVTZ
  Basis Set:
  @DF-RHF Final Energy:  -232.22147599517007
    Total Energy =                       -232.2214759951699534
  Basis Set: CC-PVTZ
  Basis Set:
  Basis Set: CC-PVTZ
  Basis Set:
  @DF-RHF Final Energy:  -232.22180427700235
    Total Energy =                       -232.2218042770020929
  Basis Set: CC-PVTZ
  Basis Set:
  Basis Set: CC-PVTZ
  Basis Set:
  @DF-RHF Final Energy:  -232.22182955045011
    Total Energy =                       -232.2218295504500247
  Basis Set: CC-PVTZ
  Basis Set:
  Basis Set: CC-PVTZ
  Basis Set:
  @DF-RHF Final Energy:  -232.22183814985434
    Total Energy =                       -232.2218381498544204
  Basis Set: CC-PVTZ
  Basis Set:
  Basis Set: CC-PVTZ
  Basis Set:
  @DF-RHF Final Energy:  -232.22183941541007
    Total Energy =                       -232.2218394154098178
  Basis Set: CC-PVTZ
  Basis Set:
  Charge       = 0
  Multiplicity = 1
  Basis Set: CC-PVTZ
  Basis Set:

    Orbital Energies (a.u.)
    -----------------------

    Doubly Occupied:

       1A    -20.538650     2A    -11.273280     3A    -11.259844
       4A    -11.213541     5A    -11.203489     6A     -1.369331
       7A     -1.053984     8A     -0.949446     9A     -0.917266
      10A     -0.782462    11A     -0.676744    12A     -0.643763
      13A     -0.631975    14A     -0.585835    15A     -0.554092
      16A     -0.541723    17A     -0.533636    18A     -0.507821
      19A     -0.493213    20A     -0.448730    21A     -0.400655

  @DF-RHF Final Energy:  -232.22183956102785

   => Energetics <=

    Nuclear Repulsion Energy =            198.1160535088306176
    One-Electron Energy =                -707.5168342299851929
    Two-Electron Energy =                 277.1789411601266693
    DFT Exchange-Correlation Energy =       0.0000000000000000
    Empirical Dispersion Energy =           0.0000000000000000
    PCM Polarization Energy =               0.0000000000000000
    EFP Energy =                            0.0000000000000000
    Total Energy =                       -232.2218395610278776
    Molecular point group: c1
  Basis Set: CC-PVTZ
  Basis Set:

  -Total Gradient:
     Atom            X                  Y                   Z
    ------   -----------------  -----------------  -----------------
       1        0.000000131491     0.000003615582    -0.000002469107
       2        0.000003751595    -0.000461351088     0.000012962908
       3       -0.000009870646     0.000658760072    -0.000101703039
       4       -0.000003541930    -0.000010167871    -0.000008244245
       5        0.000001359920    -0.000005326888     0.000001553388
       6       -0.000123172770     0.000083391915     0.000538743645
       7        0.000016065846     0.000004765241     0.000006120065
       8        0.000005765625     0.000001112241    -0.000001529235
       9        0.000098286547    -0.000276257473    -0.000449945494
      10        0.000004850308    -0.000000332295     0.000002813389
      11        0.000001113369    -0.000000125112     0.000001299431
      12        0.000002415376     0.000003518453    -0.000003278553
      13        0.000001339951     0.000004221235     0.000003877263
      14        0.000003157557    -0.000002736582     0.000002222493
      15       -0.000001652240    -0.000003087430    -0.000002422911

  **** Optimization is complete! (in 8 steps) ****
    Final optimized geometry and variables:
    Molecular point group: c1

    Geometry (in Angstrom), charge = 0, multiplicity = 1:

    H           -2.739615987870     0.078143206418     0.047794234639
    C           -1.767201560901     0.169103188474     0.510717876358
    O           -0.837953266459     0.186698949467    -0.522585220192
    H           -1.757096947146     1.082943917218     1.096998918189
    H           -1.632720307870    -0.674017340663     1.180893892482
    C            0.550860506732     0.256876686661    -0.273047335602
    C            0.955492069581     0.332547226701     1.194138478127
    C            1.202578790107    -0.927020097900    -0.971205849776
    H            0.896246589300     1.166673323766    -0.756072662901
    H            0.516778361913     1.185634730860     1.694805366793
    H            2.032005792509     0.439381181114     1.249316866151
    H            0.685288314322    -0.564325233076     1.738479232165
    H            0.903083228197    -0.955062130826    -2.010745273350
    H            2.283963376183    -0.857499631532    -0.925460731648
    H            0.897978546231    -1.858702596882    -0.506526193052

  Mulliken Charges: (a.u.)
   Center  Symbol    Alpha    Beta     Spin     Total
       1     H     0.44194  0.44194  0.00000  0.11612
       2     C     3.03694  3.03694  0.00000 -0.07388
       3     O     4.18959  4.18959  0.00000 -0.37918
       4     H     0.46962  0.46962  0.00000  0.06076
       5     H     0.47109  0.47109  0.00000  0.05783
       6     C     2.92231  2.92231  0.00000  0.15538
       7     C     3.17215  3.17215  0.00000 -0.34431
       8     C     3.13893  3.13893  0.00000 -0.27785
       9     H     0.45552  0.45552  0.00000  0.08897
      10     H     0.44478  0.44478  0.00000  0.11044
      11     H     0.44316  0.44316  0.00000  0.11369
      12     H     0.45069  0.45069  0.00000  0.09863
      13     H     0.44602  0.44602  0.00000  0.10796
      14     H     0.45932  0.45932  0.00000  0.08136
      15     H     0.45795  0.45795  0.00000  0.08410

   Total alpha = 21.00000, Total beta = 21.00000, Total charge = -0.00000
