  ==> Input File <==

--------------------------------------------------------------------------
set {
	reference rhf
	basis cc-pvtz
}

set_num_threads( 4 )
memory 2 gb

molecule MOL {
0 1

H	 -2.352892	 -0.381508	 -0.219023
O	 -1.432053	 -0.565244	 -0.200812
C	 -0.727158	 0.534527	 0.310686
C	 0.680222	 0.664433	 -0.252229
H	 -1.306802	 1.408001	 0.044211
H	 -0.690821	 0.490158	 1.397609
C	 1.605391	 -0.489360	 0.123098
H	 0.615089	 0.745647	 -1.332226
H	 1.101414	 1.597893	 0.110950
H	 1.247627	 -1.432485	 -0.275204
H	 2.601435	 -0.332816	 -0.273062
H	 1.691776	 -0.589902	 1.200774

	symmetry c1
}
set optking {
	frozen_dihedral = ("
		1 2 3 4
	")
}

ee = optimize('scf')
oeprop('DIPOLE', 'QUADRUPOLE', 'MULLIKEN_CHARGES')
f=open( 'psi4out.xyz', 'w' )
f.write( "12  " )
f.write( str(ee) + "\n" )
f.write( MOL.save_string_xyz() )
f.close()
--------------------------------------------------------------------------

    Molecular point group: c1
  Charge       = 0
  Multiplicity = 1
  Basis Set: CC-PVTZ
  Basis Set:
  @DF-RHF Final Energy:  -193.18880025038214
    Total Energy =                       -193.1888002503820871
    Molecular point group: c1
  Basis Set: CC-PVTZ
  Basis Set:
  Basis Set: CC-PVTZ
  Basis Set:
  @DF-RHF Final Energy:  -193.19006123111899
    Total Energy =                       -193.1900612311191026
  Basis Set: CC-PVTZ
  Basis Set:
  Basis Set: CC-PVTZ
  Basis Set:
  @DF-RHF Final Energy:  -193.19039541861972
    Total Energy =                       -193.1903954186198007
  Basis Set: CC-PVTZ
  Basis Set:
  Basis Set: CC-PVTZ
  Basis Set:
  @DF-RHF Final Energy:  -193.19039987495469
    Total Energy =                       -193.1903998749546929
  Basis Set: CC-PVTZ
  Basis Set:
  Charge       = 0
  Multiplicity = 1
  Basis Set: CC-PVTZ
  Basis Set:

    Orbital Energies (a.u.)
    -----------------------

    Doubly Occupied:

       1A    -20.545753     2A    -11.266306     3A    -11.212764
       4A    -11.201071     5A     -1.363688     6A     -1.047806
       7A     -0.919060     8A     -0.800006     9A     -0.706955
      10A     -0.643792    11A     -0.589469    12A     -0.575104
      13A     -0.541979    14A     -0.501388    15A     -0.480811
      16A     -0.465375    17A     -0.434830

  @DF-RHF Final Energy:  -193.19040048093481

   => Energetics <=

    Nuclear Repulsion Energy =            133.3567872309709799
    One-Electron Energy =                -526.5020623859749094
    Two-Electron Energy =                 199.9548746740692593
    DFT Exchange-Correlation Energy =       0.0000000000000000
    Empirical Dispersion Energy =           0.0000000000000000
    PCM Polarization Energy =               0.0000000000000000
    EFP Energy =                            0.0000000000000000
    Total Energy =                       -193.1904004809346418
    Molecular point group: c1
  Basis Set: CC-PVTZ
  Basis Set:

  -Total Gradient:
     Atom            X                  Y                   Z
    ------   -----------------  -----------------  -----------------
       1        0.000169893656     0.000573768674    -0.001472738198
       2       -0.000330775869    -0.000494103604     0.001545359921
       3        0.000507073636    -0.000627424211     0.000658883801
       4       -0.000338990939     0.000513503820    -0.000732882475
       5        0.000011421099     0.000005545793    -0.000002561450
       6        0.000016319195     0.000004237159    -0.000005614964
       7       -0.000014797862     0.000010938872     0.000003873681
       8       -0.000013047853    -0.000000971636     0.000001596787
       9        0.000000853759     0.000016461900    -0.000002882684
      10       -0.000001316682    -0.000003854241    -0.000001311466
      11       -0.000012590165     0.000011378646     0.000002747856
      12        0.000005958024    -0.000009481174     0.000005529191

  **** Optimization is complete! (in 5 steps) ****
    Final optimized geometry and variables:
    Molecular point group: c1

    Geometry (in Angstrom), charge = 0, multiplicity = 1:

    H           -2.272627926450    -0.473418692724    -0.252669176708
    O           -1.345216363040    -0.603745556099    -0.198458223816
    C           -0.720469697281     0.542205801922     0.323521705875
    C            0.682218148800     0.660992325797    -0.242164654938
    H           -1.287185316959     1.432493819840     0.066206903066
    H           -0.681837180509     0.480977032807     1.408928240961
    C            1.585119422201    -0.511841001517     0.125555957438
    H            0.611378828624     0.747269570327    -1.321424404913
    H            1.115602144308     1.587808154730     0.123490993169
    H            1.174605033919    -1.444555359961    -0.237792493423
    H            2.572978649906    -0.387237095601    -0.302650541656
    H            1.698354879369    -0.593328187713     1.201908765894

  Mulliken Charges: (a.u.)
   Center  Symbol    Alpha    Beta     Spin     Total
       1     H     0.39266  0.39266  0.00000  0.21467
       2     O     4.20223  4.20223  0.00000 -0.40446
       3     C     2.96851  2.96851  0.00000  0.06299
       4     C     3.07916  3.07916  0.00000 -0.15833
       5     H     0.46786  0.46786  0.00000  0.06428
       6     H     0.47381  0.47381  0.00000  0.05237
       7     C     3.14885  3.14885  0.00000 -0.29771
       8     H     0.45537  0.45537  0.00000  0.08926
       9     H     0.45688  0.45688  0.00000  0.08625
      10     H     0.44515  0.44515  0.00000  0.10970
      11     H     0.45107  0.45107  0.00000  0.09787
      12     H     0.45845  0.45845  0.00000  0.08310

   Total alpha = 17.00000, Total beta = 17.00000, Total charge =  0.00000
