                              Psi4 1.0.54 Driver

  ==> Input File <==

--------------------------------------------------------------------------
set {
	reference rhf
	basis cc-pvtz
}

set_num_threads( 4 )
memory 2 gb

molecule MOL {
0 1

H	 -1.753294	 -0.944400	 0.238727
O	 -2.041679	 -0.058866	 0.103463
C	 -0.959304	 0.780994	 -0.094939
C	 0.354905	 0.037902	 -0.006215
H	 -0.985899	 1.279578	 -1.057596
H	 -0.969809	 1.529522	 0.682889
F	 0.412060	 -0.931028	 -0.902708
F	 1.359641	 0.856111	 -0.239961
F	 0.545380	 -0.506387	 1.171682

	symmetry c1
}
set optking {
	frozen_dihedral = ("
		1 2 3 5
	")
}

ee,wfn = optimize('scf', return_wfn=True)
oeprop( wfn, 'DIPOLE', 'QUADRUPOLE', 'MULLIKEN_CHARGES')
f=open( 'psi4out.xyz', 'w' )
f.write( "9  " )
f.write( str(ee) + "\n" )
f.write( MOL.save_string_xyz() )
f.close()
--------------------------------------------------------------------------

    Molecular point group: c1
  Charge       = 0
  Multiplicity = 1
  Basis Set: CC-PVTZ
  Basis Set:
  @DF-RHF Final Energy:  -450.84260477013953
    Total Energy =                       -450.8426047701395305
    Molecular point group: c1
  Basis Set: CC-PVTZ
  Basis Set:
  Basis Set: CC-PVTZ
  Basis Set:
  @DF-RHF Final Energy:  -450.84104730692042
    Total Energy =                       -450.8410473069204727
  Basis Set: CC-PVTZ
  Basis Set:
  Basis Set: CC-PVTZ
  Basis Set:
  @DF-RHF Final Energy:  -450.84328764707129
    Total Energy =                       -450.8432876470714064
  Basis Set: CC-PVTZ
  Basis Set:
  Basis Set: CC-PVTZ
  Basis Set:
  @DF-RHF Final Energy:  -450.84336273697596
    Total Energy =                       -450.8433627369760757
  Basis Set: CC-PVTZ
  Basis Set:
  Basis Set: CC-PVTZ
  Basis Set:
  @DF-RHF Final Energy:  -450.84336900184479
    Total Energy =                       -450.8433690018446782
  Basis Set: CC-PVTZ
  Basis Set:
  Charge       = 0
  Multiplicity = 1
  Basis Set: CC-PVTZ
  Basis Set:

    Orbital Energies (a.u.)
    -----------------------

    Doubly Occupied:

       1A    -26.346450     2A    -26.344872     3A    -26.344744
       4A    -20.580538     5A    -11.502153     6A    -11.310037
       7A     -1.755259     8A     -1.652641     9A     -1.649424
      10A     -1.403275    11A     -1.054372    12A     -0.935271
      13A     -0.844390    14A     -0.843950    15A     -0.821935
      16A     -0.726890    17A     -0.726708    18A     -0.683203
      19A     -0.681138    20A     -0.677667    21A     -0.656604
      22A     -0.647895    23A     -0.625655    24A     -0.528152
      25A     -0.481385

  @DF-RHF Final Energy:  -450.84337003317495

   => Energetics <=

    Nuclear Repulsion Energy =            277.9632427906371390
    One-Electron Energy =               -1177.9640060099427501
    Two-Electron Energy =                 449.1573931861307756
    DFT Exchange-Correlation Energy =       0.0000000000000000
    Empirical Dispersion Energy =           0.0000000000000000
    PCM Polarization Energy =               0.0000000000000000
    EFP Energy =                            0.0000000000000000
    Total Energy =                       -450.8433700331747787
    Molecular point group: c1
  Basis Set: CC-PVTZ
  Basis Set:

  -Total Gradient:
     Atom            X                  Y                   Z
    ------   -----------------  -----------------  -----------------
       1        0.000018451168    -0.000026479689     0.000005936206
       2       -0.000015452414     0.000008841818     0.000022184008
       3       -0.000014182056    -0.000000662579    -0.000043997534
       4        0.000032197121     0.000016846795     0.000217028840
       5        0.000033217928     0.000011206675    -0.000003353233
       6        0.000002533461     0.000007433231     0.000027567267
       7       -0.000007378148    -0.000100984437    -0.000118364992
       8       -0.000007292384     0.000007790363     0.000002683929
       9       -0.000042094682     0.000076007823    -0.000109684490

  **** Optimization is complete! (in 6 steps) ****
    Final optimized geometry and variables:
    Molecular point group: c1

    Geometry (in Angstrom), charge = 0, multiplicity = 1:

    H           -1.795005545948    -0.933183596791     0.380330293269
    O           -2.027040208804    -0.022109073272     0.385852117757
    C           -0.934840690185     0.801528350254     0.143341681499
    C            0.349946859175     0.037993040422    -0.067948107014
    H           -1.104830003635     1.394797662726    -0.745850128797
    H           -0.777199992304     1.468202621347     0.981377567801
    F            0.266136774112    -0.783620045398    -1.095904497470
    F            1.344504407697     0.864893800691    -0.291806090328
    F            0.660437550260    -0.695301227812     0.982567517555

  Mulliken Charges: (a.u.)
   Center  Symbol    Alpha    Beta     Spin     Total
       1     H     0.38654  0.38654  0.00000  0.22691
       2     O     4.19579  4.19579  0.00000 -0.39159
       3     C     2.96811  2.96811  0.00000  0.06378
       4     C     2.69017  2.69017  0.00000  0.61966
       5     H     0.46240  0.46240  0.00000  0.07520
       6     H     0.46240  0.46240  0.00000  0.07519
       7     F     4.61372  4.61372  0.00000 -0.22744
       8     F     4.60730  4.60730  0.00000 -0.21461
       9     F     4.61355  4.61355  0.00000 -0.22711

   Total alpha = 25.00000, Total beta = 25.00000, Total charge =  0.00000

*** Psi4 exiting successfully. Buy a developer a beer!
