  ==> Input File <==

--------------------------------------------------------------------------
set {
	reference rhf
	basis 6-31G*
}

set_num_threads( 4 )
memory 2 gb

molecule MOL {
0 1

H	 -3.135461	 -1.215070	 0.001379
O	 -2.310168	 -0.871793	 -0.309793
C	 -2.026376	 0.340750	 0.341611
C	 -0.673256	 0.843270	 -0.132153
H	 -2.792215	 1.080697	 0.115987
H	 -2.013526	 0.200402	 1.421792
C	 0.486613	 -0.083066	 0.235839
H	 -0.715586	 0.970948	 -1.210718
H	 -0.508072	 1.829858	 0.297090
C	 1.517897	 0.585994	 1.146128
H	 0.970209	 -0.425734	 -0.673132
H	 0.093498	 -0.970230	 0.731058
C	 2.673992	 -0.341562	 1.518632
H	 1.911953	 1.471799	 0.652381
H	 1.029249	 0.935044	 2.053780
H	 3.204467	 -0.680107	 0.633266
H	 3.390317	 0.159998	 2.162262
H	 2.316239	 -1.222102	 2.045103

	symmetry c1
}
set optking {
	frozen_dihedral = ("
		10 7 4 8
	")
}

ee = optimize('scf')
oeprop('DIPOLE', 'QUADRUPOLE', 'MULLIKEN_CHARGES')
f=open( 'psi4out.xyz', 'w' )
f.write( "18  " )
f.write( str(ee) + "\n" )
f.write( MOL.save_string_xyz() )
f.close()
--------------------------------------------------------------------------

    Molecular point group: c1
  Charge       = 0
  Multiplicity = 1
  Basis Set: 6-31G*
  Basis Set:
  @DF-RHF Final Energy:  -271.17459072904347
    Total Energy =                       -271.1745907290434729
    Molecular point group: c1
  Basis Set: 6-31G*
  Basis Set:
  Basis Set: 6-31G*
  Basis Set:
  @DF-RHF Final Energy:  -271.17481696670131
    Total Energy =                       -271.1748169667009734
  Basis Set: 6-31G*
  Basis Set:
  Basis Set: 6-31G*
  Basis Set:
  @DF-RHF Final Energy:  -271.17488358771561
    Total Energy =                       -271.1748835877156694
  Basis Set: 6-31G*
  Basis Set:
  Charge       = 0
  Multiplicity = 1
  Basis Set: 6-31G*
  Basis Set:

    Orbital Energies (a.u.)
    -----------------------

    Doubly Occupied:

       1A    -20.552976     2A    -11.268113     3A    -11.212214
       4A    -11.211658     5A    -11.206773     6A    -11.205298
       7A     -1.359850     8A     -1.073405     9A     -1.008242
      10A     -0.912862    11A     -0.821612    12A     -0.782530
      13A     -0.701977    14A     -0.650795    15A     -0.617915
      16A     -0.578288    17A     -0.570368    18A     -0.557740
      19A     -0.523778    20A     -0.506680    21A     -0.483690
      22A     -0.468154    23A     -0.454826    24A     -0.449284
      25A     -0.428361

  @DF-RHF Final Energy:  -271.17488365196584

   => Energetics <=

    Nuclear Repulsion Energy =            249.5755921739449548
    One-Electron Energy =                -862.2861717911596315
    Two-Electron Energy =                 341.5356959652487490
    DFT Exchange-Correlation Energy =       0.0000000000000000
    Empirical Dispersion Energy =           0.0000000000000000
    PCM Polarization Energy =               0.0000000000000000
    EFP Energy =                            0.0000000000000000
    Total Energy =                       -271.1748836519658994
    Molecular point group: c1
  Basis Set: 6-31G*
  Basis Set:

  -Total Gradient:
     Atom            X                  Y                   Z
    ------   -----------------  -----------------  -----------------
       1        0.000008469018     0.000023946284     0.000020290855
       2        0.000133726049    -0.000026237502     0.000050186511
       3       -0.000125804604     0.000083170952    -0.000110691663
       4       -0.000201057333    -0.000295099069    -0.000000297526
       5       -0.000014688491     0.000028213864     0.000013792771
       6        0.000021109304    -0.000019814782    -0.000025734014
       7       -0.000087569385    -0.000010794039     0.000182208823
       8        0.000144462962     0.000208881750     0.000049827501
       9        0.000000328436    -0.000011628920     0.000015009735
      10        0.000128841033     0.000064793686    -0.000187102539
      11        0.000025167520     0.000003505532    -0.000012376477
      12       -0.000005235488    -0.000019175038     0.000000708184
      13       -0.000014458784    -0.000026542961     0.000028747696
      14       -0.000006036876    -0.000018042612    -0.000019582143
      15       -0.000013072631     0.000017474357    -0.000013935050
      16       -0.000003878969     0.000010611514     0.000004253745
      17       -0.000002156789    -0.000003381452     0.000010739262
      18        0.000011855031    -0.000009881559    -0.000006045669

  **** Optimization is complete! (in 4 steps) ****
    Final optimized geometry and variables:
    Molecular point group: c1

    Geometry (in Angstrom), charge = 0, multiplicity = 1:

    H           -3.018337611835    -1.277455854279    -0.448999050126
    O           -2.204220801659    -0.919714228900    -0.773176537929
    C           -1.927406505912     0.294193271997    -0.122139379911
    C           -0.576308922740     0.798402331533    -0.598171720360
    H           -2.697112173815     1.030692387735    -0.346260890086
    H           -1.911313504421     0.153143505087     0.958192810237
    C            0.598525052649    -0.130771825070    -0.223645422434
    H           -0.629356395379     0.930692351829    -1.673938621291
    H           -0.421501140136     1.787974625729    -0.173839283620
    C            1.634349495363     0.534603733756     0.685845593870
    H            1.093413742491    -0.478697395473    -1.125709954745
    H            0.214670236862    -1.023279196749     0.261478063865
    C            2.784953145608    -0.397685867643     1.061421851908
    H            2.032084882765     1.419117292932     0.192251816724
    H            1.144936536445     0.887204309180     1.592252217188
    H            3.316285729735    -0.739080843819     0.177462579301
    H            3.502192564561     0.100402415002     1.706744287342
    H            2.421516788145    -1.276709893932     1.586353221772

  Mulliken Charges: (a.u.)
   Center  Symbol    Alpha    Beta     Spin     Total
       1     H     0.28081  0.28081  0.00000  0.43838
       2     O     4.36896  4.36896  0.00000 -0.73793
       3     C     2.99991  2.99991  0.00000  0.00017
       4     C     3.16242  3.16242  0.00000 -0.32485
       5     H     0.42971  0.42971  0.00000  0.14058
       6     H     0.43314  0.43314  0.00000  0.13372
       7     C     3.15302  3.15302  0.00000 -0.30603
       8     H     0.41212  0.41212  0.00000  0.17576
       9     H     0.42141  0.42141  0.00000  0.15717
      10     C     3.15433  3.15433  0.00000 -0.30865
      11     H     0.41884  0.41884  0.00000  0.16231
      12     H     0.41295  0.41295  0.00000  0.17411
      13     C     3.23949  3.23949  0.00000 -0.47899
      14     H     0.42364  0.42364  0.00000  0.15271
      15     H     0.42578  0.42578  0.00000  0.14844
      16     H     0.42133  0.42133  0.00000  0.15735
      17     H     0.42038  0.42038  0.00000  0.15924
      18     H     0.42175  0.42175  0.00000  0.15649

   Total alpha = 25.00000, Total beta = 25.00000, Total charge = -0.00000
