                              Psi4 1.0.54 Driver

  ==> Input File <==

--------------------------------------------------------------------------
set {
	reference rhf
	basis cc-pvtz
}

set_num_threads( 4 )
memory 2 gb

molecule MOL {
0 1

H	 2.614283	 2.028610	 0.296620
O	 3.358864	 1.662087	 -0.142800
C	 3.565468	 0.338079	 0.273842
C	 5.024817	 -0.090023	 0.232448
H	 3.202636	 0.288675	 1.291630
H	 2.958955	 -0.344942	 -0.317830
C	 5.623251	 -0.143322	 -1.171434
H	 5.602186	 0.590923	 0.850603
H	 5.097853	 -1.072764	 0.692103
C	 7.078743	 -0.608463	 -1.176298
H	 5.556300	 0.838863	 -1.627320
H	 5.031720	 -0.816403	 -1.789772
C	 7.706909	 -0.751480	 -2.563817
H	 7.675163	 0.079156	 -0.581581
H	 7.135373	 -1.569801	 -0.673216
C	 7.897705	 0.558991	 -3.325397
H	 8.675973	 -1.229859	 -2.451581
H	 7.103599	 -1.430537	 -3.162192
C	 8.617149	 0.375400	 -4.659228
H	 8.462876	 1.253130	 -2.707156
H	 6.935807	 1.028332	 -3.508356
C	 8.805962	 1.681333	 -5.423938
H	 9.586902	 -0.082147	 -4.483712
H	 8.058197	 -0.324381	 -5.274809
H	 9.389386	 2.391598	 -4.847414
H	 9.321357	 1.515904	 -6.363144
H	 7.851217	 2.145461	 -5.648436

	symmetry c1
}
set optking {
	frozen_dihedral = ("
		4 3 2 1
	")
}

ee,wfn = optimize('scf', return_wfn=True)
oeprop( wfn, 'DIPOLE', 'QUADRUPOLE', 'MULLIKEN_CHARGES')
f=open( 'psi4out.xyz', 'w' )
f.write( "27  " )
f.write( str(ee) + "\n" )
f.write( MOL.save_string_xyz() )
f.close()
--------------------------------------------------------------------------

    Molecular point group: c1
  Charge       = 0
  Multiplicity = 1
  Basis Set: CC-PVTZ
  Basis Set:
  @DF-RHF Final Energy:  -388.42605134938805
    Total Energy =                       -388.4260513493877625
    Molecular point group: c1
  Basis Set: CC-PVTZ
  Basis Set:
  Basis Set: CC-PVTZ
  Basis Set:
  @DF-RHF Final Energy:  -388.32982524711014
    Total Energy =                       -388.3298252471100795
  Basis Set: CC-PVTZ
  Basis Set:
  Basis Set: CC-PVTZ
  Basis Set:
  @DF-RHF Final Energy:  -388.41182627666734
    Total Energy =                       -388.4118262766673979
  Basis Set: CC-PVTZ
  Basis Set:
  Basis Set: CC-PVTZ
  Basis Set:
  @DF-RHF Final Energy:  -388.42733736509132
    Total Energy =                       -388.4273373650917165
  Basis Set: CC-PVTZ
  Basis Set:
  @DF-RHF Final Energy:  -388.42762083811687
    Total Energy =                       -388.4276208381168090
  Basis Set: CC-PVTZ
  Basis Set:
  @DF-RHF Final Energy:  -388.42767117708769
    Total Energy =                       -388.4276711770876318
  Basis Set: CC-PVTZ
  Basis Set:
  Basis Set: CC-PVTZ
  Basis Set:
  @DF-RHF Final Energy:  -388.42766506500340
    Total Energy =                       -388.4276650650033389
  Basis Set: CC-PVTZ
  Basis Set:
  Basis Set: CC-PVTZ
  Basis Set:
  @DF-RHF Final Energy:  -388.42767686524491
    Total Energy =                       -388.4276768652447345
  Basis Set: CC-PVTZ
  Basis Set:
  Charge       = 0
  Multiplicity = 1
  Basis Set: CC-PVTZ
  Basis Set:

    Orbital Energies (a.u.)
    -----------------------

    Doubly Occupied:

       1A    -20.545643     2A    -11.265967     3A    -11.209935
       4A    -11.208169     5A    -11.206810     6A    -11.206153
       7A    -11.204546     8A    -11.203712     9A    -11.202181
      10A     -1.363304    11A     -1.088935    12A     -1.057162
      13A     -1.008611    14A     -0.943562    15A     -0.879943
      16A     -0.811611    17A     -0.794974    18A     -0.771341
      19A     -0.705793    20A     -0.646593    21A     -0.640465
      22A     -0.612573    23A     -0.588189    24A     -0.581769
      25A     -0.569884    26A     -0.545840    27A     -0.538497
      28A     -0.520294    29A     -0.504547    30A     -0.497164
      31A     -0.476162    32A     -0.470396    33A     -0.460128
      34A     -0.453585    35A     -0.442763    36A     -0.432312
      37A     -0.430704

  @DF-RHF Final Energy:  -388.42767702779969

   => Energetics <=

    Nuclear Repulsion Energy =            460.5651321731649546
    One-Electron Energy =               -1439.8051741547697020
    Two-Electron Energy =                 590.8123649538058544
    DFT Exchange-Correlation Energy =       0.0000000000000000
    Empirical Dispersion Energy =           0.0000000000000000
    PCM Polarization Energy =               0.0000000000000000
    EFP Energy =                            0.0000000000000000
    Total Energy =                       -388.4276770277988362
    Molecular point group: c1
  Basis Set: CC-PVTZ
  Basis Set:

  -Total Gradient:
     Atom            X                  Y                   Z
    ------   -----------------  -----------------  -----------------
       1        0.000764515333     0.000885102738     0.001041018287
       2       -0.000945395381    -0.000935425313    -0.000957171654
       3        0.000097727158    -0.000295639088    -0.000992956516
       4        0.000072616111     0.000354703191     0.000892267655
       5       -0.000001946549     0.000003602927    -0.000004106637
       6       -0.000001783822    -0.000018477737     0.000019798380
       7        0.000005037559    -0.000020027955     0.000018327897
       8        0.000001385634    -0.000002496350    -0.000003621276
       9        0.000009493801    -0.000002615663    -0.000009826363
      10        0.000000750420     0.000030427622     0.000003418167
      11        0.000004637026    -0.000006508613     0.000011145448
      12       -0.000007328057    -0.000003828504     0.000003875662
      13       -0.000009118524    -0.000003995145    -0.000010232877
      14        0.000006039793     0.000006303314     0.000002770183
      15       -0.000011732362     0.000003587182    -0.000005522853
      16        0.000015219242     0.000007123727     0.000004828489
      17       -0.000006879323     0.000002710768    -0.000001754134
      18       -0.000004296519    -0.000003754776    -0.000001108056
      19       -0.000007094268    -0.000002342192    -0.000009461887
      20       -0.000001298309     0.000007026830     0.000003860025
      21        0.000021990037    -0.000005710258    -0.000011028997
      22        0.000002443573     0.000000867319     0.000003441105
      23       -0.000009233805     0.000004048878     0.000002899825
      24       -0.000000042792    -0.000003132414    -0.000001312555
      25        0.000001527068    -0.000001231937    -0.000004574928
      26        0.000001739918     0.000003448908     0.000004249732
      27        0.000001027037    -0.000003767458     0.000000777880

  **** Optimization is complete! (in 9 steps) ****
    Final optimized geometry and variables:
    Molecular point group: c1

    Geometry (in Angstrom), charge = 0, multiplicity = 1:

    H           -3.757134703550     0.163821123372     2.548233557242
    O           -2.961718098614     0.041455712769     2.066167704112
    C           -2.283726438340    -1.102040577714     2.524551309172
    C           -0.788862850043    -0.918843415786     2.341544972560
    H           -2.497322897503    -1.270958769754     3.576097375233
    H           -2.624075980263    -1.978275565135     1.977303187708
    C           -0.365105742940    -0.757859980958     0.883831058990
    H           -0.477335948256    -0.049502029275     2.912677994058
    H           -0.287467296951    -1.780329795124     2.775845951933
    C            1.140306005687    -0.550657096939     0.728734765938
    H           -0.906715423591     0.074368003069     0.453625368389
    H           -0.663470042277    -1.643734905875     0.326615533364
    C            1.633039293062    -0.470198892905    -0.717371934036
    H            1.433981264925     0.353443488959     1.257210611668
    H            1.657786704061    -1.369514995432     1.221981652096
    C            1.158610786124     0.757600313628    -1.492470083976
    H            2.719738420025    -0.475970089647    -0.710228964973
    H            1.330467999910    -1.369561974276    -1.249104392202
    C            1.745387877578     0.839710880709    -2.899254991763
    H            1.428462426595     1.655120779489    -0.940025319179
    H            0.075573305008     0.758189942374    -1.563037407975
    C            1.271847474047     2.063507271760    -3.676414497920
    H            2.830173274088     0.851327742986    -2.836222503202
    H            1.482896745486    -0.059536227512    -3.450184304448
    H            1.548476200206     2.981104775774    -3.167703291822
    H            1.707097222486     2.092090391030    -4.668926574443
    H            0.192698100656     2.062433383263    -3.788478701444

  Mulliken Charges: (a.u.)
   Center  Symbol    Alpha    Beta     Spin     Total
       1     H     0.39397  0.39397  0.00000  0.21206
       2     O     4.20024  4.20024  0.00000 -0.40048
       3     C     2.97390  2.97390  0.00000  0.05221
       4     C     3.08738  3.08738  0.00000 -0.17476
       5     H     0.46624  0.46624  0.00000  0.06752
       6     H     0.47265  0.47265  0.00000  0.05469
       7     C     3.09422  3.09422  0.00000 -0.18845
       8     H     0.45469  0.45469  0.00000  0.09062
       9     H     0.45495  0.45495  0.00000  0.09009
      10     C     3.09868  3.09868  0.00000 -0.19736
      11     H     0.44111  0.44111  0.00000  0.11779
      12     H     0.45796  0.45796  0.00000  0.08409
      13     C     3.09752  3.09752  0.00000 -0.19505
      14     H     0.45360  0.45360  0.00000  0.09281
      15     H     0.45031  0.45031  0.00000  0.09938
      16     C     3.08788  3.08788  0.00000 -0.17575
      17     H     0.44950  0.44950  0.00000  0.10100
      18     H     0.45461  0.45461  0.00000  0.09079
      19     C     3.08378  3.08378  0.00000 -0.16756
      20     H     0.45550  0.45550  0.00000  0.08901
      21     H     0.45172  0.45172  0.00000  0.09656
      22     C     3.14972  3.14972  0.00000 -0.29944
      23     H     0.45489  0.45489  0.00000  0.09022
      24     H     0.45520  0.45520  0.00000  0.08960
      25     H     0.45547  0.45547  0.00000  0.08906
      26     H     0.44927  0.44927  0.00000  0.10146
      27     H     0.45505  0.45505  0.00000  0.08989

   Total alpha = 37.00000, Total beta = 37.00000, Total charge = -0.00000

*** Psi4 exiting successfully. Buy a developer a beer!
