  ==> Input File <==

--------------------------------------------------------------------------
set {
	reference rhf
	basis 6-31G*
}

set_num_threads( 1 )
memory 2 gb

molecule MOL {
0 1

H	 -3.892951	 0.981613	 -0.358725
C	 -3.196921	 0.361773	 0.172313
C	 -2.076860	 -0.007332	 -0.404944
H	 -3.439953	 0.057760	 1.173024
O	 -1.652367	 0.544320	 -1.572140
H	 -1.422297	 -0.749110	 0.017558
C	 -0.555925	 -0.020551	 -2.205058
C	 -0.959629	 -1.161693	 -3.111210
H	 0.180051	 -0.392596	 -1.501058
H	 -0.099530	 0.743056	 -2.817507
F	 0.114756	 -1.642853	 -3.719476
F	 -1.515456	 -2.152924	 -2.434197
F	 -1.813791	 -0.779499	 -4.037885

	symmetry c1
}
set optking {
	frozen_dihedral = ("
		11 8 7 9,
		3 5 7 9,
		6 3 5 7
	")
}

ee = energy('scf')
oeprop('DIPOLE', 'QUADRUPOLE', 'MULLIKEN_CHARGES')
f=open( 'psi4out.xyz', 'w' )
f.write( "13  " )
f.write( str(ee) + "\n" )
f.write( MOL.save_string_xyz() )
f.close()
--------------------------------------------------------------------------

    Molecular point group: c1

    Geometry (in Angstrom), charge = 0, multiplicity = 1:

       Center              X                  Y                   Z               Mass
    ------------   -----------------  -----------------  -----------------  -----------------
           H         -2.482847824069     1.675931867135     1.933364767201     1.007825032070
           C         -1.786817824069     1.056091867135     2.464402767201    12.000000000000
           C         -0.666756824069     0.686986867135     1.887145767201    12.000000000000
           H         -2.029849824069     0.752078867135     3.465113767201     1.007825032070
           O         -0.242263824069     1.238638867135     0.719949767201    15.994914619560
           H         -0.012193824069    -0.054791132865     2.309647767201     1.007825032070
           C          0.854178175931     0.673767867135     0.087031767201    12.000000000000
           C          0.450474175931    -0.467374132865    -0.819120232799    12.000000000000
           H          1.590154175931     0.301722867135     0.791031767201     1.007825032070
           H          1.310573175931     1.437374867135    -0.525417232799     1.007825032070
           F          1.524859175931    -0.948534132865    -1.427386232799    18.998403224000
           F         -0.105352824069    -1.458605132865    -0.142107232799    18.998403224000
           F         -0.403687824069    -0.085180132865    -1.745795232799    18.998403224000

  Charge       = 0
  Multiplicity = 1
  Basis Set: 6-31G*
  Basis Set:

    Orbital Energies (a.u.)
    -----------------------

    Doubly Occupied:

       1A    -26.344799     2A    -26.344222     3A    -26.340953
       4A    -20.609491     5A    -11.503442     6A    -11.319057
       7A    -11.299776     8A    -11.215416     9A     -1.742101
      10A     -1.640184    11A     -1.638666    12A     -1.438955
      13A     -1.084489    14A     -1.016442    15A     -0.925573
      16A     -0.836890    17A     -0.831332    18A     -0.821464
      19A     -0.792240    20A     -0.722010    21A     -0.711669
      22A     -0.696472    23A     -0.676056    24A     -0.660840
      25A     -0.654986    26A     -0.643481    27A     -0.635240
      28A     -0.585337    29A     -0.563887    30A     -0.523397
      31A     -0.513528    32A     -0.350263

  @DF-RHF Final Energy:  -527.53376571441800

   => Energetics <=

    Nuclear Repulsion Energy =            413.5551862688261622
    One-Electron Energy =               -1550.8124509419822061
    Two-Electron Energy =                 609.7234989587382188
    DFT Exchange-Correlation Energy =       0.0000000000000000
    Empirical Dispersion Energy =           0.0000000000000000
    PCM Polarization Energy =               0.0000000000000000
    EFP Energy =                            0.0000000000000000
    Total Energy =                       -527.5337657144177683

  Mulliken Charges: (a.u.)
   Center  Symbol    Alpha    Beta     Spin     Total
       1     H     0.40271  0.40271  0.00000  0.19458
       2     C     3.23729  3.23729  0.00000 -0.47457
       3     C     2.89491  2.89491  0.00000  0.21017
       4     H     0.40557  0.40557  0.00000  0.18885
       5     O     4.30058  4.30058  0.00000 -0.60115
       6     H     0.40722  0.40722  0.00000  0.18557
       7     C     3.06402  3.06402  0.00000 -0.12803
       8     C     2.45590  2.45590  0.00000  1.08821
       9     H     0.40534  0.40534  0.00000  0.18933
      10     H     0.38958  0.38958  0.00000  0.22083
      11     F     4.68279  4.68279  0.00000 -0.36558
      12     F     4.67963  4.67963  0.00000 -0.35925
      13     F     4.67448  4.67448  0.00000 -0.34896

   Total alpha = 32.00000, Total beta = 32.00000, Total charge = -0.00000
