  ==> Input File <==

--------------------------------------------------------------------------
set {
	reference rhf
	basis 6-31G*
}

set_num_threads( 4 )
memory 2 gb

molecule MOL {
0 1

H	 -2.365627	 -1.312883	 -0.379134
C	 -1.358347	 -1.274295	 0.019669
C	 -0.681945	 0.000119	 -0.470601
H	 -0.826096	 -2.155117	 -0.321105
H	 -1.409554	 -1.292283	 1.100109
C	 -1.357790	 1.274691	 0.020220
N	 0.739525	 -0.000142	 0.006128
H	 -0.594190	 0.000341	 -1.545128
H	 -2.364980	 1.313977	 -0.378631
H	 -0.825080	 2.155361	 -0.320114
H	 -1.409060	 1.292170	 1.100671
O	 0.969967	 0.528280	 1.049320
O	 1.551095	 -0.530536	 -0.690605

	symmetry c1
}
set optking {
	frozen_dihedral = ("
		12 7 3 8
	")
}

ee = optimize('scf')
oeprop('DIPOLE', 'QUADRUPOLE', 'MULLIKEN_CHARGES')
f=open( 'psi4out.xyz', 'w' )
f.write( "13  " )
f.write( str(ee) + "\n" )
f.write( MOL.save_string_xyz() )
f.close()
--------------------------------------------------------------------------

    Molecular point group: c1
  Charge       = 0
  Multiplicity = 1
  Basis Set: 6-31G*
  Basis Set:
  @DF-RHF Final Energy:  -321.73828176583339
    Total Energy =                       -321.7382817658334488
    Molecular point group: c1
  Basis Set: 6-31G*
  Basis Set:
  Basis Set: 6-31G*
  Basis Set:
  @DF-RHF Final Energy:  -321.73452348878345
    Total Energy =                       -321.7345234887836796
  Basis Set: 6-31G*
  Basis Set:
  Basis Set: 6-31G*
  Basis Set:
  @DF-RHF Final Energy:  -321.73748654630060
    Total Energy =                       -321.7374865463005449
  Basis Set: 6-31G*
  Basis Set:
  Basis Set: 6-31G*
  Basis Set:
  @DF-RHF Final Energy:  -321.73878491736690
    Total Energy =                       -321.7387849173667860
  Basis Set: 6-31G*
  Basis Set:
  Basis Set: 6-31G*
  Basis Set:
  @DF-RHF Final Energy:  -321.73879667886314
    Total Energy =                       -321.7387966788631388
  Basis Set: 6-31G*
  Basis Set:
  Basis Set: 6-31G*
  Basis Set:
  @DF-RHF Final Energy:  -321.73879963202228
    Total Energy =                       -321.7387996320221646
  Basis Set: 6-31G*
  Basis Set:
  Charge       = 0
  Multiplicity = 1
  Basis Set: 6-31G*
  Basis Set:

    Orbital Energies (a.u.)
    -----------------------

    Doubly Occupied:

       1A    -20.600408     2A    -20.598361     3A    -15.843222
       4A    -11.306437     5A    -11.248623     6A    -11.241933
       7A     -1.628725     8A     -1.414152     9A     -1.143603
      10A     -0.973436    11A     -0.958038    12A     -0.813669
      13A     -0.753282    14A     -0.726794    15A     -0.722001
      16A     -0.647951    17A     -0.594032    18A     -0.587627
      19A     -0.572141    20A     -0.529733    21A     -0.522358
      22A     -0.481793    23A     -0.469803    24A     -0.446948

  @DF-RHF Final Energy:  -321.73879981075333

   => Energetics <=

    Nuclear Repulsion Energy =            256.8216960193979048
    One-Electron Energy =                -947.4708513938464876
    Two-Electron Energy =                 368.9103555636951342
    DFT Exchange-Correlation Energy =       0.0000000000000000
    Empirical Dispersion Energy =           0.0000000000000000
    PCM Polarization Energy =               0.0000000000000000
    EFP Energy =                            0.0000000000000000
    Total Energy =                       -321.7387998107534486
    Molecular point group: c1
  Basis Set: 6-31G*
  Basis Set:

  -Total Gradient:
     Atom            X                  Y                   Z
    ------   -----------------  -----------------  -----------------
       1       -0.000005311252    -0.000007082502     0.000005378431
       2       -0.000018267269    -0.000008403729    -0.000004880935
       3        0.000045609187    -0.000499974063    -0.000093438658
       4       -0.000004199278     0.000005527494    -0.000008086354
       5        0.000003265649    -0.000001646268     0.000001738885
       6       -0.000000972106    -0.000007019115    -0.000018103027
       7       -0.000099450710    -0.000604026789     0.000417124564
       8        0.000009764058     0.000604737712    -0.000007142663
       9        0.000000715410    -0.000001204391     0.000004725899
      10       -0.000004251474    -0.000002516575    -0.000001211859
      11        0.000003173275     0.000002573465     0.000001539933
      12        0.000085385895     0.000534955425    -0.000268701309
      13       -0.000015461387    -0.000015920666    -0.000028942908

  **** Optimization is complete! (in 7 steps) ****
    Final optimized geometry and variables:
    Molecular point group: c1

    Geometry (in Angstrom), charge = 0, multiplicity = 1:

    H           -2.361028162283    -1.294937697550    -0.351121059268
    C           -1.344114472801    -1.255986468162     0.021313543519
    C           -0.682766449588     0.032297901162    -0.463590495111
    H           -0.810622203766    -2.124919874332    -0.342490179109
    H           -1.372987558188    -1.285867001930     1.104440515079
    C           -1.379215463645     1.294628564131     0.016524254933
    N            0.742207936844     0.000187989287     0.006770849301
    H           -0.594197019849     0.024400600026    -1.538986987022
    H           -2.373609103233     1.323680783033    -0.415347086921
    H           -0.846436276148     2.183482680581    -0.298681364655
    H           -1.466405152275     1.310856537393     1.093941836196
    O            1.006319145539     0.524507552788     1.044497791415
    O            1.518366579645    -0.586507137974    -0.683863230067

  Mulliken Charges: (a.u.)
   Center  Symbol    Alpha    Beta     Spin     Total
       1     H     0.40597  0.40597  0.00000  0.18806
       2     C     3.25042  3.25042  0.00000 -0.50083
       3     C     3.02277  3.02277  0.00000 -0.04554
       4     H     0.39632  0.39632  0.00000  0.20736
       5     H     0.40190  0.40190  0.00000  0.19619
       6     C     3.24519  3.24519  0.00000 -0.49037
       7     N     3.21778  3.21778  0.00000  0.56444
       8     H     0.38651  0.38651  0.00000  0.22698
       9     H     0.41153  0.41153  0.00000  0.17694
      10     H     0.40372  0.40372  0.00000  0.19255
      11     H     0.39835  0.39835  0.00000  0.20331
      12     O     4.22923  4.22923  0.00000 -0.45846
      13     O     4.23031  4.23031  0.00000 -0.46062

   Total alpha = 24.00000, Total beta = 24.00000, Total charge = -0.00000
