  ==> Input File <==

--------------------------------------------------------------------------
set {
	reference rhf
	basis cc-pvtz
}

set_num_threads( 4 )
memory 2 gb

molecule MOL {
0 1

O	 2.498113	 1.926240	 -0.422175
C	 1.703554	 1.926139	 -1.304664
C	 0.443713	 1.085480	 -1.260787
C	 1.899590	 2.773482	 -2.541516
C	 0.288398	 0.247429	 0.000314
H	 -0.402667	 1.757499	 -1.383669
H	 0.440669	 0.453752	 -2.146178
C	 -0.993089	 -0.581367	 -0.000217
H	 0.304451	 0.900538	 0.865360
H	 1.148647	 -0.404278	 0.102216
C	 -2.258482	 0.271340	 0.000669
H	 -1.002280	 -1.233920	 -0.870484
H	 -1.002061	 -1.235367	 0.868958
C	 -3.544441	 -0.550271	 -0.000253
H	 -2.250545	 0.925250	 -0.867923
H	 -2.250598	 0.923423	 0.870642
C	 -4.804551	 0.308747	 0.000556
H	 -3.553737	 -1.201524	 -0.870151
H	 -3.553831	 -1.203282	 0.868313
H	 -4.842050	 0.949078	 -0.874436
H	 -5.698404	 -0.304480	 -0.000254
H	 -4.842277	 0.947103	 0.876982
H	 1.069854	 3.461843	 -2.658758
H	 2.822665	 3.326896	 -2.463687
H	 1.924051	 2.145158	 -3.425061

	symmetry c1
}
set optking {
	frozen_dihedral = ("
		9 5 8 12
	")
}

ee = optimize('scf')
oeprop('DIPOLE', 'QUADRUPOLE', 'MULLIKEN_CHARGES')
f=open( 'psi4out.xyz', 'w' )
f.write( "25  " )
f.write( str(ee) + "\n" )
f.write( MOL.save_string_xyz() )
f.close()
--------------------------------------------------------------------------

    Molecular point group: c1
  Charge       = 0
  Multiplicity = 1
  Basis Set: CC-PVTZ
  Basis Set:
  @DF-RHF Final Energy:  -387.27203336743281
    Total Energy =                       -387.2720333674326412
    Molecular point group: c1
  Basis Set: CC-PVTZ
  Basis Set:
  Basis Set: CC-PVTZ
  Basis Set:
  @DF-RHF Final Energy:  -387.27249409740858
    Total Energy =                       -387.2724940974085257
  Basis Set: CC-PVTZ
  Basis Set:
  Basis Set: CC-PVTZ
  Basis Set:
  @DF-RHF Final Energy:  -387.27288699594351
    Total Energy =                       -387.2728869959437361
  Basis Set: CC-PVTZ
  Basis Set:
  Basis Set: CC-PVTZ
  Basis Set:
  @DF-RHF Final Energy:  -387.27286016631319
    Total Energy =                       -387.2728601663126256
  Basis Set: CC-PVTZ
  Basis Set:
  Basis Set: CC-PVTZ
  Basis Set:
  @DF-RHF Final Energy:  -387.27284220755661
    Total Energy =                       -387.2728422075568915
  Basis Set: CC-PVTZ
  Basis Set:
  Basis Set: CC-PVTZ
  Basis Set:
  @DF-RHF Final Energy:  -387.27290879172858
    Total Energy =                       -387.2729087917282413
  Basis Set: CC-PVTZ
  Basis Set:
  Charge       = 0
  Multiplicity = 1
  Basis Set: CC-PVTZ
  Basis Set:

    Orbital Energies (a.u.)
    -----------------------

    Doubly Occupied:

       1A    -20.538764     2A    -11.320440     3A    -11.229650
       4A    -11.226511     5A    -11.215519     6A    -11.215382
       7A    -11.214897     8A    -11.214054     9A    -11.208619
      10A     -1.398862    11A     -1.096038    12A     -1.057180
      13A     -1.015626    14A     -0.969105    15A     -0.898485
      16A     -0.816567    17A     -0.788404    18A     -0.732162
      19A     -0.660635    20A     -0.651121    21A     -0.639480
      22A     -0.623472    23A     -0.598643    24A     -0.580286
      25A     -0.568555    26A     -0.567748    27A     -0.543756
      28A     -0.529091    29A     -0.517201    30A     -0.495593
      31A     -0.489576    32A     -0.477799    33A     -0.463772
      34A     -0.459775    35A     -0.448202    36A     -0.402709

  @DF-RHF Final Energy:  -387.27290896040944

   => Energetics <=

    Nuclear Repulsion Energy =            445.1360622584574571
    One-Electron Energy =               -1407.0705918315391045
    Two-Electron Energy =                 574.6616206126720954
    DFT Exchange-Correlation Energy =       0.0000000000000000
    Empirical Dispersion Energy =           0.0000000000000000
    PCM Polarization Energy =               0.0000000000000000
    EFP Energy =                            0.0000000000000000
    Total Energy =                       -387.2729089604094952
    Molecular point group: c1
  Basis Set: CC-PVTZ
  Basis Set:

  -Total Gradient:
     Atom            X                  Y                   Z
    ------   -----------------  -----------------  -----------------
       1        0.000005153675    -0.000003188143    -0.000001293444
       2       -0.000007517297     0.000007151234     0.000004841677
       3       -0.000000830221     0.000007582988     0.000009739594
       4        0.000000924586    -0.000004460717    -0.000001063133
       5       -0.000027448705     0.000036543386    -0.000036444436
       6        0.000000254352    -0.000001192891    -0.000005119314
       7        0.000001778540    -0.000003705627     0.000001648212
       8       -0.000018978295     0.000040440133    -0.000039085551
       9        0.000021619052    -0.000033088737     0.000019649266
      10        0.000003562382    -0.000003623365     0.000004393073
      11        0.000001382562    -0.000004719906     0.000013239143
      12        0.000025332486    -0.000036579686     0.000022878663
      13       -0.000005235358     0.000001456030    -0.000000962744
      14        0.000003511458    -0.000000468027     0.000013775342
      15       -0.000004702031    -0.000000607695     0.000005110426
      16        0.000006335975     0.000000147853     0.000001502398
      17       -0.000002654544     0.000000883917    -0.000015612777
      18       -0.000003523827    -0.000003287796     0.000003643998
      19        0.000000845709     0.000002774690     0.000003345742
      20       -0.000002306093     0.000006054767     0.000000725816
      21       -0.000000534550    -0.000000068449    -0.000005321893
      22        0.000002887965    -0.000006752972    -0.000000223873
      23        0.000000741067    -0.000000660395     0.000001752220
      24        0.000000127230    -0.000001092723     0.000000765759
      25       -0.000000726109     0.000000462129    -0.000001884164

  **** Optimization is complete! (in 7 steps) ****
    Final optimized geometry and variables:
    Molecular point group: c1

    Geometry (in Angstrom), charge = 0, multiplicity = 1:

    O            3.094898823088     1.021041670106     0.203217786477
    C            2.313267246335     1.082592508386    -0.688479628526
    C            0.996813086394     0.331603608744    -0.668553118105
    C            2.582676448654     1.925008398800    -1.915094246646
    C            0.780787746030    -0.514194459980     0.580250354051
    H            0.207559445677     1.066911367138    -0.793529078092
    H            0.960291119301    -0.287864628859    -1.562237851578
    C           -0.501381849291    -1.347839342374     0.556887785917
    H            0.783911500189     0.130174808456     1.452423123336
    H            1.630515788565    -1.175367837348     0.697858974162
    C           -1.799244226830    -0.542661804603     0.588520909613
    H           -0.498797968677    -1.991966265282    -0.319870420389
    H           -0.486125228030    -2.011808962193     1.416201510986
    C           -3.045455781408    -1.420219989118     0.672562422965
    H           -1.873382996393     0.084153119334    -0.295641611069
    H           -1.779748734451     0.132975871625     1.440763815295
    C           -4.343010464573    -0.619364413862     0.697337011913
    H           -3.060455991264    -2.103570676396    -0.172267378766
    H           -2.987785717596    -2.039676170154     1.563179471637
    H           -4.448416778333    -0.015995377421    -0.198335392625
    H           -5.206354103514    -1.271860982702     0.758922784989
    H           -4.373325818207     0.050169158639     1.550522076139
    H            1.804408695613     2.670613553787    -2.035040767447
    H            3.541006897394     2.412172145130    -1.821559148787
    H            2.574020633455     1.304213209696    -2.804232865268

  Mulliken Charges: (a.u.)
   Center  Symbol    Alpha    Beta     Spin     Total
       1     O     4.17065  4.17065  0.00000 -0.34130
       2     C     2.86078  2.86078  0.00000  0.27845
       3     C     3.11347  3.11347  0.00000 -0.22693
       4     C     3.15072  3.15072  0.00000 -0.30144
       5     C     3.09300  3.09300  0.00000 -0.18600
       6     H     0.44439  0.44439  0.00000  0.11121
       7     H     0.44551  0.44551  0.00000  0.10898
       8     C     3.10106  3.10106  0.00000 -0.20213
       9     H     0.44577  0.44577  0.00000  0.10846
      10     H     0.43988  0.43988  0.00000  0.12024
      11     C     3.08919  3.08919  0.00000 -0.17838
      12     H     0.45431  0.45431  0.00000  0.09138
      13     H     0.44586  0.44586  0.00000  0.10828
      14     C     3.08405  3.08405  0.00000 -0.16810
      15     H     0.45587  0.45587  0.00000  0.08826
      16     H     0.45321  0.45321  0.00000  0.09359
      17     C     3.14969  3.14969  0.00000 -0.29939
      18     H     0.45467  0.45467  0.00000  0.09066
      19     H     0.45295  0.45295  0.00000  0.09411
      20     H     0.45607  0.45607  0.00000  0.08785
      21     H     0.44795  0.44795  0.00000  0.10409
      22     H     0.45465  0.45465  0.00000  0.09070
      23     H     0.45059  0.45059  0.00000  0.09882
      24     H     0.43526  0.43526  0.00000  0.12949
      25     H     0.45045  0.45045  0.00000  0.09910

   Total alpha = 36.00000, Total beta = 36.00000, Total charge = -0.00000
