  ==> Input File <==

--------------------------------------------------------------------------
set {
	reference rhf
	basis 6-31G*
}

set_num_threads( 1 )
memory 2 gb

molecule MOL {
0 1

O	 -2.651064	 -0.329227	 0.808312
C	 -1.687179	 -0.497065	 1.491826
C	 -0.436870	 -1.148959	 0.927853
C	 -1.648145	 -0.044073	 2.934272
C	 0.379448	 -0.143569	 0.099626
H	 -0.751866	 -1.969704	 0.292668
H	 0.175921	 -1.555736	 1.727257
C	 1.631333	 -0.777471	 -0.511575
H	 -0.263591	 0.256410	 -0.676197
H	 0.673345	 0.695733	 0.728071
C	 2.915987	 -0.544314	 0.291766
H	 1.766672	 -0.399098	 -1.523130
H	 1.471257	 -1.849544	 -0.605828
C	 3.373361	 0.914346	 0.347591
H	 3.708709	 -1.142521	 -0.150311
H	 2.780642	 -0.921148	 1.303579
H	 3.506512	 1.320010	 -0.651625
H	 4.322697	 0.999599	 0.867103
H	 2.660624	 1.545032	 0.868198
H	 -1.583449	 -0.910284	 3.587538
H	 -2.541252	 0.517574	 3.170276
H	 -0.768643	 0.564965	 3.122296

	symmetry c1
}
set optking {
	frozen_dihedral = ("
		6 3 2 1,
		6 3 5 8,
		12 8 11 15
	")
}

ee = energy('scf')
oeprop('DIPOLE', 'QUADRUPOLE', 'MULLIKEN_CHARGES')
f=open( 'psi4out.xyz', 'w' )
f.write( "22  " )
f.write( str(ee) + "\n" )
f.write( MOL.save_string_xyz() )
f.close()
--------------------------------------------------------------------------

    Molecular point group: c1

    Geometry (in Angstrom), charge = 0, multiplicity = 1:

       Center              X                  Y                   Z               Mass
    ------------   -----------------  -----------------  -----------------  -----------------
           O         -2.889510972138    -0.022225683293     0.001512253506    15.994914619560
           C         -1.925625972138    -0.190063683293     0.685026253506    12.000000000000
           C         -0.675316972138    -0.841957683293     0.121053253506    12.000000000000
           C         -1.886591972138     0.262928316707     2.127472253506    12.000000000000
           C          0.141001027862     0.163432316707    -0.707173746494    12.000000000000
           H         -0.990312972138    -1.662702683293    -0.514131746494     1.007825032070
           H         -0.062525972138    -1.248734683293     0.920457253506     1.007825032070
           C          1.392886027862    -0.470469683293    -1.318374746494    12.000000000000
           H         -0.502037972138     0.563411316707    -1.482996746494     1.007825032070
           H          0.434898027862     1.002734316707    -0.078728746494     1.007825032070
           C          2.677540027862    -0.237312683293    -0.515033746494    12.000000000000
           H          1.528225027862    -0.092096683293    -2.329929746494     1.007825032070
           H          1.232810027862    -1.542542683293    -1.412627746494     1.007825032070
           C          3.134914027862     1.221347316707    -0.459208746494    12.000000000000
           H          3.470262027862    -0.835519683293    -0.957110746494     1.007825032070
           H          2.542195027862    -0.614146683293     0.496779253506     1.007825032070
           H          3.268065027862     1.627011316707    -1.458424746494     1.007825032070
           H          4.084250027862     1.306600316707     0.060303253506     1.007825032070
           H          2.422177027862     1.852033316707     0.061398253506     1.007825032070
           H         -1.821895972138    -0.603282683293     2.780738253506     1.007825032070
           H         -2.779698972138     0.824575316707     2.363476253506     1.007825032070
           H         -1.007089972138     0.871966316707     2.315496253506     1.007825032070

  Charge       = 0
  Multiplicity = 1
  Basis Set: 6-31G*
  Basis Set:

    Orbital Energies (a.u.)
    -----------------------

    Doubly Occupied:

       1A    -20.547204     2A    -11.324102     3A    -11.229206
       4A    -11.228111     5A    -11.227989     6A    -11.222932
       7A    -11.221355     8A    -11.214560     9A     -1.392895
      10A     -1.097182    11A     -1.043936    12A     -0.999703
      13A     -0.938928    14A     -0.861957    15A     -0.782864
      16A     -0.735236    17A     -0.662301    18A     -0.648737
      19A     -0.625213    20A     -0.613486    21A     -0.603292
      22A     -0.581495    23A     -0.561417    24A     -0.549668
      25A     -0.531088    26A     -0.524204    27A     -0.504390
      28A     -0.486260    29A     -0.466437    30A     -0.463512
      31A     -0.459863    32A     -0.396270

  @DF-RHF Final Energy:  -348.09370463630188

   => Energetics <=

    Nuclear Repulsion Energy =            376.2312260870027671
    One-Electron Energy =               -1217.1580330008944202
    Two-Electron Energy =                 492.8331022775902852
    DFT Exchange-Correlation Energy =       0.0000000000000000
    Empirical Dispersion Energy =           0.0000000000000000
    PCM Polarization Energy =               0.0000000000000000
    EFP Energy =                            0.0000000000000000
    Total Energy =                       -348.0937046363013110

  Mulliken Charges: (a.u.)
   Center  Symbol    Alpha    Beta     Spin     Total
       1     O     4.26263  4.26263  0.00000 -0.52525
       2     C     2.73679  2.73679  0.00000  0.52641
       3     C     3.20192  3.20192  0.00000 -0.40384
       4     C     3.28956  3.28956  0.00000 -0.57912
       5     C     3.16533  3.16533  0.00000 -0.33067
       6     H     0.40083  0.40083  0.00000  0.19833
       7     H     0.41669  0.41669  0.00000  0.16662
       8     C     3.15643  3.15643  0.00000 -0.31286
       9     H     0.40290  0.40290  0.00000  0.19421
      10     H     0.41853  0.41853  0.00000  0.16295
      11     C     3.15489  3.15489  0.00000 -0.30978
      12     H     0.41742  0.41742  0.00000  0.16515
      13     H     0.41865  0.41865  0.00000  0.16270
      14     C     3.24119  3.24119  0.00000 -0.48238
      15     H     0.41870  0.41870  0.00000  0.16260
      16     H     0.42463  0.42463  0.00000  0.15075
      17     H     0.42006  0.42006  0.00000  0.15988
      18     H     0.41767  0.41767  0.00000  0.16465
      19     H     0.42107  0.42107  0.00000  0.15785
      20     H     0.40702  0.40702  0.00000  0.18596
      21     H     0.39709  0.39709  0.00000  0.20581
      22     H     0.40999  0.40999  0.00000  0.18002

   Total alpha = 32.00000, Total beta = 32.00000, Total charge = -0.00000
