  ==> Input File <==

--------------------------------------------------------------------------
set {
	reference rhf
	basis 6-31G*
}

set_num_threads( 1 )
memory 2 gb

molecule MOL {
0 1

O	 0.625848	 1.349995	 -0.000749
C	 0.486307	 0.169203	 0.000779
C	 1.608116	 -0.841643	 0.000302
O	 -0.698257	 -0.426125	 0.001050
C	 2.990107	 -0.200498	 -0.000684
H	 1.468623	 -1.481519	 -0.865924
H	 1.469683	 -1.481289	 0.866878
H	 3.129736	 0.423364	 -0.875135
H	 3.757882	 -0.966877	 -0.001197
H	 3.130964	 0.423383	 0.873533
C	 -0.851899	 -1.585754	 -0.810772
C	 -2.274346	 -2.074981	 -0.638694
H	 -0.132506	 -2.331209	 -0.500363
H	 -0.639750	 -1.326887	 -1.839155
H	 -2.472575	 -2.324882	 0.397363
H	 -2.435603	 -2.961899	 -1.242864
H	 -2.982689	 -1.315148	 -0.948791

	symmetry c1
}
set optking {
	frozen_dihedral = ("
		2 4 11 13,
		4 2 3 6
	")
}

ee = energy('scf')
oeprop('DIPOLE', 'QUADRUPOLE', 'MULLIKEN_CHARGES')
f=open( 'psi4out.xyz', 'w' )
f.write( "17  " )
f.write( str(ee) + "\n" )
f.write( MOL.save_string_xyz() )
f.close()
--------------------------------------------------------------------------

    Molecular point group: c1

    Geometry (in Angstrom), charge = 0, multiplicity = 1:

       Center              X                  Y                   Z               Mass
    ------------   -----------------  -----------------  -----------------  -----------------
           O          0.364565450244     1.869983487808     0.210404479684    15.994914619560
           C          0.225024450244     0.689191487808     0.211932479684    12.000000000000
           C          1.346833450244    -0.321654512192     0.211455479684    12.000000000000
           O         -0.959539549756     0.093863487808     0.212203479684    15.994914619560
           C          2.728824450244     0.319490487808     0.210469479684    12.000000000000
           H          1.207340450244    -0.961530512192    -0.654770520316     1.007825032070
           H          1.208400450244    -0.961300512192     1.078031479684     1.007825032070
           H          2.868453450244     0.943352487808    -0.663981520316     1.007825032070
           H          3.496599450244    -0.446888512192     0.209956479684     1.007825032070
           H          2.869681450244     0.943371487808     1.084686479684     1.007825032070
           C         -1.113181549756    -1.065765512192    -0.599618520316    12.000000000000
           C         -2.535628549756    -1.554992512192    -0.427540520316    12.000000000000
           H         -0.393788549756    -1.811220512192    -0.289209520316     1.007825032070
           H         -0.901032549756    -0.806898512192    -1.628001520316     1.007825032070
           H         -2.733857549756    -1.804893512192     0.608516479684     1.007825032070
           H         -2.696885549756    -2.441910512192    -1.031710520316     1.007825032070
           H         -3.243971549756    -0.795159512192    -0.737637520316     1.007825032070

  Charge       = 0
  Multiplicity = 1
  Basis Set: 6-31G*
  Basis Set:

    Orbital Energies (a.u.)
    -----------------------

    Doubly Occupied:

       1A    -20.596252     2A    -20.547975     3A    -11.373252
       4A    -11.300932     5A    -11.241705     6A    -11.229441
       7A    -11.218534     8A     -1.464406     9A     -1.368382
      10A     -1.064037    11A     -1.048393    12A     -0.903633
      13A     -0.885027    14A     -0.770749    15A     -0.705454
      16A     -0.693257    17A     -0.659733    18A     -0.638821
      19A     -0.599402    20A     -0.570350    21A     -0.559437
      22A     -0.542033    23A     -0.528718    24A     -0.516642
      25A     -0.513062    26A     -0.488604    27A     -0.452089
      28A     -0.430560

  @DF-RHF Final Energy:  -344.88645531491244

   => Energetics <=

    Nuclear Repulsion Energy =            317.9307523466235921
    One-Electron Energy =               -1099.8127126389049408
    Two-Electron Energy =                 436.9955049773682276
    DFT Exchange-Correlation Energy =       0.0000000000000000
    Empirical Dispersion Energy =           0.0000000000000000
    PCM Polarization Energy =               0.0000000000000000
    EFP Energy =                            0.0000000000000000
    Total Energy =                       -344.8864553149130643

  Mulliken Charges: (a.u.)
   Center  Symbol    Alpha    Beta     Spin     Total
       1     O     4.26641  4.26641  0.00000 -0.53282
       2     C     2.59819  2.59819  0.00000  0.80363
       3     C     3.23537  3.23537  0.00000 -0.47074
       4     O     4.30742  4.30742  0.00000 -0.61484
       5     C     3.23549  3.23549  0.00000 -0.47097
       6     H     0.40228  0.40228  0.00000  0.19545
       7     H     0.39908  0.39908  0.00000  0.20184
       8     H     0.40962  0.40962  0.00000  0.18076
       9     H     0.41953  0.41953  0.00000  0.16094
      10     H     0.40807  0.40807  0.00000  0.18386
      11     C     3.01435  3.01435  0.00000 -0.02869
      12     C     3.24533  3.24533  0.00000 -0.49067
      13     H     0.41440  0.41440  0.00000  0.17120
      14     H     0.41312  0.41312  0.00000  0.17375
      15     H     0.40859  0.40859  0.00000  0.18281
      16     H     0.41735  0.41735  0.00000  0.16531
      17     H     0.40541  0.40541  0.00000  0.18919

   Total alpha = 28.00000, Total beta = 28.00000, Total charge =  0.00000
