                              Psi4 1.0.54 Driver

  ==> Input File <==

--------------------------------------------------------------------------
set {
	reference rhf
	basis cc-pvtz
}

set_num_threads( 4 )
memory 2 gb

molecule MOL {
0 1

H	 -3.144994	 -1.202467	 -0.018751
O	 -2.321472	 -0.864941	 -0.318626
C	 -2.021813	 0.336996	 0.342658
C	 -0.669613	 0.837286	 -0.127252
H	 -2.780861	 1.084746	 0.127159
H	 -2.006390	 0.184138	 1.420053
C	 0.490865	 -0.082543	 0.241244
H	 -0.708709	 0.967192	 -1.204587
H	 -0.507562	 1.822272	 0.303070
C	 0.507080	 -1.376693	 -0.567160
H	 0.438783	 -0.315794	 1.298570
H	 1.429097	 0.446926	 0.087928
C	 1.671010	 -2.293134	 -0.204961
H	 -0.428863	 -1.906678	 -0.412790
H	 0.551577	 -1.140848	 -1.627390
H	 1.634297	 -2.575389	 0.841892
H	 1.653539	 -3.203149	 -0.793918
H	 2.623627	 -1.804102	 -0.380500

	symmetry c1
}
set optking {
	frozen_dihedral = ("
		10 7 4 8
	")
}

ee,wfn = optimize('scf', return_wfn=True)
oeprop( wfn, 'DIPOLE', 'QUADRUPOLE', 'MULLIKEN_CHARGES')
f=open( 'psi4out.xyz', 'w' )
f.write( "18  " )
f.write( str(ee) + "\n" )
f.write( MOL.save_string_xyz() )
f.close()
--------------------------------------------------------------------------

    Molecular point group: c1
  Charge       = 0
  Multiplicity = 1
  Basis Set: CC-PVTZ
  Basis Set:
  @DF-RHF Final Energy:  -271.28100809966446
    Total Energy =                       -271.2810080996645183
    Molecular point group: c1
  Basis Set: CC-PVTZ
  Basis Set:
  Basis Set: CC-PVTZ
  Basis Set:
  @DF-RHF Final Energy:  -271.26127231663156
    Total Energy =                       -271.2612723166317892
  Basis Set: CC-PVTZ
  Basis Set:
  Basis Set: CC-PVTZ
  Basis Set:
  @DF-RHF Final Energy:  -271.28344335118493
    Total Energy =                       -271.2834433511848147
  Basis Set: CC-PVTZ
  Basis Set:
  Basis Set: CC-PVTZ
  Basis Set:
  @DF-RHF Final Energy:  -271.28388783497746
    Total Energy =                       -271.2838878349774632
  Basis Set: CC-PVTZ
  Basis Set:
  Basis Set: CC-PVTZ
  Basis Set:
  @DF-RHF Final Energy:  -271.28390963628118
    Total Energy =                       -271.2839096362811802
  Basis Set: CC-PVTZ
  Basis Set:
  Basis Set: CC-PVTZ
  Basis Set:
  @DF-RHF Final Energy:  -271.28391197272174
    Total Energy =                       -271.2839119727217394
  Basis Set: CC-PVTZ
  Basis Set:
  Charge       = 0
  Multiplicity = 1
  Basis Set: CC-PVTZ
  Basis Set:

    Orbital Energies (a.u.)
    -----------------------

    Doubly Occupied:

       1A    -20.547328     2A    -11.267035     3A    -11.212086
       4A    -11.207919     5A    -11.200015     6A    -11.198638
       7A     -1.365271     8A     -1.073129     9A     -1.007697
      10A     -0.913726    11A     -0.824786    12A     -0.775389
      13A     -0.706132    14A     -0.651031    15A     -0.617260
      16A     -0.575422    17A     -0.573965    18A     -0.557762
      19A     -0.528064    20A     -0.507327    21A     -0.487434
      22A     -0.462004    23A     -0.454506    24A     -0.447331
      25A     -0.428863

  @DF-RHF Final Energy:  -271.28391217308661

   => Energetics <=

    Nuclear Repulsion Energy =            254.1185257747777939
    One-Electron Energy =                -871.6246351554253806
    Two-Electron Energy =                 346.2221972075610665
    DFT Exchange-Correlation Energy =       0.0000000000000000
    Empirical Dispersion Energy =           0.0000000000000000
    PCM Polarization Energy =               0.0000000000000000
    EFP Energy =                            0.0000000000000000
    Total Energy =                       -271.2839121730864917
    Molecular point group: c1
  Basis Set: CC-PVTZ
  Basis Set:

  -Total Gradient:
     Atom            X                  Y                   Z
    ------   -----------------  -----------------  -----------------
       1        0.000004487963     0.000011566846     0.000000508976
       2        0.000013299548    -0.000009722650     0.000006059795
       3       -0.000022093791    -0.000000030068    -0.000010861923
       4       -0.000035975327    -0.000079288916    -0.000011648584
       5        0.000005880275    -0.000008092964     0.000010088858
       6       -0.000000970124     0.000004613300    -0.000001868402
       7        0.000035139895     0.000040079890    -0.000027707675
       8        0.000029509494     0.000050614940     0.000020510065
       9       -0.000013416304     0.000007756331    -0.000000737204
      10        0.000016655479    -0.000002742638     0.000014062583
      11       -0.000001957137     0.000005134005     0.000014022202
      12        0.000000485481    -0.000001240990    -0.000003013100
      13       -0.000016928107    -0.000026370441     0.000011947462
      14        0.000000378121     0.000006975328    -0.000001872593
      15       -0.000007678244    -0.000003029851    -0.000009065862
      16        0.000009841961     0.000007406583    -0.000009614591
      17        0.000001216104     0.000001018202     0.000008110164
      18       -0.000017875285    -0.000004646907    -0.000008920173

  **** Optimization is complete! (in 7 steps) ****
    Final optimized geometry and variables:
    Molecular point group: c1

    Geometry (in Angstrom), charge = 0, multiplicity = 1:

    H           -2.796019491480    -0.726290876093    -0.553445272648
    O           -1.949029700390    -0.329176851602    -0.638032615689
    C           -1.777472426048     0.650343681295     0.353583939867
    C           -0.421628070784     1.318704693735     0.207551785940
    H           -2.553237280751     1.406793550611     0.264908922221
    H           -1.863896744005     0.207439229530     1.344031324706
    C            0.797757293943     0.469618085394     0.578641540801
    H           -0.325178997573     1.685043046807    -0.810119718390
    H           -0.435540584192     2.193619213664     0.851591308722
    C            1.180314513031    -0.623288339052    -0.418412182751
    H            0.635588050742     0.024023617843     1.558064671160
    H            1.646152251325     1.139421458718     0.693192952489
    C            2.454334853816    -1.358237358613    -0.013822532449
    H            0.367581610031    -1.328944094053    -0.521630377336
    H            1.319048998479    -0.175472593185    -1.398720624497
    H            2.339278267353    -1.840320952594     0.951862209745
    H            2.709702466190    -2.125726328856    -0.735702236677
    H            3.297443282593    -0.678406506217     0.057419514304

  Mulliken Charges: (a.u.)
   Center  Symbol    Alpha    Beta     Spin     Total
       1     H     0.39640  0.39640  0.00000  0.20721
       2     O     4.19633  4.19633  0.00000 -0.39266
       3     C     2.97335  2.97335  0.00000  0.05329
       4     C     3.09862  3.09862  0.00000 -0.19723
       5     H     0.46374  0.46374  0.00000  0.07252
       6     H     0.47386  0.47386  0.00000  0.05227
       7     C     3.09332  3.09332  0.00000 -0.18663
       8     H     0.45161  0.45161  0.00000  0.09678
       9     H     0.44793  0.44793  0.00000  0.10415
      10     C     3.08003  3.08003  0.00000 -0.16005
      11     H     0.45754  0.45754  0.00000  0.08493
      12     H     0.45114  0.45114  0.00000  0.09771
      13     C     3.15027  3.15027  0.00000 -0.30054
      14     H     0.44537  0.44537  0.00000  0.10925
      15     H     0.45694  0.45694  0.00000  0.08612
      16     H     0.45708  0.45708  0.00000  0.08584
      17     H     0.44910  0.44910  0.00000  0.10180
      18     H     0.45738  0.45738  0.00000  0.08524

   Total alpha = 25.00000, Total beta = 25.00000, Total charge =  0.00000

*** Psi4 exiting successfully. Buy a developer a beer!
