  ==> Input File <==

--------------------------------------------------------------------------
set {
	reference rhf
	basis cc-pvtz
}

set_num_threads( 4 )
memory 2 gb

molecule MOL {
0 1

H	 1.467064	 -2.914303	 -0.956265
C	 1.328421	 -1.838522	 -0.972331
C	 0.256367	 -1.431278	 0.029346
H	 1.037802	 -1.543987	 -1.973186
H	 2.286529	 -1.382370	 -0.756258
N	 0.000297	 0.000045	 0.046090
H	 -0.660367	 -1.939075	 -0.236845
H	 0.523309	 -1.792351	 1.026491
C	 -1.359159	 0.315706	 0.454404
C	 0.994364	 0.732740	 0.813887
C	 -2.416729	 -0.286720	 -0.460525
H	 -1.478729	 1.390261	 0.442008
H	 -1.539692	 0.003361	 1.486761
C	 1.183416	 2.166913	 0.338654
H	 1.942645	 0.221647	 0.721117
H	 0.749282	 0.724035	 1.879612
H	 -2.285276	 0.073129	 -1.473515
H	 -2.371743	 -1.368476	 -0.483209
H	 -3.408658	 -0.007405	 -0.121593
H	 1.493882	 2.180356	 -0.698813
H	 0.274550	 2.749890	 0.421573
H	 1.944707	 2.661302	 0.932646

	symmetry c1
}
set optking {
	frozen_dihedral = ("
		3 6 9 11
	")
}

ee = optimize('scf')
oeprop('DIPOLE', 'QUADRUPOLE', 'MULLIKEN_CHARGES')
f=open( 'psi4out.xyz', 'w' )
f.write( "22  " )
f.write( str(ee) + "\n" )
f.write( MOL.save_string_xyz() )
f.close()
--------------------------------------------------------------------------

    Molecular point group: c1
  Charge       = 0
  Multiplicity = 1
  Basis Set: CC-PVTZ
  Basis Set:
  @DF-RHF Final Energy:  -290.47363022841489
    Total Energy =                       -290.4736302284143221
    Molecular point group: c1
  Basis Set: CC-PVTZ
  Basis Set:
  Basis Set: CC-PVTZ
  Basis Set:
  @DF-RHF Final Energy:  -290.47355857032869
    Total Energy =                       -290.4735585703289189
  Basis Set: CC-PVTZ
  Basis Set:
  Basis Set: CC-PVTZ
  Basis Set:
  @DF-RHF Final Energy:  -290.47512550968077
    Total Energy =                       -290.4751255096805380
  Basis Set: CC-PVTZ
  Basis Set:
  Basis Set: CC-PVTZ
  Basis Set:
  @DF-RHF Final Energy:  -290.47519916319595
    Total Energy =                       -290.4751991631960095
  Basis Set: CC-PVTZ
  Basis Set:
  Basis Set: CC-PVTZ
  Basis Set:
  @DF-RHF Final Energy:  -290.47521371381612
    Total Energy =                       -290.4752137138161174
  Basis Set: CC-PVTZ
  Basis Set:
  Basis Set: CC-PVTZ
  Basis Set:
  @DF-RHF Final Energy:  -290.47521558284740
    Total Energy =                       -290.4752155828475111
  Basis Set: CC-PVTZ
  Basis Set:
  Charge       = 0
  Multiplicity = 1
  Basis Set: CC-PVTZ
  Basis Set:

    Orbital Energies (a.u.)
    -----------------------

    Doubly Occupied:

       1A    -15.532806     2A    -11.239111     3A    -11.238002
       4A    -11.237628     5A    -11.206207     6A    -11.203447
       7A    -11.203384     8A     -1.225495     9A     -1.025086
      10A     -1.024184    11A     -0.957789    12A     -0.852082
      13A     -0.845037    14A     -0.768458    15A     -0.649299
      16A     -0.641448    17A     -0.628759    18A     -0.594867
      19A     -0.591496    20A     -0.548856    21A     -0.531316
      22A     -0.522237    23A     -0.517818    24A     -0.498462
      25A     -0.493196    26A     -0.487700    27A     -0.462749
      28A     -0.461692    29A     -0.341648

  @DF-RHF Final Energy:  -290.47521621775957

   => Energetics <=

    Nuclear Repulsion Energy =            337.7469607689347413
    One-Electron Energy =               -1061.3838284316029785
    Two-Electron Energy =                 433.1616514449090118
    DFT Exchange-Correlation Energy =       0.0000000000000000
    Empirical Dispersion Energy =           0.0000000000000000
    PCM Polarization Energy =               0.0000000000000000
    EFP Energy =                            0.0000000000000000
    Total Energy =                       -290.4752162177592254
    Molecular point group: c1
  Basis Set: CC-PVTZ
  Basis Set:

  -Total Gradient:
     Atom            X                  Y                   Z
    ------   -----------------  -----------------  -----------------
       1       -0.000015801495     0.000029106072     0.000009910219
       2        0.000010167290     0.000017477195    -0.000025014729
       3       -0.000843850444    -0.000161036942    -0.002661046330
       4        0.000008714739    -0.000006637833    -0.000012075339
       5        0.000005842112    -0.000017047047    -0.000019787572
       6        0.001072154366    -0.000900021498     0.004441869244
       7       -0.000001226229     0.000014309204    -0.000001199867
       8       -0.000011155213    -0.000005407060     0.000023130285
       9       -0.000204893331     0.003182258446    -0.003250968320
      10       -0.000000397779     0.000007124014    -0.000052926792
      11       -0.000081340711    -0.002236245856     0.001446532317
      12        0.000021261209    -0.000009179228    -0.000006229951
      13       -0.000010266087     0.000006667877     0.000019726371
      14        0.000022788946     0.000043939122     0.000022181096
      15       -0.000028161317     0.000028151664     0.000013402495
      16        0.000004390370    -0.000002304823     0.000006863063
      17       -0.000001919006     0.000012189942    -0.000010568732
      18        0.000001001114    -0.000013229554     0.000023949824
      19        0.000048961043     0.000000264266     0.000015753911
      20        0.000004522119    -0.000012655821     0.000013854165
      21        0.000007477287     0.000002828440     0.000004656532
      22       -0.000008268986     0.000019449420    -0.000002011890

  **** Optimization is complete! (in 7 steps) ****
    Final optimized geometry and variables:
    Molecular point group: c1

    Geometry (in Angstrom), charge = 0, multiplicity = 1:

    H            1.543511811080    -2.828737841076    -1.019393587069
    C            1.387469816664    -1.755305848676    -1.006149362305
    C            0.281441765834    -1.400010689517    -0.020230213978
    H            1.115795331188    -1.435159590867    -2.004513124594
    H            2.332791272898    -1.291941775891    -0.753345363954
    N           -0.005372424579     0.023324385875     0.023021901988
    H           -0.609455124871    -1.925252725888    -0.325441694637
    H            0.535460165052    -1.783634942918     0.972722977959
    C           -1.360261493218     0.355755186111     0.426973990416
    C            0.980215016426     0.775741012065     0.781204452700
    C           -2.456601466566    -0.203965083948    -0.471062158151
    H           -1.445834439346     1.433292881864     0.424923651292
    H           -1.552019006159     0.036784693172     1.457978314767
    C            1.171780475093     2.204190034773     0.287071689101
    H            1.931088155609     0.267713730590     0.706489449879
    H            0.725719972323     0.785104872540     1.844816897505
    H           -2.254416556329     0.024334430353    -1.511015638379
    H           -2.577123382095    -1.274253968238    -0.373974051186
    H           -3.404218556034     0.249390240588    -0.202775890664
    H            1.470253992787     2.204778655878    -0.754031524967
    H            0.270321127469     2.796772332344     0.377005671118
    H            1.944619009973     2.697678077253     0.866774575013

  Mulliken Charges: (a.u.)
   Center  Symbol    Alpha    Beta     Spin     Total
       1     H     0.45287  0.45287  0.00000  0.09427
       2     C     3.14239  3.14239  0.00000 -0.28479
       3     C     3.03987  3.03987  0.00000 -0.07974
       4     H     0.45185  0.45185  0.00000  0.09631
       5     H     0.45575  0.45575  0.00000  0.08850
       6     N     3.62177  3.62177  0.00000 -0.24354
       7     H     0.44975  0.44975  0.00000  0.10050
       8     H     0.46586  0.46586  0.00000  0.06828
       9     C     3.03335  3.03335  0.00000 -0.06671
      10     C     3.04556  3.04556  0.00000 -0.09111
      11     C     3.15404  3.15404  0.00000 -0.30808
      12     H     0.45206  0.45206  0.00000  0.09588
      13     H     0.47024  0.47024  0.00000  0.05952
      14     C     3.14037  3.14037  0.00000 -0.28074
      15     H     0.44849  0.44849  0.00000  0.10302
      16     H     0.46265  0.46265  0.00000  0.07471
      17     H     0.44938  0.44938  0.00000  0.10123
      18     H     0.45401  0.45401  0.00000  0.09199
      19     H     0.44859  0.44859  0.00000  0.10282
      20     H     0.45168  0.45168  0.00000  0.09665
      21     H     0.45624  0.45624  0.00000  0.08751
      22     H     0.45324  0.45324  0.00000  0.09352

   Total alpha = 29.00000, Total beta = 29.00000, Total charge =  0.00000
