  ==> Input File <==

--------------------------------------------------------------------------
set {
	reference rhf
	basis 6-31G*
}

set_num_threads( 4 )
memory 2 gb

molecule MOL {
0 1

H	 -3.261111	 -0.295142	 1.469456
C	 -3.306842	 -0.277400	 0.373456
C	 -2.660244	 0.921717	 -0.272021
O	 -3.838538	 -1.161155	 -0.216482
C	 -1.220012	 1.144545	 0.209990
H	 -2.705793	 0.797307	 -1.347733
H	 -3.263782	 1.790044	 -0.010477
C	 -0.252658	 0.041456	 -0.226725
H	 -0.873521	 2.100229	 -0.171974
H	 -1.211708	 1.231594	 1.295398
C	 1.180775	 0.282413	 0.250794
H	 -0.266029	 -0.034465	 -1.312038
H	 -0.597733	 -0.921000	 0.146291
C	 2.148627	 -0.814315	 -0.201312
H	 1.516199	 1.249228	 -0.115937
H	 1.192670	 0.346017	 1.338083
C	 3.580890	 -0.659131	 0.322722
H	 2.166869	 -0.852443	 -1.289387
H	 1.762857	 -1.776509	 0.128956
C	 3.887709	 0.706680	 0.939198
H	 4.268271	 -0.830912	 -0.501867
H	 3.783631	 -1.439453	 1.053417
H	 3.678467	 1.508220	 0.235622
H	 3.301533	 0.889971	 1.833500
H	 4.934972	 0.777045	 1.217197

	symmetry c1
}
set optking {
	frozen_dihedral = ("
		20 17 14 18
	")
}

ee = optimize('scf')
oeprop('DIPOLE', 'QUADRUPOLE', 'MULLIKEN_CHARGES')
f=open( 'psi4out.xyz', 'w' )
f.write( "25  " )
f.write( str(ee) + "\n" )
f.write( MOL.save_string_xyz() )
f.close()
--------------------------------------------------------------------------

    Molecular point group: c1
  Charge       = 0
  Multiplicity = 1
  Basis Set: 6-31G*
  Basis Set:
  @DF-RHF Final Energy:  -387.11278182820200
    Total Energy =                       -387.1127818282018325
    Molecular point group: c1
  Basis Set: 6-31G*
  Basis Set:
  Basis Set: 6-31G*
  Basis Set:
  @DF-RHF Final Energy:  -387.11316824498346
    Total Energy =                       -387.1131682449833988
  Basis Set: 6-31G*
  Basis Set:
  Basis Set: 6-31G*
  Basis Set:
  @DF-RHF Final Energy:  -387.11450351368666
    Total Energy =                       -387.1145035136865999
  Basis Set: 6-31G*
  Basis Set:
  Basis Set: 6-31G*
  Basis Set:
  @DF-RHF Final Energy:  -387.11447132356022
    Total Energy =                       -387.1144713235604513
  Basis Set: 6-31G*
  Basis Set:
  @DF-RHF Final Energy:  -387.11464246237426
    Total Energy =                       -387.1146424623741495
  @DF-RHF Final Energy:  -387.11467111670356
    Total Energy =                       -387.1146711167043577
  @DF-RHF Final Energy:  -387.11466806221244
    Total Energy =                       -387.1146680622123313
  Basis Set: 6-31G*
  Basis Set:
  @DF-RHF Final Energy:  -387.11467147757918
    Total Energy =                       -387.1146714775790088
  Basis Set: 6-31G*
  Basis Set:
  Basis Set: 6-31G*
  Basis Set:
  @DF-RHF Final Energy:  -387.11466971099804
    Total Energy =                       -387.1146697109982142
  Basis Set: 6-31G*
  Basis Set:
  Basis Set: 6-31G*
  Basis Set:
  @DF-RHF Final Energy:  -387.11467191780116
    Total Energy =                       -387.1146719178011608
  Basis Set: 6-31G*
  Basis Set:
  Charge       = 0
  Multiplicity = 1
  Basis Set: 6-31G*
  Basis Set:

    Orbital Energies (a.u.)
    -----------------------

    Doubly Occupied:

       1A    -20.562014     2A    -11.326172     3A    -11.235334
       4A    -11.234665     5A    -11.223888     6A    -11.220179
       7A    -11.218267     8A    -11.217091     9A    -11.210871
      10A     -1.401955    11A     -1.103324    12A     -1.066736
      13A     -1.012515    14A     -0.942148    15A     -0.878484
      16A     -0.823165    17A     -0.787935    18A     -0.774412
      19A     -0.664426    20A     -0.663669    21A     -0.636618
      22A     -0.622298    23A     -0.602996    24A     -0.589016
      25A     -0.574715    26A     -0.552504    27A     -0.533347
      28A     -0.522428    29A     -0.515361    30A     -0.495340
      31A     -0.490466    32A     -0.481819    33A     -0.461783
      34A     -0.449436    35A     -0.442559    36A     -0.409542

  @DF-RHF Final Energy:  -387.11467197449684

   => Energetics <=

    Nuclear Repulsion Energy =            439.9201853631467998
    One-Electron Energy =               -1396.1747523959190858
    Two-Electron Energy =                 569.1398950582755560
    DFT Exchange-Correlation Energy =       0.0000000000000000
    Empirical Dispersion Energy =           0.0000000000000000
    PCM Polarization Energy =               0.0000000000000000
    EFP Energy =                            0.0000000000000000
    Total Energy =                       -387.1146719744966731
    Molecular point group: c1
  Basis Set: 6-31G*
  Basis Set:

  -Total Gradient:
     Atom            X                  Y                   Z
    ------   -----------------  -----------------  -----------------
       1        0.000003401043    -0.000004996835     0.000000176341
       2       -0.000011969645     0.000007820716    -0.000003288311
       3        0.000000128185    -0.000005693918     0.000002098312
       4        0.000003153158    -0.000006428157     0.000001953919
       5        0.000006166133     0.000001441274     0.000002889124
       6       -0.000000206190     0.000001156273    -0.000000947191
       7        0.000004319910    -0.000001606146     0.000000758878
       8       -0.000000142682     0.000004056252    -0.000001053962
       9        0.000004816836    -0.000002406211    -0.000001515959
      10        0.000002021345     0.000002784967     0.000001441011
      11       -0.000004279483     0.000014877842    -0.000004121884
      12        0.000001960253     0.000002159590    -0.000001324248
      13       -0.000001513907    -0.000000374321     0.000000651100
      14       -0.000724394455     0.004866283391     0.000978795007
      15       -0.000002281454     0.000007008065     0.000001490405
      16       -0.000005453359    -0.000000395364    -0.000006244998
      17        0.001328147253     0.000399899664    -0.004246009905
      18        0.000283343698    -0.004309555715     0.000292939655
      19        0.000007578196    -0.000011161413     0.000000860144
      20       -0.000881389402    -0.000961213807     0.002985266630
      21       -0.000007256126    -0.000005767536    -0.000004201953
      22       -0.000009979282    -0.000008508199     0.000000406207
      23       -0.000003700181     0.000006800383     0.000002622625
      24        0.000010399816     0.000001685601    -0.000000098079
      25       -0.000002869649     0.000002133609    -0.000003542864

  **** Optimization is complete! (in 11 steps) ****
    Final optimized geometry and variables:
    Molecular point group: c1

    Geometry (in Angstrom), charge = 0, multiplicity = 1:

    H           -3.265520042635    -0.367775675921     1.287881406845
    C           -3.283405914427    -0.328615449020     0.191532083080
    C           -2.636865420302     0.891699676651    -0.413143137635
    O           -3.793182020454    -1.204526711325    -0.428752011757
    C           -1.210471602767     1.120635685086     0.106060731322
    H           -2.656599847637     0.789894471804    -1.492062766803
    H           -3.256564870851     1.747087162378    -0.147100159257
    C           -0.219293602121     0.040913824642    -0.335866875607
    H           -0.868160979833     2.090120870209    -0.244043910574
    H           -1.227348095824     1.180391807306     1.193041647752
    C            1.201493339797     0.293164884930     0.173095397470
    H           -0.211684693050    -0.010999023866    -1.422628369906
    H           -0.557289106093    -0.934332549040     0.009619738402
    C            2.179918878161    -0.792856743871    -0.281311158435
    H            1.533637352888     1.268071615600    -0.173773199508
    H            1.185354740581     0.343059420381     1.259761357794
    C            3.651690468684    -0.665955322811     0.195204971287
    H            2.158136609159    -0.867921326419    -1.365825568770
    H            1.796987958755    -1.750901509882     0.062739384529
    C            4.080963246427     0.689414221359     0.764515020489
    H            4.311068577903    -0.924245477557    -0.627690885501
    H            3.834274669274    -1.413299572956     0.962640549918
    H            3.974065573011     1.489752384098     0.038323727897
    H            3.506440385538     0.959737422070     1.643605228818
    H            5.126099929555     0.653578814103     1.056349634368

  Mulliken Charges: (a.u.)
   Center  Symbol    Alpha    Beta     Spin     Total
       1     H     0.43264  0.43264  0.00000  0.13473
       2     C     2.83082  2.83082  0.00000  0.33836
       3     C     3.20814  3.20814  0.00000 -0.41628
       4     O     4.23776  4.23776  0.00000 -0.47552
       5     C     3.16648  3.16648  0.00000 -0.33296
       6     H     0.39970  0.39970  0.00000  0.20060
       7     H     0.40661  0.40661  0.00000  0.18678
       8     C     3.15507  3.15507  0.00000 -0.31013
       9     H     0.41283  0.41283  0.00000  0.17434
      10     H     0.41972  0.41972  0.00000  0.16056
      11     C     3.15453  3.15453  0.00000 -0.30905
      12     H     0.41800  0.41800  0.00000  0.16400
      13     H     0.41842  0.41842  0.00000  0.16317
      14     C     3.15728  3.15728  0.00000 -0.31455
      15     H     0.42059  0.42059  0.00000  0.15883
      16     H     0.42272  0.42272  0.00000  0.15456
      17     C     3.15468  3.15468  0.00000 -0.30936
      18     H     0.42063  0.42063  0.00000  0.15873
      19     H     0.42017  0.42017  0.00000  0.15965
      20     C     3.24230  3.24230  0.00000 -0.48460
      21     H     0.41913  0.41913  0.00000  0.16174
      22     H     0.42088  0.42088  0.00000  0.15824
      23     H     0.42176  0.42176  0.00000  0.15648
      24     H     0.42049  0.42049  0.00000  0.15902
      25     H     0.41866  0.41866  0.00000  0.16268

   Total alpha = 36.00000, Total beta = 36.00000, Total charge = -0.00000
