                              Psi4 1.0.54 Driver

  ==> Input File <==

--------------------------------------------------------------------------
set {
	reference rhf
	basis cc-pvtz
}

set_num_threads( 4 )
memory 2 gb

molecule MOL {
0 1

O	 -2.817697	 1.304178	 0.001046
C	 -2.664672	 0.129869	 0.003507
C	 -3.797908	 -0.860100	 -0.001145
O	 -1.481217	 -0.452708	 0.001092
H	 -4.408836	 -0.679689	 -0.875387
H	 -3.443486	 -1.878443	 -0.002770
H	 -4.412123	 -0.683688	 0.871605
C	 -0.332055	 0.384012	 -0.000250
C	 0.892252	 -0.506059	 -0.000295
H	 -0.360822	 1.020205	 -0.874146
H	 -0.359817	 1.021310	 0.872861
C	 2.188199	 0.299473	 -0.001416
H	 0.857046	 -1.152781	 -0.871031
H	 0.857910	 -1.151798	 0.871202
C	 3.437151	 -0.577593	 -0.000991
H	 2.209565	 0.950707	 -0.871712
H	 2.210062	 0.952234	 0.867721
C	 4.277596	 -0.420050	 1.261483
H	 4.043245	 -0.337799	 -0.870017
H	 3.144112	 -1.617766	 -0.111693
H	 4.614898	 0.603945	 1.381926
H	 5.155076	 -1.055304	 1.230059
H	 3.708683	 -0.685633	 2.146162

	symmetry c1
}
set optking {
	frozen_dihedral = ("
		19 15 12 16
	")
}

ee,wfn = optimize('scf', return_wfn=True)
oeprop( wfn, 'DIPOLE', 'QUADRUPOLE', 'MULLIKEN_CHARGES')
f=open( 'psi4out.xyz', 'w' )
f.write( "23  " )
f.write( str(ee) + "\n" )
f.write( MOL.save_string_xyz() )
f.close()
--------------------------------------------------------------------------

    Molecular point group: c1
  Charge       = 0
  Multiplicity = 1
  Basis Set: CC-PVTZ
  Basis Set:
  @DF-RHF Final Energy:  -423.12890028661002
    Total Energy =                       -423.1289002866099054
    Molecular point group: c1
  Basis Set: CC-PVTZ
  Basis Set:
  Basis Set: CC-PVTZ
  Basis Set:
  @DF-RHF Final Energy:  -423.12897305080298
    Total Energy =                       -423.1289730508026423
  Basis Set: CC-PVTZ
  Basis Set:
  Basis Set: CC-PVTZ
  Basis Set:
  @DF-RHF Final Energy:  -423.12906426717495
    Total Energy =                       -423.1290642671750675
  Basis Set: CC-PVTZ
  Basis Set:
  Basis Set: CC-PVTZ
  Basis Set:
  @DF-RHF Final Energy:  -423.12919622688560
    Total Energy =                       -423.1291962268857105
  Basis Set: CC-PVTZ
  Basis Set:
  Basis Set: CC-PVTZ
  Basis Set:
  @DF-RHF Final Energy:  -423.12922163223624
    Total Energy =                       -423.1292216322367494
  Basis Set: CC-PVTZ
  Basis Set:
  Charge       = 0
  Multiplicity = 1
  Basis Set: CC-PVTZ
  Basis Set:

    Orbital Energies (a.u.)
    -----------------------

    Doubly Occupied:

       1A    -20.596001     2A    -20.529567     3A    -11.366453
       4A    -11.279290     5A    -11.230729     6A    -11.222864
       7A    -11.221113     8A    -11.219229     9A    -11.211602
      10A     -1.471187    11A     -1.364029    12A     -1.093619
      13A     -1.042067    14A     -1.003903    15A     -0.931305
      16A     -0.845490    17A     -0.801871    18A     -0.775809
      19A     -0.694060    20A     -0.688506    21A     -0.672384
      22A     -0.637782    23A     -0.613270    24A     -0.595064
      25A     -0.582597    26A     -0.571844    27A     -0.550890
      28A     -0.533989    29A     -0.528636    30A     -0.504910
      31A     -0.500931    32A     -0.475025    33A     -0.465421
      34A     -0.463940    35A     -0.455397    36A     -0.438800

  @DF-RHF Final Energy:  -423.12922209737565

   => Energetics <=

    Nuclear Repulsion Energy =            451.7853744235904969
    One-Electron Energy =               -1471.4700471107253179
    Two-Electron Energy =                 596.5554505897589479
    DFT Exchange-Correlation Energy =       0.0000000000000000
    Empirical Dispersion Energy =           0.0000000000000000
    PCM Polarization Energy =               0.0000000000000000
    EFP Energy =                            0.0000000000000000
    Total Energy =                       -423.1292220973758731
    Molecular point group: c1
  Basis Set: CC-PVTZ
  Basis Set:

  -Total Gradient:
     Atom            X                  Y                   Z
    ------   -----------------  -----------------  -----------------
       1       -0.000018452058     0.000093044608     0.000053426718
       2        0.000020139350    -0.000068502980    -0.000143612379
       3        0.000006027895    -0.000005630865     0.000065187111
       4        0.000003880570    -0.000020220440     0.000026399096
       5       -0.000015642950     0.000001615026    -0.000028862176
       6        0.000004864164    -0.000014273183    -0.000002562336
       7       -0.000006763636     0.000007663683     0.000011323919
       8       -0.000005349171    -0.000003732184     0.000119113868
       9        0.000008612158     0.000011756249    -0.000076851055
      10       -0.000002494684    -0.000005614732    -0.000032143662
      11       -0.000004489313     0.000037828942     0.000014970735
      12       -0.000641521566    -0.000986552251    -0.000704228914
      13       -0.000007139388     0.000005126141    -0.000043785668
      14        0.000011101607    -0.000034082403     0.000012411623
      15        0.000626828391     0.000977887607     0.000756218517
      16        0.000452206307     0.000620833553     0.000432332468
      17       -0.000003248030     0.000003238266     0.000010301879
      18        0.000001783643     0.000015092224    -0.000020645527
      19       -0.000435872133    -0.000600487668    -0.000493934043
      20       -0.000007818078    -0.000010354282     0.000014544061
      21        0.000016865326     0.000019834963    -0.000016270285
      22        0.000030930374    -0.000045956531     0.000002352339
      23       -0.000034448782     0.000001486260     0.000044313711

  **** Optimization is complete! (in 6 steps) ****
    Final optimized geometry and variables:
    Molecular point group: c1

    Geometry (in Angstrom), charge = 0, multiplicity = 1:

    O           -2.769125054614     1.374995566925    -0.134190226947
    C           -2.614468291314     0.200843599386    -0.140644259891
    C           -3.746442948680    -0.790825047227    -0.138526679235
    O           -1.430139785511    -0.379797734552    -0.149292728823
    H           -4.364690712466    -0.609085939848    -1.007453753734
    H           -3.390603005308    -1.808709149461    -0.145578960338
    H           -4.353773279280    -0.617336515063     0.739709168959
    C           -0.282596385478     0.458765034058    -0.150866295418
    C            0.943146096761    -0.428831916147    -0.164017615457
    H           -0.316484152798     1.101073817386    -1.020317124444
    H           -0.306212169699     1.090479801905     0.726603691222
    C            2.238908548164     0.378482426435    -0.170301043310
    H            0.904134129701    -1.071807603709    -1.037386315332
    H            0.917511639185    -1.079236660349     0.704873892431
    C            3.506529339643    -0.500227114904    -0.139585547044
    H            2.256020592306     1.022660510061    -1.043481062021
    H            2.242837043290     1.046009033792     0.686580256571
    C            4.329289692023    -0.339281227390     1.135066174091
    H            4.129875702305    -0.276348205011    -0.998013474394
    H            3.225046939958    -1.543010399140    -0.246234833025
    H            4.680177577598     0.681048349490     1.246976442986
    H            5.196627296990    -0.989612864864     1.127482711205
    H            3.740085571981    -0.582879854291     2.013356977344

  Mulliken Charges: (a.u.)
   Center  Symbol    Alpha    Beta     Spin     Total
       1     O     4.20242  4.20242  0.00000 -0.40485
       2     C     2.81500  2.81500  0.00000  0.37000
       3     C     3.13994  3.13994  0.00000 -0.27989
       4     O     4.14494  4.14494  0.00000 -0.28987
       5     H     0.44211  0.44211  0.00000  0.11577
       6     H     0.44190  0.44190  0.00000  0.11620
       7     H     0.44210  0.44210  0.00000  0.11579
       8     C     2.97921  2.97921  0.00000  0.04157
       9     C     3.08289  3.08289  0.00000 -0.16577
      10     H     0.45423  0.45423  0.00000  0.09154
      11     H     0.45396  0.45396  0.00000  0.09207
      12     C     3.10485  3.10485  0.00000 -0.20970
      13     H     0.44992  0.44992  0.00000  0.10017
      14     H     0.45047  0.45047  0.00000  0.09906
      15     C     3.08974  3.08974  0.00000 -0.17948
      16     H     0.44672  0.44672  0.00000  0.10656
      17     H     0.45301  0.45301  0.00000  0.09398
      18     C     3.14686  3.14686  0.00000 -0.29372
      19     H     0.44821  0.44821  0.00000  0.10359
      20     H     0.45370  0.45370  0.00000  0.09259
      21     H     0.45393  0.45393  0.00000  0.09215
      22     H     0.44882  0.44882  0.00000  0.10235
      23     H     0.45505  0.45505  0.00000  0.08989

   Total alpha = 36.00000, Total beta = 36.00000, Total charge = -0.00000

*** Psi4 exiting successfully. Buy a developer a beer!
