                              Psi4 1.0.54 Driver

  ==> Input File <==

--------------------------------------------------------------------------
set {
	reference rhf
	basis cc-pvtz
}

set_num_threads( 4 )
memory 2 gb

molecule MOL {
0 1

H	 -3.258660	 -0.290394	 1.471450
C	 -3.307964	 -0.275695	 0.374072
C	 -2.653809	 0.914422	 -0.273689
O	 -3.855140	 -1.148880	 -0.205112
C	 -1.216901	 1.136108	 0.207794
H	 -2.700131	 0.790676	 -1.347875
H	 -3.256452	 1.781007	 -0.010713
C	 -0.247837	 0.040196	 -0.230469
H	 -0.872882	 2.093195	 -0.169002
H	 -1.209325	 1.218376	 1.291938
C	 1.181757	 0.280428	 0.247371
H	 -0.259600	 -0.030819	 -1.314870
H	 -0.591284	 -0.923375	 0.136958
C	 2.151032	 -0.811012	 -0.202643
H	 1.515939	 1.247397	 -0.115449
H	 1.191514	 0.341223	 1.333422
C	 3.580021	 -0.656538	 0.320835
H	 2.170545	 -0.847575	 -1.289412
H	 1.766632	 -1.772905	 0.124928
C	 4.655452	 -1.282448	 -0.563907
H	 3.634016	 -1.109314	 1.305960
H	 3.798169	 0.398910	 0.461355
H	 4.459650	 -2.337405	 -0.727378
H	 4.713783	 -0.802854	 -1.533584
H	 5.631594	 -1.196968	 -0.100437

	symmetry c1
}
set optking {
	frozen_dihedral = ("
		20 17 14 18
	")
}

ee,wfn = optimize('scf', return_wfn=True)
oeprop( wfn, 'DIPOLE', 'QUADRUPOLE', 'MULLIKEN_CHARGES')
f=open( 'psi4out.xyz', 'w' )
f.write( "25  " )
f.write( str(ee) + "\n" )
f.write( MOL.save_string_xyz() )
f.close()
--------------------------------------------------------------------------

    Molecular point group: c1
  Charge       = 0
  Multiplicity = 1
  Basis Set: CC-PVTZ
  Basis Set:
  @DF-RHF Final Energy:  -387.25937198013804
    Total Energy =                       -387.2593719801377574
    Molecular point group: c1
  Basis Set: CC-PVTZ
  Basis Set:
  Basis Set: CC-PVTZ
  Basis Set:
  @DF-RHF Final Energy:  -387.25979089552357
    Total Energy =                       -387.2597908955237926
  Basis Set: CC-PVTZ
  Basis Set:
  Basis Set: CC-PVTZ
  Basis Set:
  @DF-RHF Final Energy:  -387.25982544475249
    Total Energy =                       -387.2598254447526642
  Basis Set: CC-PVTZ
  Basis Set:
  Basis Set: CC-PVTZ
  Basis Set:
  @DF-RHF Final Energy:  -387.25965172122380
    Total Energy =                       -387.2596517212242588
  Basis Set: CC-PVTZ
  Basis Set:
  Basis Set: CC-PVTZ
  Basis Set:
  @DF-RHF Final Energy:  -387.25982946423790
    Total Energy =                       -387.2598294642385781
  Basis Set: CC-PVTZ
  Basis Set:
  Charge       = 0
  Multiplicity = 1
  Basis Set: CC-PVTZ
  Basis Set:

    Orbital Energies (a.u.)
    -----------------------

    Doubly Occupied:

       1A    -20.551432     2A    -11.321046     3A    -11.233876
       4A    -11.232949     5A    -11.221794     6A    -11.218630
       7A    -11.215719     8A    -11.214482     9A    -11.208638
      10A     -1.406435    11A     -1.105276    12A     -1.070743
      13A     -1.016475    14A     -0.944587    15A     -0.868895
      16A     -0.815475    17A     -0.795092    18A     -0.787610
      19A     -0.668223    20A     -0.664957    21A     -0.640192
      22A     -0.615976    23A     -0.610399    24A     -0.592655
      25A     -0.567741    26A     -0.558073    27A     -0.538169
      28A     -0.520034    29A     -0.510898    30A     -0.502743
      31A     -0.485772    32A     -0.479737    33A     -0.467018
      34A     -0.461864    35A     -0.442213    36A     -0.411930

  @DF-RHF Final Energy:  -387.25982859840190

   => Energetics <=

    Nuclear Repulsion Energy =            436.0625794216762188
    One-Electron Energy =               -1388.7093232116667423
    Two-Electron Energy =                 565.3869151915885141
    DFT Exchange-Correlation Energy =       0.0000000000000000
    Empirical Dispersion Energy =           0.0000000000000000
    PCM Polarization Energy =               0.0000000000000000
    EFP Energy =                            0.0000000000000000
    Total Energy =                       -387.2598285984020094
    Molecular point group: c1
  Basis Set: CC-PVTZ
  Basis Set:

  -Total Gradient:
     Atom            X                  Y                   Z
    ------   -----------------  -----------------  -----------------
       1       -0.000060055829     0.000037477711     0.000020673122
       2        0.000213821653    -0.000109613701    -0.000027351469
       3       -0.000057376209     0.000007917467     0.000040818064
       4       -0.000074783725    -0.000003120627    -0.000019154677
       5        0.000035817558     0.000023732185    -0.000067482143
       6       -0.000005539556     0.000023890782    -0.000019354845
       7       -0.000016555550     0.000014671128     0.000029305975
       8       -0.000019983418    -0.000030274478     0.000021632735
       9        0.000023975993    -0.000007550008    -0.000011408279
      10        0.000003511583     0.000026075903     0.000004797335
      11       -0.000016028261    -0.000003608320    -0.000000015044
      12        0.000002007893     0.000018875958     0.000006132716
      13       -0.000025034371    -0.000004834304     0.000002499746
      14       -0.000390487428     0.006229699205    -0.000948004334
      15       -0.000007312086    -0.000017435076    -0.000003269070
      16        0.000011069495    -0.000009547601     0.000005351336
      17       -0.000301613128    -0.004691198811     0.002308691969
      18        0.000399349691    -0.004149966583     0.000218562464
      19        0.000011274993     0.000016141601     0.000038839311
      20        0.000309665915     0.002627817481    -0.001617343218
      21        0.000001612216    -0.000004602966     0.000006166112
      22        0.000002084251    -0.000018915128    -0.000014400159
      23        0.000003270958     0.000054327076     0.000024839587
      24        0.000016327412    -0.000027155682     0.000030517431
      25       -0.000059020052    -0.000002803214    -0.000031044666

  **** Optimization is complete! (in 6 steps) ****
    Final optimized geometry and variables:
    Molecular point group: c1

    Geometry (in Angstrom), charge = 0, multiplicity = 1:

    H           -3.298248074998    -0.056600434749     1.493860906927
    C           -3.345551062349    -0.034017748503     0.396487375673
    C           -2.678310258152     1.153732287335    -0.242308615164
    O           -3.901861922272    -0.896890164461    -0.189437860921
    C           -1.240310233000     1.357868810799     0.243307854848
    H           -2.723790519997     1.037463581712    -1.317406962977
    H           -3.272942901256     2.024517365054     0.025138357363
    C           -0.284207449880     0.248837328172    -0.190338192589
    H           -0.882714977767     2.309891060423    -0.133669573122
    H           -1.235029252315     1.441489979791     1.327363837468
    C            1.146351612499     0.471843268302     0.290753014670
    H           -0.293840861880     0.175677767575    -1.274630706851
    H           -0.640603236582    -0.709565448322     0.178270638906
    C            2.112280379244    -0.620278218651    -0.154878288933
    H            1.501639326743     1.433200163687    -0.072056139896
    H            1.155076887795     0.535541332452     1.376599585390
    C            3.535933169150    -0.445628426145     0.384632758059
    H            2.137735742205    -0.682762689940    -1.239631707559
    H            1.730130273854    -1.585327489788     0.170183266734
    C            4.598717645564    -1.097125521345    -0.494138599674
    H            3.594864689865    -0.839490896885     1.394335858871
    H            3.760935489300     0.614831311413     0.462223822258
    H            4.416663311695    -2.160457245942    -0.613182241434
    H            4.606558099795    -0.652233859024    -1.483107822502
    H            5.588335332918    -0.978204182246    -0.068225362897

  Mulliken Charges: (a.u.)
   Center  Symbol    Alpha    Beta     Spin     Total
       1     H     0.46410  0.46410  0.00000  0.07179
       2     C     2.90471  2.90471  0.00000  0.19058
       3     C     3.08926  3.08926  0.00000 -0.17852
       4     O     4.16628  4.16628  0.00000 -0.33257
       5     C     3.11648  3.11648  0.00000 -0.23296
       6     H     0.44286  0.44286  0.00000  0.11427
       7     H     0.44048  0.44048  0.00000  0.11903
       8     C     3.09089  3.09089  0.00000 -0.18178
       9     H     0.44308  0.44308  0.00000  0.11385
      10     H     0.44979  0.44979  0.00000  0.10042
      11     C     3.08960  3.08960  0.00000 -0.17920
      12     H     0.44964  0.44964  0.00000  0.10073
      13     H     0.44822  0.44822  0.00000  0.10357
      14     C     3.08980  3.08980  0.00000 -0.17960
      15     H     0.45320  0.45320  0.00000  0.09360
      16     H     0.45345  0.45345  0.00000  0.09311
      17     C     3.08548  3.08548  0.00000 -0.17096
      18     H     0.45385  0.45385  0.00000  0.09229
      19     H     0.45275  0.45275  0.00000  0.09451
      20     C     3.14900  3.14900  0.00000 -0.29801
      21     H     0.45204  0.45204  0.00000  0.09593
      22     H     0.45679  0.45679  0.00000  0.08641
      23     H     0.45421  0.45421  0.00000  0.09159
      24     H     0.45518  0.45518  0.00000  0.08965
      25     H     0.44887  0.44887  0.00000  0.10227

   Total alpha = 36.00000, Total beta = 36.00000, Total charge = -0.00000

*** Psi4 exiting successfully. Buy a developer a beer!
