  ==> Input File <==

--------------------------------------------------------------------------
set {
	reference rhf
	basis 6-31G*
}

set_num_threads( 4 )
memory 2 gb

molecule MOL {
0 1

H	 -2.798360	 -0.862255	 -0.071053
N	 -1.863561	 -0.715187	 0.256814
C	 -1.344686	 0.554728	 -0.219830
H	 -1.300452	 -1.461917	 -0.101532
C	 -1.775012	 0.783682	 -1.653544
H	 -1.664200	 1.410869	 0.375935
H	 -0.260021	 0.521024	 -0.185960
O	 -3.168508	 0.904493	 -1.679217
H	 -1.313419	 1.689892	 -2.045148
H	 -1.457626	 -0.055178	 -2.269025
C	 -3.710242	 1.034519	 -2.954830
H	 -4.783079	 1.120519	 -2.848424
H	 -3.334738	 1.923814	 -3.457954
H	 -3.485224	 0.167600	 -3.572590

	symmetry c1
}
set optking {
	frozen_dihedral = ("
		6 3 2 4
	")
}

ee = optimize('scf')
oeprop('DIPOLE', 'QUADRUPOLE', 'MULLIKEN_CHARGES')
f=open( 'psi4out.xyz', 'w' )
f.write( "14  " )
f.write( str(ee) + "\n" )
f.write( MOL.save_string_xyz() )
f.close()
--------------------------------------------------------------------------

    Molecular point group: c1
  Charge       = 0
  Multiplicity = 1
  Basis Set: 6-31G*
  Basis Set:
  @DF-RHF Final Energy:  -248.12165271950005
    Total Energy =                       -248.1216527194998207
    Molecular point group: c1
  Basis Set: 6-31G*
  Basis Set:
  Basis Set: 6-31G*
  Basis Set:
  @DF-RHF Final Energy:  -248.12384860243762
    Total Energy =                       -248.1238486024375334
  Basis Set: 6-31G*
  Basis Set:
  Basis Set: 6-31G*
  Basis Set:
  @DF-RHF Final Energy:  -248.12413735619413
    Total Energy =                       -248.1241373561938417
  Basis Set: 6-31G*
  Basis Set:
  Basis Set: 6-31G*
  Basis Set:
  @DF-RHF Final Energy:  -248.12414390193905
    Total Energy =                       -248.1241439019390214
  Basis Set: 6-31G*
  Basis Set:
  Charge       = 0
  Multiplicity = 1
  Basis Set: 6-31G*
  Basis Set:

    Orbital Energies (a.u.)
    -----------------------

    Doubly Occupied:

       1A    -20.561450     2A    -15.527548     3A    -11.269940
       4A    -11.269190     5A    -11.241083     6A     -1.385623
       7A     -1.173111     8A     -1.000038     9A     -0.910093
      10A     -0.822783    11A     -0.685271    12A     -0.673798
      13A     -0.646902    14A     -0.631609    15A     -0.586124
      16A     -0.554181    17A     -0.518913    18A     -0.504446
      19A     -0.481359    20A     -0.421559    21A     -0.376376

  @DF-RHF Final Energy:  -248.12414495889996

   => Energetics <=

    Nuclear Repulsion Energy =            194.2870841000471671
    One-Electron Energy =                -722.3396640293713062
    Two-Electron Energy =                 279.9284349704241208
    DFT Exchange-Correlation Energy =       0.0000000000000000
    Empirical Dispersion Energy =           0.0000000000000000
    PCM Polarization Energy =               0.0000000000000000
    EFP Energy =                            0.0000000000000000
    Total Energy =                       -248.1241449588999899
    Molecular point group: c1
  Basis Set: 6-31G*
  Basis Set:

  -Total Gradient:
     Atom            X                  Y                   Z
    ------   -----------------  -----------------  -----------------
       1        0.000012486658    -0.000029486452     0.000002029370
       2       -0.001793329135    -0.000412519597    -0.002318524006
       3       -0.002179565202     0.000314183999    -0.001180311046
       4        0.001790481653     0.000298669976     0.002105486977
       5        0.000041970648     0.000041704400     0.000107160351
       6        0.002119057343    -0.000201723931     0.001306691782
       7        0.000018916605     0.000004387045    -0.000031165450
       8        0.000029125618    -0.000033660329    -0.000004409747
       9        0.000009585384     0.000020365144    -0.000021810171
      10       -0.000059335038     0.000014482377     0.000039836683
      11        0.000011386474    -0.000014562461    -0.000015805539
      12        0.000000279929    -0.000002752610     0.000003497242
      13        0.000004334003    -0.000001348281     0.000011681093
      14       -0.000005394940     0.000002260720    -0.000004357537

  **** Optimization is complete! (in 5 steps) ****
    Final optimized geometry and variables:
    Molecular point group: c1

    Geometry (in Angstrom), charge = 0, multiplicity = 1:

    H           -0.424994697465    -1.312512486436     1.386429903235
    N            0.543432328782    -1.190847846145     1.607545411643
    C            1.047802312132     0.038317366962     1.026287051602
    H            1.047973431270    -1.986758986731     1.270765295702
    C            0.609047292453     0.301410649746    -0.405190316649
    H            0.743120568426     0.870455582773     1.652163943931
    H            2.133107419297     0.013699661528     1.058217234679
    O           -0.786681547674     0.356521116510    -0.435330476143
    H            1.032929897587     1.239559031346    -0.764566258208
    H            0.964959149677    -0.494608357382    -1.061076894544
    C           -1.329443148980     0.560071691513    -1.701067910690
    H           -2.405497544651     0.583029681948    -1.596448247216
    H           -0.997093245234     1.503839429144    -2.128889430329
    H           -1.058309636654    -0.242656281010    -2.384352228103

  Mulliken Charges: (a.u.)
   Center  Symbol    Alpha    Beta     Spin     Total
       1     H     0.32259  0.32259  0.00000  0.35482
       2     N     3.92349  3.92349  0.00000 -0.84699
       3     C     3.06873  3.06873  0.00000 -0.13746
       4     H     0.33539  0.33539  0.00000  0.32922
       5     C     2.99504  2.99504  0.00000  0.00993
       6     H     0.41157  0.41157  0.00000  0.17686
       7     H     0.42108  0.42108  0.00000  0.15784
       8     O     4.30688  4.30688  0.00000 -0.61376
       9     H     0.43116  0.43116  0.00000  0.13769
      10     H     0.43557  0.43557  0.00000  0.12885
      11     C     3.07913  3.07913  0.00000 -0.15827
      12     H     0.41122  0.41122  0.00000  0.17757
      13     H     0.42857  0.42857  0.00000  0.14286
      14     H     0.42957  0.42957  0.00000  0.14085

   Total alpha = 21.00000, Total beta = 21.00000, Total charge =  0.00000
