  ==> Input File <==

--------------------------------------------------------------------------
set {
	reference rhf
	basis 6-31G*
}

set_num_threads( 4 )
memory 2 gb

molecule MOL {
0 1

H	 3.695305	 -0.973101	 -0.218990
O	 2.826016	 -1.159218	 0.122261
C	 2.077727	 -0.067559	 -0.035091
C	 0.624473	 -0.343591	 0.253101
O	 2.542965	 0.974826	 -0.363729
C	 -0.265902	 0.883932	 0.072916
H	 0.324016	 -1.163849	 -0.390541
H	 0.565024	 -0.726111	 1.268924
C	 -1.728698	 0.646073	 0.462102
H	 -0.209144	 1.219470	 -0.958188
H	 0.135059	 1.692851	 0.673903
C	 -2.482460	 -0.343073	 -0.431425
H	 -2.245265	 1.602650	 0.432430
H	 -1.779332	 0.308348	 1.496285
C	 -3.960546	 -0.461025	 -0.060175
H	 -2.395034	 -0.026811	 -1.468912
H	 -2.024850	 -1.327147	 -0.371646
H	 -4.472726	 -1.168004	 -0.705284
H	 -4.465146	 0.496508	 -0.151489
H	 -4.081218	 -0.800940	 0.964585

	symmetry c1
}
set optking {
	frozen_dihedral = ("
		1 2 3 5
	")
}

ee = optimize('scf')
oeprop('DIPOLE', 'QUADRUPOLE', 'MULLIKEN_CHARGES')
f=open( 'psi4out.xyz', 'w' )
f.write( "20  " )
f.write( str(ee) + "\n" )
f.write( MOL.save_string_xyz() )
f.close()
--------------------------------------------------------------------------

    Molecular point group: c1
  Charge       = 0
  Multiplicity = 1
  Basis Set: 6-31G*
  Basis Set:
  @DF-RHF Final Energy:  -383.94809626173361
    Total Energy =                       -383.9480962617334399
    Molecular point group: c1
  Basis Set: 6-31G*
  Basis Set:
  Basis Set: 6-31G*
  Basis Set:
  @DF-RHF Final Energy:  -383.94658042711410
    Total Energy =                       -383.9465804271142133
  Basis Set: 6-31G*
  Basis Set:
  Basis Set: 6-31G*
  Basis Set:
  @DF-RHF Final Energy:  -383.94815358689044
    Total Energy =                       -383.9481535868904984
  Basis Set: 6-31G*
  Basis Set:
  Basis Set: 6-31G*
  Basis Set:
  @DF-RHF Final Energy:  -383.94816009922920
    Total Energy =                       -383.9481600992290282
  Basis Set: 6-31G*
  Basis Set:
  Charge       = 0
  Multiplicity = 1
  Basis Set: 6-31G*
  Basis Set:

    Orbital Energies (a.u.)
    -----------------------

    Doubly Occupied:

       1A    -20.612043     2A    -20.551830     3A    -11.381155
       4A    -11.240136     5A    -11.222915     6A    -11.220735
       7A    -11.220140     8A    -11.212457     9A     -1.474101
      10A     -1.365750    11A     -1.096224    12A     -1.040913
      13A     -0.961212    14A     -0.868808    15A     -0.816431
      16A     -0.776690    17A     -0.699584    18A     -0.689861
      19A     -0.664439    20A     -0.634716    21A     -0.605517
      22A     -0.592838    23A     -0.573255    24A     -0.555348
      25A     -0.541492    26A     -0.512775    27A     -0.495914
      28A     -0.479141    29A     -0.470300    30A     -0.467649
      31A     -0.457386    32A     -0.443626

  @DF-RHF Final Energy:  -383.94815990094747

   => Energetics <=

    Nuclear Repulsion Energy =            375.9502413109074155
    One-Electron Energy =               -1267.9060379224208646
    Two-Electron Energy =                 508.0076367105654072
    DFT Exchange-Correlation Energy =       0.0000000000000000
    Empirical Dispersion Energy =           0.0000000000000000
    PCM Polarization Energy =               0.0000000000000000
    EFP Energy =                            0.0000000000000000
    Total Energy =                       -383.9481599009480988
    Molecular point group: c1
  Basis Set: 6-31G*
  Basis Set:

  -Total Gradient:
     Atom            X                  Y                   Z
    ------   -----------------  -----------------  -----------------
       1       -0.001038784254    -0.001392061646    -0.003572482310
       2        0.001399843652     0.002186519270     0.005956367284
       3       -0.000810152533    -0.001652003522    -0.005869223655
       4       -0.000004694199    -0.000051793755    -0.000162689376
       5        0.000404825868     0.000869328373     0.003474155531
       6        0.000034978195     0.000024482564     0.000097311106
       7       -0.000020277727    -0.000022429829     0.000046107505
       8       -0.000008317059     0.000021812104     0.000064585304
       9       -0.000024745584     0.000047517761    -0.000029400547
      10       -0.000001701482     0.000033653834     0.000000239578
      11        0.000016015427    -0.000044603539     0.000001881930
      12        0.000028992738    -0.000004178138    -0.000004678424
      13       -0.000012536107    -0.000005938081    -0.000033024054
      14       -0.000026448518     0.000039678042     0.000008526778
      15        0.000005221290    -0.000025362625     0.000019218756
      16       -0.000015138952     0.000008427639     0.000018155833
      17        0.000071147435    -0.000029090839    -0.000018950452
      18        0.000001516443    -0.000003903233     0.000002956568
      19        0.000007555237    -0.000000051346    -0.000003249126
      20       -0.000007299877    -0.000000003031     0.000004191771

  **** Optimization is complete! (in 5 steps) ****
    Final optimized geometry and variables:
    Molecular point group: c1

    Geometry (in Angstrom), charge = 0, multiplicity = 1:

    H            3.705721168963    -0.969218447665    -0.169452205483
    O            2.829457002073    -1.152378291105     0.154741494824
    C            2.075325130465    -0.071597467270    -0.049399964558
    C            0.622782895937    -0.344625219797     0.244645775530
    O            2.538643650899     0.966238491843    -0.393844145129
    C           -0.264604417387     0.887002270408     0.078450357988
    H            0.316446712516    -1.158713154722    -0.404172328415
    H            0.567121549894    -0.735526278554     1.257481895002
    C           -1.727332017745     0.648971061324     0.467824010565
    H           -0.208734611359     1.232884616061    -0.949233796896
    H            0.139528195249     1.688743426662     0.686964913210
    C           -2.481387496734    -0.338813857691    -0.426949397458
    H           -2.243821781435     1.605634737868     0.439738125062
    H           -1.777724755343     0.309649556842     1.501481727228
    C           -3.958025338686    -0.461799819394    -0.051617970751
    H           -2.397908124378    -0.018606428612    -1.463556685256
    H           -2.021149024273    -1.321974500197    -0.372086975246
    H           -4.470389593452    -1.167887845539    -0.697556323057
    H           -4.465310233689     0.494760753010    -0.138151902666
    H           -4.074711103641    -0.805481942144     0.972342053145

  Mulliken Charges: (a.u.)
   Center  Symbol    Alpha    Beta     Spin     Total
       1     H     0.26779  0.26779  0.00000  0.46443
       2     O     4.35198  4.35198  0.00000 -0.70396
       3     C     2.62260  2.62260  0.00000  0.75479
       4     C     3.21288  3.21288  0.00000 -0.42576
       5     O     4.27833  4.27833  0.00000 -0.55667
       6     C     3.15434  3.15434  0.00000 -0.30868
       7     H     0.39741  0.39741  0.00000  0.20518
       8     H     0.39866  0.39866  0.00000  0.20268
       9     C     3.15546  3.15546  0.00000 -0.31093
      10     H     0.41213  0.41213  0.00000  0.17573
      11     H     0.40820  0.40820  0.00000  0.18359
      12     C     3.15494  3.15494  0.00000 -0.30988
      13     H     0.41787  0.41787  0.00000  0.16426
      14     H     0.42359  0.42359  0.00000  0.15282
      15     C     3.23920  3.23920  0.00000 -0.47840
      16     H     0.42153  0.42153  0.00000  0.15694
      17     H     0.42281  0.42281  0.00000  0.15438
      18     H     0.41837  0.41837  0.00000  0.16326
      19     H     0.42063  0.42063  0.00000  0.15874
      20     H     0.42127  0.42127  0.00000  0.15747

   Total alpha = 32.00000, Total beta = 32.00000, Total charge = -0.00000
