                              Psi4 1.0.54 Driver

  ==> Input File <==

--------------------------------------------------------------------------
set {
	reference rhf
	basis cc-pvtz
}

set_num_threads( 4 )
memory 2 gb

molecule MOL {
0 1

H	 2.828711	 -0.346904	 0.001083
C	 1.876752	 0.015931	 -0.363450
C	 0.776285	 -0.474665	 0.563092
H	 1.728113	 -0.357244	 -1.367440
H	 1.906171	 1.096574	 -0.386153
N	 -0.540022	 0.017605	 0.071630
H	 0.707111	 -1.548969	 0.573035
H	 0.886169	 -0.084184	 1.560432
O	 -0.687257	 1.191136	 -0.001452
O	 -1.361118	 -0.797130	 -0.186058

	symmetry c1
}
set optking {
	frozen_dihedral = ("
		9 6 3 2
	")
}

ee,wfn = optimize('scf', return_wfn=True)
oeprop( wfn, 'DIPOLE', 'QUADRUPOLE', 'MULLIKEN_CHARGES')
f=open( 'psi4out.xyz', 'w' )
f.write( "10  " )
f.write( str(ee) + "\n" )
f.write( MOL.save_string_xyz() )
f.close()
--------------------------------------------------------------------------

    Molecular point group: c1
  Charge       = 0
  Multiplicity = 1
  Basis Set: CC-PVTZ
  Basis Set:
  @DF-RHF Final Energy:  -282.81299314145417
    Total Energy =                       -282.8129931414542284
    Molecular point group: c1
  Basis Set: CC-PVTZ
  Basis Set:
  Basis Set: CC-PVTZ
  Basis Set:
  @DF-RHF Final Energy:  -282.80794459586554
    Total Energy =                       -282.8079445958655924
  Basis Set: CC-PVTZ
  Basis Set:
  Basis Set: CC-PVTZ
  Basis Set:
  @DF-RHF Final Energy:  -282.81290785573646
    Total Energy =                       -282.8129078557363982
  Basis Set: CC-PVTZ
  Basis Set:
  Basis Set: CC-PVTZ
  Basis Set:
  @DF-RHF Final Energy:  -282.81319176474051
    Total Energy =                       -282.8131917647405658
  Basis Set: CC-PVTZ
  Basis Set:
  Basis Set: CC-PVTZ
  Basis Set:
  @DF-RHF Final Energy:  -282.81307791806819
    Total Energy =                       -282.8130779180681884
  Basis Set: CC-PVTZ
  Basis Set:
  Basis Set: CC-PVTZ
  Basis Set:
  @DF-RHF Final Energy:  -282.81322395438434
    Total Energy =                       -282.8132239543845685
  Basis Set: CC-PVTZ
  Basis Set:
  Basis Set: CC-PVTZ
  Basis Set:
  @DF-RHF Final Energy:  -282.81322472991803
    Total Energy =                       -282.8132247299180335
  Basis Set: CC-PVTZ
  Basis Set:
  Charge       = 0
  Multiplicity = 1
  Basis Set: CC-PVTZ
  Basis Set:

    Orbital Energies (a.u.)
    -----------------------

    Doubly Occupied:

       1A    -20.594061     2A    -20.590317     3A    -15.838758
       4A    -11.302171     5A    -11.248566     6A     -1.638039
       7A     -1.422367     8A     -1.125580     9A     -0.966917
      10A     -0.838505    11A     -0.764375    12A     -0.742032
      13A     -0.730758    14A     -0.655569    15A     -0.590846
      16A     -0.562225    17A     -0.544700    18A     -0.489305
      19A     -0.479394    20A     -0.455444

  @DF-RHF Final Energy:  -282.81322494995146

   => Energetics <=

    Nuclear Repulsion Energy =            186.6705497437846475
    One-Electron Energy =                -755.8076893609882063
    Two-Electron Energy =                 286.3239146672521542
    DFT Exchange-Correlation Energy =       0.0000000000000000
    Empirical Dispersion Energy =           0.0000000000000000
    PCM Polarization Energy =               0.0000000000000000
    EFP Energy =                            0.0000000000000000
    Total Energy =                       -282.8132249499513478
    Molecular point group: c1
  Basis Set: CC-PVTZ
  Basis Set:

  -Total Gradient:
     Atom            X                  Y                   Z
    ------   -----------------  -----------------  -----------------
       1        0.000000120706     0.000000553768    -0.000000106072
       2        0.000035115639     0.000161638373     0.000095351955
       3       -0.000020089494    -0.000223635065    -0.000217555096
       4       -0.000004033978    -0.000000066100     0.000008626837
       5        0.000003875121     0.000004573721    -0.000004398727
       6       -0.000086997781     0.000105632089     0.000358135321
       7       -0.000003775065    -0.000003111823     0.000001830095
       8       -0.000000138336     0.000002784209    -0.000009469144
       9        0.000075036547    -0.000051032802    -0.000233043484
      10        0.000000886640     0.000002663630     0.000000628315

  **** Optimization is complete! (in 8 steps) ****
    Final optimized geometry and variables:
    Molecular point group: c1

    Geometry (in Angstrom), charge = 0, multiplicity = 1:

    H            2.838737953318    -0.345931845490    -0.108724474633
    C            1.879503420014     0.028300588470    -0.442259098524
    C            0.807397990637    -0.463919182153     0.512198203818
    H            1.702146549864    -0.338082861968    -1.445257451818
    H            1.913545582891     1.106967031196    -0.462188372239
    N           -0.538947128995     0.015799684046     0.087588466724
    H            0.739859384795    -1.536717936130     0.546232348514
    H            0.948808660934    -0.065925402484     1.505577661442
    O           -0.698905185901     1.189150914539     0.031014129893
    O           -1.358168534982    -0.801833991535    -0.162411870247

  Mulliken Charges: (a.u.)
   Center  Symbol    Alpha    Beta     Spin     Total
       1     H     0.44855  0.44855  0.00000  0.10291
       2     C     3.14137  3.14137  0.00000 -0.28275
       3     C     3.03820  3.03820  0.00000 -0.07639
       4     H     0.44474  0.44474  0.00000  0.11052
       5     H     0.43686  0.43686  0.00000  0.12628
       6     N     3.27789  3.27789  0.00000  0.44421
       7     H     0.43233  0.43233  0.00000  0.13534
       8     H     0.43727  0.43727  0.00000  0.12546
       9     O     4.17444  4.17444  0.00000 -0.34887
      10     O     4.16835  4.16835  0.00000 -0.33671

   Total alpha = 20.00000, Total beta = 20.00000, Total charge = -0.00000

*** Psi4 exiting successfully. Buy a developer a beer!
