  ==> Input File <==

--------------------------------------------------------------------------
set {
	reference rhf
	basis 6-31G*
}

set_num_threads( 4 )
memory 2 gb

molecule MOL {
0 1

H	 -3.042581	 -0.665861	 0.004336
O	 -2.245037	 -1.176175	 0.000806
C	 -1.162163	 -0.365336	 0.001020
C	 -1.102497	 0.794512	 0.752367
C	 -0.088647	 -0.740681	 -0.797422
H	 -1.934837	 1.088125	 1.369598
C	 0.043317	 1.575492	 0.696760
H	 -0.169992	 -1.646704	 -1.369805
C	 1.054027	 0.038113	 -0.851177
H	 0.092188	 2.479325	 1.277911
C	 1.113133	 1.208387	 -0.094252
C	 2.231316	 -0.381368	 -1.700369
H	 1.993519	 1.825691	 -0.128676
H	 2.644632	 0.463648	 -2.240653
H	 1.948377	 -1.137150	 -2.423280
H	 3.024203	 -0.793636	 -1.082539

	symmetry c1
}
set optking {
	frozen_dihedral = ("
		5 3 2 1
	")
}

ee = optimize('scf')
oeprop('DIPOLE', 'QUADRUPOLE', 'MULLIKEN_CHARGES')
f=open( 'psi4out.xyz', 'w' )
f.write( "16  " )
f.write( str(ee) + "\n" )
f.write( MOL.save_string_xyz() )
f.close()
--------------------------------------------------------------------------

    Molecular point group: c1
  Charge       = 0
  Multiplicity = 1
  Basis Set: 6-31G*
  Basis Set:
  @DF-RHF Final Energy:  -344.59299361766136
    Total Energy =                       -344.5929936176613637
    Molecular point group: c1
  Basis Set: 6-31G*
  Basis Set:
  Basis Set: 6-31G*
  Basis Set:
  @DF-RHF Final Energy:  -344.59310908076344
    Total Energy =                       -344.5931090807638384
  Basis Set: 6-31G*
  Basis Set:
  Basis Set: 6-31G*
  Basis Set:
  @DF-RHF Final Energy:  -344.59312694336734
    Total Energy =                       -344.5931269433669968
  Basis Set: 6-31G*
  Basis Set:
  Basis Set: 6-31G*
  Basis Set:
  @DF-RHF Final Energy:  -344.59312912012393
    Total Energy =                       -344.5931291201236490
  Basis Set: 6-31G*
  Basis Set:
  Charge       = 0
  Multiplicity = 1
  Basis Set: 6-31G*
  Basis Set:

    Orbital Energies (a.u.)
    -----------------------

    Doubly Occupied:

       1A    -20.582607     2A    -11.292038     3A    -11.241328
       4A    -11.234248     5A    -11.222664     6A    -11.220619
       7A    -11.218372     8A    -11.217447     9A     -1.399634
      10A     -1.149613    11A     -1.042912    12A     -1.004187
      13A     -0.936027    14A     -0.823381    15A     -0.817830
      16A     -0.713185    17A     -0.678830    18A     -0.652994
      19A     -0.614620    20A     -0.589930    21A     -0.573642
      22A     -0.568403    23A     -0.553930    24A     -0.522599
      25A     -0.504014    26A     -0.481569    27A     -0.465618
      28A     -0.328582    29A     -0.310855

  @DF-RHF Final Energy:  -344.59312984229734

   => Energetics <=

    Nuclear Repulsion Energy =            345.3071442337512735
    One-Electron Energy =               -1151.8771899544726693
    Two-Electron Energy =                 461.9769158784239949
    DFT Exchange-Correlation Energy =       0.0000000000000000
    Empirical Dispersion Energy =           0.0000000000000000
    PCM Polarization Energy =               0.0000000000000000
    EFP Energy =                            0.0000000000000000
    Total Energy =                       -344.5931298422974010
    Molecular point group: c1
  Basis Set: 6-31G*
  Basis Set:

  -Total Gradient:
     Atom            X                  Y                   Z
    ------   -----------------  -----------------  -----------------
       1       -0.000037139430     0.000003193219    -0.002748450788
       2       -0.000392510443     0.000396446520     0.002664023342
       3        0.001270046828    -0.001311942705     0.001618349487
       4       -0.000051646331    -0.000092216086     0.000011956363
       5       -0.000807952258     0.000991494905    -0.001565341974
       6       -0.000011590634     0.000002155366     0.000008707439
       7        0.000070839927     0.000052167680    -0.000063008693
       8        0.000007579873    -0.000006333590     0.000014044258
       9       -0.000028244976    -0.000079979626    -0.000011101837
      10        0.000005438498    -0.000016266831     0.000000081330
      11       -0.000037554733     0.000034795495     0.000071064057
      12       -0.000004418446     0.000014359366     0.000007904630
      13        0.000017324433    -0.000003956316    -0.000004493006
      14       -0.000003483360     0.000000160885    -0.000013864387
      15        0.000003125549    -0.000003533280     0.000010302065
      16        0.000000185508     0.000019455002    -0.000000172289

  **** Optimization is complete! (in 5 steps) ****
    Final optimized geometry and variables:
    Molecular point group: c1

    Geometry (in Angstrom), charge = 0, multiplicity = 1:

    H           -2.987542575624    -0.741304449220     0.287195706302
    O           -2.192893822088    -1.256277539063     0.279872125427
    C           -1.101729478244    -0.442792102481     0.260622422153
    C           -1.045217610658     0.717384694506     1.012137529902
    C           -0.031992478806    -0.814761418904    -0.539989422569
    H           -1.875650406438     0.997911124673     1.636628794302
    C            0.096972319913     1.501514664890     0.954683677395
    H           -0.115882931067    -1.717000481272    -1.117987578632
    C            1.116679569984    -0.040181572502    -0.586664284859
    H            0.146254295932     2.406359460218     1.534173307097
    C            1.170370112224     1.129891284136     0.167554858218
    C            2.295485169620    -0.459645426982    -1.433884567672
    H            2.050804066619     1.747603306740     0.135341531342
    H            2.718217550028     0.386833539661    -1.964580382085
    H            2.010707476553    -1.206802806770    -2.165217144264
    H            3.082078751138    -0.884211186992    -0.816274073501

  Mulliken Charges: (a.u.)
   Center  Symbol    Alpha    Beta     Spin     Total
       1     H     0.27232  0.27232  0.00000  0.45535
       2     O     4.38369  4.38369  0.00000 -0.76737
       3     C     2.79863  2.79863  0.00000  0.40274
       4     C     3.14032  3.14032  0.00000 -0.28063
       5     C     3.13770  3.13770  0.00000 -0.27540
       6     H     0.40189  0.40189  0.00000  0.19622
       7     C     3.08955  3.08955  0.00000 -0.17911
       8     H     0.39456  0.39456  0.00000  0.21087
       9     C     2.97123  2.97123  0.00000  0.05754
      10     H     0.39881  0.39881  0.00000  0.20239
      11     C     3.12123  3.12123  0.00000 -0.24246
      12     C     3.25440  3.25440  0.00000 -0.50879
      13     H     0.40300  0.40300  0.00000  0.19399
      14     H     0.41219  0.41219  0.00000  0.17561
      15     H     0.41178  0.41178  0.00000  0.17644
      16     H     0.40870  0.40870  0.00000  0.18260

   Total alpha = 29.00000, Total beta = 29.00000, Total charge =  0.00000
