                              Psi4 1.0.54 Driver

  ==> Input File <==

--------------------------------------------------------------------------
set {
	reference rhf
	basis cc-pvtz
}

set_num_threads( 4 )
memory 2 gb

molecule MOL {
0 1

O	 -0.694481	 1.313155	 -0.204815
C	 -0.862519	 0.151932	 -0.046791
C	 -2.171428	 -0.477048	 0.339095
O	 0.085519	 -0.757083	 -0.192238
H	 -2.467997	 -1.191667	 -0.417688
H	 -2.923379	 0.287970	 0.444097
H	 -2.053854	 -1.015120	 1.270901
C	 -0.238647	 -2.125303	 0.025412
C	 -0.818341	 -2.767993	 -1.217490
H	 -0.921806	 -2.200782	 0.856924
H	 0.698117	 -2.588582	 0.296698
H	 -0.989892	 -3.822778	 -1.034596
H	 -1.761686	 -2.311693	 -1.484459
H	 -0.133593	 -2.674069	 -2.051692

	symmetry c1
}
set optking {
	frozen_dihedral = ("
		8 4 2 1
	")
}

ee,wfn = optimize('scf', return_wfn=True)
oeprop( wfn, 'DIPOLE', 'QUADRUPOLE', 'MULLIKEN_CHARGES')
f=open( 'psi4out.xyz', 'w' )
f.write( "14  " )
f.write( str(ee) + "\n" )
f.write( MOL.save_string_xyz() )
f.close()
--------------------------------------------------------------------------

    Molecular point group: c1
  Charge       = 0
  Multiplicity = 1
  Basis Set: CC-PVTZ
  Basis Set:
  @DF-RHF Final Energy:  -305.95907667037369
    Total Energy =                       -305.9590766703738041
    Molecular point group: c1
  Basis Set: CC-PVTZ
  Basis Set:
  Basis Set: CC-PVTZ
  Basis Set:
  @DF-RHF Final Energy:  -305.95533293231944
    Total Energy =                       -305.9553329323193225
  Basis Set: CC-PVTZ
  Basis Set:
  Basis Set: CC-PVTZ
  Basis Set:
  @DF-RHF Final Energy:  -305.97430682689117
    Total Energy =                       -305.9743068268910520
  Basis Set: CC-PVTZ
  Basis Set:
  Basis Set: CC-PVTZ
  Basis Set:
  @DF-RHF Final Energy:  -305.97512856374999
    Total Energy =                       -305.9751285637499905
  Basis Set: CC-PVTZ
  Basis Set:
  @DF-RHF Final Energy:  -305.97062972876358
    Total Energy =                       -305.9706297287634698
  @DF-RHF Final Energy:  -305.97609107892868
    Total Energy =                       -305.9760910789287891
  @DF-RHF Final Energy:  -305.97639972539423
    Total Energy =                       -305.9763997253940033
  Basis Set: CC-PVTZ
  Basis Set:
  @DF-RHF Final Energy:  -305.97658576330264
    Total Energy =                       -305.9765857633025234
  Basis Set: CC-PVTZ
  Basis Set:
  Basis Set: CC-PVTZ
  Basis Set:
  @DF-RHF Final Energy:  -305.97659492489640
    Total Energy =                       -305.9765949248966308
  Basis Set: CC-PVTZ
  Basis Set:
  Basis Set: CC-PVTZ
  Basis Set:
  @DF-RHF Final Energy:  -305.97659660902195
    Total Energy =                       -305.9765966090219536
  Basis Set: CC-PVTZ
  Basis Set:
  Charge       = 0
  Multiplicity = 1
  Basis Set: CC-PVTZ
  Basis Set:

    Orbital Energies (a.u.)
    -----------------------

    Doubly Occupied:

       1A    -20.593376     2A    -20.525687     3A    -11.369095
       4A    -11.298171     5A    -11.241386     6A    -11.230484
       7A     -1.465432     8A     -1.366270     9A     -1.051290
      10A     -1.018787    11A     -0.898520    12A     -0.777891
      13A     -0.702019    14A     -0.690086    15A     -0.662767
      16A     -0.619442    17A     -0.595895    18A     -0.584713
      19A     -0.558841    20A     -0.541549    21A     -0.531611
      22A     -0.501675    23A     -0.445932    24A     -0.436511

  @DF-RHF Final Energy:  -305.97659670924793

   => Energetics <=

    Nuclear Repulsion Energy =            247.8410699057409659
    One-Electron Energy =                -908.2204732349383676
    Two-Electron Energy =                 354.4028066199496152
    DFT Exchange-Correlation Energy =       0.0000000000000000
    Empirical Dispersion Energy =           0.0000000000000000
    PCM Polarization Energy =               0.0000000000000000
    EFP Energy =                            0.0000000000000000
    Total Energy =                       -305.9765967092478149
    Molecular point group: c1
  Basis Set: CC-PVTZ
  Basis Set:

  -Total Gradient:
     Atom            X                  Y                   Z
    ------   -----------------  -----------------  -----------------
       1       -0.000081184104     0.000214554997     0.000611669624
       2        0.000049514289    -0.000144012271    -0.000554645707
       3        0.000016799544    -0.000010981701    -0.000009819283
       4        0.000108945894    -0.000230194306    -0.000614258959
       5       -0.000006909458    -0.000008979023    -0.000002005904
       6        0.000004474852    -0.000004059460     0.000005362872
       7       -0.000002515093    -0.000001012464     0.000009094088
       8       -0.000074756544     0.000184637922     0.000531587381
       9       -0.000001086672     0.000000518120     0.000022890932
      10       -0.000006504561     0.000001518299     0.000004415025
      11       -0.000005747021    -0.000008627947     0.000006779369
      12        0.000002359454     0.000001397948    -0.000007015158
      13       -0.000004606486     0.000005639523    -0.000003143254
      14        0.000001215909    -0.000000399636    -0.000000911027

  **** Optimization is complete! (in 11 steps) ****
    Final optimized geometry and variables:
    Molecular point group: c1

    Geometry (in Angstrom), charge = 0, multiplicity = 1:

    O            0.421349197286     1.980546585200    -0.424981975804
    C           -0.084238280628     0.960026510290    -0.118303427518
    C           -1.574191165135     0.738460577234    -0.230814793483
    O            0.674929735181    -0.019333885381     0.358817877976
    H           -1.809626651855    -0.164297907829    -0.777825602433
    H           -1.993001546138     1.590332302057    -0.739470462802
    H           -2.018880307417     0.661745241955     0.753901282555
    C            0.200943183994    -1.287533632734     0.762587277006
    C            0.380137883517    -2.316665932568    -0.335501470766
    H           -0.828102154938    -1.234800173488     1.086065376521
    H            0.797847999928    -1.552203522732     1.622993743481
    H            0.081104369917    -3.295146180197     0.022784948853
    H           -0.217752824464    -2.077335513135    -1.206732082170
    H            1.417471479196    -2.363171016460    -0.639991637703

  Mulliken Charges: (a.u.)
   Center  Symbol    Alpha    Beta     Spin     Total
       1     O     4.18366  4.18366  0.00000 -0.36732
       2     C     2.81594  2.81594  0.00000  0.36812
       3     C     3.16697  3.16697  0.00000 -0.33395
       4     O     4.13294  4.13294  0.00000 -0.26589
       5     H     0.44821  0.44821  0.00000  0.10358
       6     H     0.42599  0.42599  0.00000  0.14802
       7     H     0.44572  0.44572  0.00000  0.10855
       8     C     2.99760  2.99760  0.00000  0.00481
       9     C     3.13756  3.13756  0.00000 -0.27512
      10     H     0.45870  0.45870  0.00000  0.08259
      11     H     0.43744  0.43744  0.00000  0.12512
      12     H     0.45183  0.45183  0.00000  0.09634
      13     H     0.45436  0.45436  0.00000  0.09127
      14     H     0.44307  0.44307  0.00000  0.11385

   Total alpha = 24.00000, Total beta = 24.00000, Total charge = -0.00000

*** Psi4 exiting successfully. Buy a developer a beer!
