  ==> Input File <==

--------------------------------------------------------------------------
set {
	reference rhf
	basis 6-31G*
}

set_num_threads( 1 )
memory 2 gb

molecule MOL {
0 1

O	 0.749854	 1.307668	 -0.000040
C	 0.576249	 0.131685	 -0.000108
C	 -0.766779	 -0.556801	 -0.000461
O	 1.568443	 -0.749345	 -0.000005
C	 -1.945214	 0.412366	 0.000161
H	 -0.796911	 -1.211249	 -0.867467
H	 -0.796854	 -1.212390	 0.865687
C	 -1.894014	 1.376915	 1.184050
H	 -2.871968	 -0.150907	 0.021424
H	 -1.951267	 0.969110	 -0.930739
H	 -1.918664	 0.843682	 2.130362
H	 -2.739832	 2.056389	 1.166488
H	 -0.988350	 1.976879	 1.167031
C	 2.886820	 -0.232538	 0.000322
H	 3.059106	 0.369571	 -0.880203
H	 3.540187	 -1.091012	 0.000050
H	 3.059019	 0.368956	 0.881266

	symmetry c1
}
set optking {
	frozen_dihedral = ("
		1 2 3 6,
		14 4 2 1
	")
}

ee = energy('scf')
oeprop('DIPOLE', 'QUADRUPOLE', 'MULLIKEN_CHARGES')
f=open( 'psi4out.xyz', 'w' )
f.write( "17  " )
f.write( str(ee) + "\n" )
f.write( MOL.save_string_xyz() )
f.close()
--------------------------------------------------------------------------

    Molecular point group: c1

    Geometry (in Angstrom), charge = 0, multiplicity = 1:

       Center              X                  Y                   Z               Mass
    ------------   -----------------  -----------------  -----------------  -----------------
           O          0.544683595233     1.058307736532    -0.174321290284    15.994914619560
           C          0.371078595233    -0.117675263468    -0.174389290284    12.000000000000
           C         -0.971949404767    -0.806161263468    -0.174742290284    12.000000000000
           O          1.363272595233    -0.998705263468    -0.174286290284    15.994914619560
           C         -2.150384404767     0.163005736532    -0.174120290284    12.000000000000
           H         -1.002081404767    -1.460609263468    -1.041748290284     1.007825032070
           H         -1.002024404767    -1.461750263468     0.691405709716     1.007825032070
           C         -2.099184404767     1.127554736532     1.009768709716    12.000000000000
           H         -3.077138404767    -0.400267263468    -0.152857290284     1.007825032070
           H         -2.156437404767     0.719749736532    -1.105020290284     1.007825032070
           H         -2.123834404767     0.594321736532     1.956080709716     1.007825032070
           H         -2.945002404767     1.807028736532     0.992206709716     1.007825032070
           H         -1.193520404767     1.727518736532     0.992749709716     1.007825032070
           C          2.681649595233    -0.481898263468    -0.173959290284    12.000000000000
           H          2.853935595233     0.120210736532    -1.054484290284     1.007825032070
           H          3.335016595233    -1.340372263468    -0.174231290284     1.007825032070
           H          2.853848595233     0.119595736532     0.706984709716     1.007825032070

  Charge       = 0
  Multiplicity = 1
  Basis Set: 6-31G*
  Basis Set:

    Orbital Energies (a.u.)
    -----------------------

    Doubly Occupied:

       1A    -20.605567     2A    -20.547212     3A    -11.374717
       4A    -11.282183     5A    -11.236202     6A    -11.221487
       7A    -11.198250     8A     -1.471758     9A     -1.366065
      10A     -1.078981    11A     -0.998645    12A     -0.935105
      13A     -0.828057    14A     -0.768468    15A     -0.700655
      16A     -0.682991    17A     -0.672954    18A     -0.622560
      19A     -0.614156    20A     -0.565398    21A     -0.559765
      22A     -0.532598    23A     -0.521365    24A     -0.495860
      25A     -0.480917    26A     -0.478853    27A     -0.457201
      28A     -0.430786

  @DF-RHF Final Energy:  -344.90275336071443

   => Energetics <=

    Nuclear Repulsion Energy =            320.5317038182539591
    One-Electron Energy =               -1105.4114673159031099
    Two-Electron Energy =                 439.9770101369343820
    DFT Exchange-Correlation Energy =       0.0000000000000000
    Empirical Dispersion Energy =           0.0000000000000000
    PCM Polarization Energy =               0.0000000000000000
    EFP Energy =                            0.0000000000000000
    Total Energy =                       -344.9027533607147689

  Mulliken Charges: (a.u.)
   Center  Symbol    Alpha    Beta     Spin     Total
       1     O     4.28631  4.28631  0.00000 -0.57262
       2     C     2.60518  2.60518  0.00000  0.78963
       3     C     3.20860  3.20860  0.00000 -0.41720
       4     O     4.30654  4.30654  0.00000 -0.61309
       5     C     3.15188  3.15188  0.00000 -0.30377
       6     H     0.39848  0.39848  0.00000  0.20303
       7     H     0.40048  0.40048  0.00000  0.19903
       8     C     3.25412  3.25412  0.00000 -0.50824
       9     H     0.41749  0.41749  0.00000  0.16502
      10     H     0.41349  0.41349  0.00000  0.17301
      11     H     0.42749  0.42749  0.00000  0.14502
      12     H     0.42114  0.42114  0.00000  0.15772
      13     H     0.39030  0.39030  0.00000  0.21941
      14     C     3.09255  3.09255  0.00000 -0.18511
      15     H     0.40883  0.40883  0.00000  0.18234
      16     H     0.40806  0.40806  0.00000  0.18388
      17     H     0.40903  0.40903  0.00000  0.18194

   Total alpha = 28.00000, Total beta = 28.00000, Total charge =  0.00000
