                              Psi4 1.0.54 Driver

  ==> Input File <==

--------------------------------------------------------------------------
set {
	reference rhf
	basis cc-pvtz
}

set_num_threads( 4 )
memory 2 gb

molecule MOL {
0 1

H	 -1.626355	 0.067691	 -1.364214
C	 -0.925371	 -0.484941	 -0.776206
C	 -0.919549	 -1.865041	 -0.771353
C	 0.000000	 0.179985	 0.000046
H	 -1.631070	 -2.400772	 -1.368214
C	 0.000002	 -2.552036	 -0.000012
N	 0.000000	 1.644631	 0.000076
C	 0.925371	 -0.484972	 0.776272
H	 0.000000	 -3.625035	 -0.000032
C	 0.919551	 -1.865072	 0.771359
O	 1.050559	 2.194174	 -0.000073
O	 -1.050559	 2.194174	 -0.000074
H	 1.626360	 0.067635	 1.364295
H	 1.631069	 -2.400828	 1.368201

	symmetry c1
}
set optking {
	frozen_dihedral = ("
		2 4 7 11
	")
}

ee,wfn = optimize('scf', return_wfn=True)
oeprop( wfn, 'DIPOLE', 'QUADRUPOLE', 'MULLIKEN_CHARGES')
f=open( 'psi4out.xyz', 'w' )
f.write( "14  " )
f.write( str(ee) + "\n" )
f.write( MOL.save_string_xyz() )
f.close()
--------------------------------------------------------------------------

    Molecular point group: c1
  Charge       = 0
  Multiplicity = 1
  Basis Set: CC-PVTZ
  Basis Set:
  @DF-RHF Final Energy:  -434.32675190732914
    Total Energy =                       -434.3267519073292533
    Molecular point group: c1
  Basis Set: CC-PVTZ
  Basis Set:
  Basis Set: CC-PVTZ
  Basis Set:
  @DF-RHF Final Energy:  -434.31984387579325
    Total Energy =                       -434.3198438757932536
  Basis Set: CC-PVTZ
  Basis Set:
  Basis Set: CC-PVTZ
  Basis Set:
  @DF-RHF Final Energy:  -434.32618498603972
    Total Energy =                       -434.3261849860396069
  Basis Set: CC-PVTZ
  Basis Set:
  Basis Set: CC-PVTZ
  Basis Set:
  @DF-RHF Final Energy:  -434.32707925060066
    Total Energy =                       -434.3270792506007183
  Basis Set: CC-PVTZ
  Basis Set:
  Basis Set: CC-PVTZ
  Basis Set:
  @DF-RHF Final Energy:  -434.32708855059229
    Total Energy =                       -434.3270885505920660
  Basis Set: CC-PVTZ
  Basis Set:
  Basis Set: CC-PVTZ
  Basis Set:
  @DF-RHF Final Energy:  -434.32711832218649
    Total Energy =                       -434.3271183221867204
  Basis Set: CC-PVTZ
  Basis Set:
  Charge       = 0
  Multiplicity = 1
  Basis Set: CC-PVTZ
  Basis Set:

    Orbital Energies (a.u.)
    -----------------------

    Doubly Occupied:

       1A    -20.594165     2A    -20.593827     3A    -15.847477
       4A    -11.304188     5A    -11.267899     6A    -11.267687
       7A    -11.262958     8A    -11.259287     9A    -11.259053
      10A     -1.642173    11A     -1.425084    12A     -1.205713
      13A     -1.096596    14A     -1.056105    15A     -0.959524
      16A     -0.870689    17A     -0.829701    18A     -0.787533
      19A     -0.740367    20A     -0.735852    21A     -0.714712
      22A     -0.656729    23A     -0.651509    24A     -0.626335
      25A     -0.558363    26A     -0.545742    27A     -0.532726
      28A     -0.495823    29A     -0.490039    30A     -0.456917
      31A     -0.375202    32A     -0.370087

  @DF-RHF Final Energy:  -434.32711867439673

   => Energetics <=

    Nuclear Repulsion Energy =            418.0858121454728007
    One-Electron Energy =               -1419.8657435566556160
    Two-Electron Energy =                 567.4528127367859724
    DFT Exchange-Correlation Energy =       0.0000000000000000
    Empirical Dispersion Energy =           0.0000000000000000
    PCM Polarization Energy =               0.0000000000000000
    EFP Energy =                            0.0000000000000000
    Total Energy =                       -434.3271186743968428
    Molecular point group: c1
  Basis Set: CC-PVTZ
  Basis Set:

  -Total Gradient:
     Atom            X                  Y                   Z
    ------   -----------------  -----------------  -----------------
       1        0.000001896793    -0.000003172429     0.000006865717
       2        0.002701546177    -0.000183642503    -0.003026034585
       3       -0.000035393641     0.000032338224     0.000013488367
       4       -0.003783085556     0.000204688966     0.002611256178
       5       -0.000001709647     0.000002258262     0.000002695297
       6        0.000018670377     0.000001549445     0.000031049463
       7        0.001008329353     0.000254994000     0.004986607610
       8       -0.000005958739     0.000025789897    -0.000010953348
       9        0.000002620739     0.000000476539    -0.000005778173
      10        0.000007105328    -0.000023131961    -0.000021712802
      11        0.000213234771    -0.000288134465    -0.004585937831
      12       -0.000124818493    -0.000028002430    -0.000009964882
      13       -0.000001044869    -0.000001183294     0.000003383744
      14       -0.000001392592     0.000005171750     0.000005035243

  **** Optimization is complete! (in 7 steps) ****
    Final optimized geometry and variables:
    Molecular point group: c1

    Geometry (in Angstrom), charge = 0, multiplicity = 1:

    H           -1.623347339018     0.076222737073    -1.362489222770
    C           -0.929810225014    -0.478766085467    -0.765549315414
    C           -0.924766130660    -1.859522294130    -0.760131680237
    C           -0.017713064009     0.180646791629     0.026647809224
    H           -1.620473309258    -2.395403216169    -1.375282340163
    C           -0.026809695367    -2.546457345961     0.035845996422
    N            0.019963450020     1.641077904608    -0.020389394021
    C            0.906015298664    -0.480044675395     0.804805245400
    H           -0.032702636293    -3.619267015473     0.042119248242
    C            0.882935109827    -1.860021221845     0.819641320040
    O            1.086328613194     2.158654655040     0.004085030680
    O           -1.016170159753     2.209957028610    -0.114695492670
    H            1.617733982113     0.073922746222     1.381040605644
    H            1.579466345210    -2.396560254374     1.433289634189

  Mulliken Charges: (a.u.)
   Center  Symbol    Alpha    Beta     Spin     Total
       1     H     0.40481  0.40481  0.00000  0.19038
       2     C     3.08478  3.08478  0.00000 -0.16956
       3     C     3.07036  3.07036  0.00000 -0.14072
       4     C     2.94777  2.94777  0.00000  0.10446
       5     H     0.41707  0.41707  0.00000  0.16585
       6     C     3.06797  3.06797  0.00000 -0.13595
       7     N     3.27068  3.27068  0.00000  0.45865
       8     C     3.08304  3.08304  0.00000 -0.16608
       9     H     0.41737  0.41737  0.00000  0.16527
      10     C     3.06990  3.06990  0.00000 -0.13979
      11     O     4.17053  4.17053  0.00000 -0.34105
      12     O     4.17238  4.17238  0.00000 -0.34475
      13     H     0.40623  0.40623  0.00000  0.18753
      14     H     0.41712  0.41712  0.00000  0.16576

   Total alpha = 32.00000, Total beta = 32.00000, Total charge =  0.00000

*** Psi4 exiting successfully. Buy a developer a beer!
