  ==> Input File <==

--------------------------------------------------------------------------
set {
	reference rhf
	basis 6-31G*
}

set_num_threads( 4 )
memory 2 gb

molecule MOL {
0 1

H	 -2.798360	 -0.862255	 -0.071053
N	 -1.863561	 -0.715187	 0.256814
C	 -1.344686	 0.554728	 -0.219830
H	 -1.300452	 -1.461917	 -0.101532
C	 0.081427	 0.741154	 0.254071
H	 -1.362155	 0.656231	 -1.305829
H	 -1.952773	 1.354456	 0.191809
O	 0.874168	 -0.245412	 -0.342030
H	 0.444037	 1.730782	 -0.023037
H	 0.121165	 0.653424	 1.337565
C	 0.155749	 -1.237168	 -1.003744
H	 0.868364	 -1.936872	 -1.418821
H	 -0.505194	 -1.771046	 -0.323222
H	 -0.443109	 -0.822203	 -1.811817

	symmetry c1
}
set optking {
	frozen_dihedral = ("
		11 8 5 3
	")
}

ee = optimize('scf')
oeprop('DIPOLE', 'QUADRUPOLE', 'MULLIKEN_CHARGES')
f=open( 'psi4out.xyz', 'w' )
f.write( "14  " )
f.write( str(ee) + "\n" )
f.write( MOL.save_string_xyz() )
f.close()
--------------------------------------------------------------------------

    Molecular point group: c1
  Charge       = 0
  Multiplicity = 1
  Basis Set: 6-31G*
  Basis Set:
  @DF-RHF Final Energy:  -248.00614187913067
    Total Energy =                       -248.0061418791306664
    Molecular point group: c1
  Basis Set: 6-31G*
  Basis Set:
  Basis Set: 6-31G*
  Basis Set:
  @DF-RHF Final Energy:  -248.08308664210728
    Total Energy =                       -248.0830866421072187
  Basis Set: 6-31G*
  Basis Set:
  Basis Set: 6-31G*
  Basis Set:
  @DF-RHF Final Energy:  -248.09880567077673
    Total Energy =                       -248.0988056707768123
  Basis Set: 6-31G*
  Basis Set:
  Basis Set: 6-31G*
  Basis Set:
  @DF-RHF Final Energy:  -248.10447011085202
    Total Energy =                       -248.1044701108521622
  Basis Set: 6-31G*
  Basis Set:
  @DF-RHF Final Energy:  -248.10780491246840
    Total Energy =                       -248.1078049124684526
  @DF-RHF Final Energy:  -248.10889964932809
    Total Energy =                       -248.1088996493280661
  @DF-RHF Final Energy:  -248.10929116477652
    Total Energy =                       -248.1092911647764367
  @DF-RHF Final Energy:  -248.10941800800404
    Total Energy =                       -248.1094180080041269
  @DF-RHF Final Energy:  -248.10947081066269
    Total Energy =                       -248.1094708106625149
  Basis Set: 6-31G*
  Basis Set:
  @DF-RHF Final Energy:  -248.10950396363936
    Total Energy =                       -248.1095039636391562
  Basis Set: 6-31G*
  Basis Set:
  Basis Set: 6-31G*
  Basis Set:
  @DF-RHF Final Energy:  -248.10951389053187
    Total Energy =                       -248.1095138905316162
  Basis Set: 6-31G*
  Basis Set:
  Basis Set: 6-31G*
  Basis Set:
  @DF-RHF Final Energy:  -248.10951616744083
    Total Energy =                       -248.1095161674409155
  Basis Set: 6-31G*
  Basis Set:
  Charge       = 0
  Multiplicity = 1
  Basis Set: 6-31G*
  Basis Set:

    Orbital Energies (a.u.)
    -----------------------

    Doubly Occupied:

       1A    -20.546930     2A    -15.541855     3A    -11.266682
       4A    -11.263851     5A    -11.251477     6A     -1.367041
       7A     -1.184243     8A     -1.002772     9A     -0.922461
      10A     -0.805378    11A     -0.688507    12A     -0.673624
      13A     -0.640204    14A     -0.616191    15A     -0.607111
      16A     -0.547453    17A     -0.536467    18A     -0.519226
      19A     -0.452421    20A     -0.404750    21A     -0.389876

  @DF-RHF Final Energy:  -248.10951695379921

   => Energetics <=

    Nuclear Repulsion Energy =            196.6563415625004438
    One-Electron Energy =                -727.0746803366291715
    Two-Electron Energy =                 282.3088218203295128
    DFT Exchange-Correlation Energy =       0.0000000000000000
    Empirical Dispersion Energy =           0.0000000000000000
    PCM Polarization Energy =               0.0000000000000000
    EFP Energy =                            0.0000000000000000
    Total Energy =                       -248.1095169537992433
    Molecular point group: c1
  Basis Set: 6-31G*
  Basis Set:

  -Total Gradient:
     Atom            X                  Y                   Z
    ------   -----------------  -----------------  -----------------
       1       -0.000010071408    -0.000009473973    -0.000004140648
       2        0.000029375178    -0.000004710074    -0.000005824780
       3       -0.000325337666    -0.001164540508     0.001366324800
       4        0.000007544960    -0.000001089717    -0.000007768158
       5        0.000573818234     0.002400252946    -0.002997119162
       6        0.000005223692    -0.000001974908     0.000001737745
       7       -0.000000581623    -0.000012181760    -0.000000703196
       8       -0.000350177623    -0.002369214743     0.003356492971
       9        0.000006436089     0.000003151164     0.000000945429
      10        0.000001318374     0.000006791787     0.000004704418
      11        0.000007645762     0.001136770596    -0.001712647270
      12        0.000011336609    -0.000005901834    -0.000011720114
      13        0.000023558567     0.000015448617    -0.000004926248
      14        0.000019910855     0.000006672406     0.000014644213

  **** Optimization is complete! (in 13 steps) ****
    Final optimized geometry and variables:
    Molecular point group: c1

    Geometry (in Angstrom), charge = 0, multiplicity = 1:

    H           -2.710554527032    -0.188687027627     0.546978110528
    N           -1.722085430258    -0.331442941618     0.619044910566
    C           -1.005125725697     0.786084021368     0.022577346624
    H           -1.521308660260    -1.193503436814     0.154388385913
    C            0.459607989967     0.856636227913     0.440901524506
    H           -1.093515745807     0.837809423063    -1.063098924743
    H           -1.457182943967     1.694777859108     0.406940614714
    O            1.375462821453    -0.053009566853    -0.124406211137
    H            0.831939239244     1.845821875305     0.195402811746
    H            0.496313541515     0.742635957982     1.518978449026
    C            0.959424268726    -1.136368530776    -0.889503585584
    H            1.850406675925    -1.558282584886    -1.335006775089
    H            0.488458879727    -1.909339540278    -0.286363015364
    H            0.284794395970    -0.853791072936    -1.692426335846

  Mulliken Charges: (a.u.)
   Center  Symbol    Alpha    Beta     Spin     Total
       1     H     0.32998  0.32998  0.00000  0.34005
       2     N     3.92229  3.92229  0.00000 -0.84458
       3     C     3.09789  3.09789  0.00000 -0.19578
       4     H     0.32936  0.32936  0.00000  0.34128
       5     C     2.97209  2.97209  0.00000  0.05581
       6     H     0.42564  0.42564  0.00000  0.14872
       7     H     0.41399  0.41399  0.00000  0.17202
       8     O     4.31533  4.31533  0.00000 -0.63066
       9     H     0.42407  0.42407  0.00000  0.15187
      10     H     0.41695  0.41695  0.00000  0.16610
      11     C     3.08004  3.08004  0.00000 -0.16008
      12     H     0.41071  0.41071  0.00000  0.17858
      13     H     0.42999  0.42999  0.00000  0.14001
      14     H     0.43167  0.43167  0.00000  0.13665

   Total alpha = 21.00000, Total beta = 21.00000, Total charge = -0.00000
