                              Psi4 1.0.54 Driver

  ==> Input File <==

--------------------------------------------------------------------------
set {
	reference rhf
	basis cc-pvtz
}

set_num_threads( 4 )
memory 2 gb

molecule MOL {
0 1

H	 -0.890008	 2.407927	 -0.389566
C	 -0.774720	 1.357509	 -0.224439
C	 -1.901109	 0.499020	 -0.016124
C	 0.438756	 0.800578	 -0.206082
H	 -2.890708	 0.915880	 -0.024929
C	 -1.728970	 -0.810657	 0.188060
H	 1.329875	 1.377752	 -0.354132
N	 0.640204	 -0.530428	 -0.000115
H	 -2.547402	 -1.482073	 0.347217
C	 -0.404467	 -1.414442	 0.207277
C	 2.006991	 -1.033007	 -0.000020
O	 -0.209285	 -2.585652	 0.387317
H	 2.182444	 -1.636914	 -0.880881
H	 2.678769	 -0.195442	 -0.002236
H	 2.183828	 -1.633244	 0.883082

	symmetry c1
}
set optking {
	frozen_dihedral = ("
		10 8 11 13
	")
}

ee,wfn = optimize('scf', return_wfn=True)
oeprop( wfn, 'DIPOLE', 'QUADRUPOLE', 'MULLIKEN_CHARGES')
f=open( 'psi4out.xyz', 'w' )
f.write( "15  " )
f.write( str(ee) + "\n" )
f.write( MOL.save_string_xyz() )
f.close()
--------------------------------------------------------------------------

    Molecular point group: c1
  Charge       = 0
  Multiplicity = 1
  Basis Set: CC-PVTZ
  Basis Set:
  @DF-RHF Final Energy:  -360.72291059905950
    Total Energy =                       -360.7229105990595599
    Molecular point group: c1
  Basis Set: CC-PVTZ
  Basis Set:
  Basis Set: CC-PVTZ
  Basis Set:
  @DF-RHF Final Energy:  -360.72348517242239
    Total Energy =                       -360.7234851724225564
  Basis Set: CC-PVTZ
  Basis Set:
  Basis Set: CC-PVTZ
  Basis Set:
  @DF-RHF Final Energy:  -360.72354280491999
    Total Energy =                       -360.7235428049199299
  Basis Set: CC-PVTZ
  Basis Set:
  Basis Set: CC-PVTZ
  Basis Set:
  @DF-RHF Final Energy:  -360.72352210300812
    Total Energy =                       -360.7235221030083494
  Basis Set: CC-PVTZ
  Basis Set:
  Charge       = 0
  Multiplicity = 1
  Basis Set: CC-PVTZ
  Basis Set:

    Orbital Energies (a.u.)
    -----------------------

    Doubly Occupied:

       1A    -20.501984     2A    -15.617813     3A    -11.337608
       4A    -11.294623     5A    -11.266028     6A    -11.258158
       7A    -11.229493     8A    -11.227783     9A     -1.391301
      10A     -1.285892    11A     -1.118829    12A     -1.029353
      13A     -0.972644    14A     -0.876606    15A     -0.838969
      16A     -0.719680    17A     -0.701960    18A     -0.664050
      19A     -0.653494    20A     -0.626314    21A     -0.611925
      22A     -0.574968    23A     -0.552293    24A     -0.551174
      25A     -0.531388    26A     -0.484829    27A     -0.420451
      28A     -0.410761    29A     -0.310060

  @DF-RHF Final Energy:  -360.72354925658112

   => Energetics <=

    Nuclear Repulsion Energy =            358.8765955407615138
    One-Electron Energy =               -1201.0794287429550877
    Two-Electron Energy =                 481.4792839456123943
    DFT Exchange-Correlation Energy =       0.0000000000000000
    Empirical Dispersion Energy =           0.0000000000000000
    PCM Polarization Energy =               0.0000000000000000
    EFP Energy =                            0.0000000000000000
    Total Energy =                       -360.7235492565811796
    Molecular point group: c1
  Basis Set: CC-PVTZ
  Basis Set:

  -Total Gradient:
     Atom            X                  Y                   Z
    ------   -----------------  -----------------  -----------------
       1       -0.000006333176     0.000007210911    -0.000001576486
       2        0.000230209281    -0.000066781108    -0.000012999247
       3       -0.000132657507    -0.000176641010     0.000040134866
       4       -0.000163140884     0.000283822653    -0.000011013194
       5        0.000010885324     0.000013009793    -0.000001426332
       6       -0.000173443773     0.000139302745    -0.000038816088
       7        0.000022110947    -0.000038424670    -0.000004813337
       8       -0.000049189356    -0.000245443671    -0.000782814840
       9        0.000006309543    -0.000023449132     0.000004435249
      10        0.000356758392     0.000394831470     0.000509182284
      11       -0.000252854593    -0.000644555562     0.000637125006
      12       -0.000060837530    -0.000204668039     0.000000886000
      13        0.000183629183     0.000500235335    -0.000300923044
      14        0.000032750338     0.000051598156    -0.000009760593
      15       -0.000004196190     0.000009952130    -0.000027620245

  **** Optimization is complete! (in 5 steps) ****
    Final optimized geometry and variables:
    Molecular point group: c1

    Geometry (in Angstrom), charge = 0, multiplicity = 1:

    H           -0.833037949282     2.888296179356    -0.468863356535
    C           -0.669342016615     1.846568990723    -0.290221095514
    C           -1.753720189138     0.944155222424    -0.053146817130
    C            0.570329741718     1.346352594295    -0.278475359996
    H           -2.760027582054     1.319062914996    -0.053903824583
    C           -1.524167102814    -0.354858913687     0.168540442022
    H            1.430562960227     1.962160183616    -0.445776655839
    N            0.828232139621     0.030156878838    -0.053759151057
    H           -2.310731195718    -1.058471168859     0.348637527958
    C           -0.174508182292    -0.894641296827     0.171419264651
    C            2.194997213080    -0.467909769178    -0.055411614960
    O            0.094472517588    -2.051755237553     0.349603779360
    H            2.375861749185    -1.080235494160    -0.927734672307
    H            2.874061359742     0.371086450481    -0.060562580460
    H            2.366763673010    -1.068623150583     0.822802292172

  Mulliken Charges: (a.u.)
   Center  Symbol    Alpha    Beta     Spin     Total
       1     H     0.41401  0.41401  0.00000  0.17198
       2     C     3.10682  3.10682  0.00000 -0.21364
       3     C     3.05938  3.05938  0.00000 -0.11877
       4     C     3.03869  3.03869  0.00000 -0.07738
       5     H     0.41843  0.41843  0.00000  0.16315
       6     C     3.11835  3.11835  0.00000 -0.23669
       7     H     0.41905  0.41905  0.00000  0.16189
       8     N     3.50860  3.50860  0.00000 -0.01721
       9     H     0.40934  0.40934  0.00000  0.18132
      10     C     2.84565  2.84565  0.00000  0.30870
      11     C     3.09213  3.09213  0.00000 -0.18426
      12     O     4.23565  4.23565  0.00000 -0.47130
      13     H     0.44286  0.44286  0.00000  0.11428
      14     H     0.45554  0.45554  0.00000  0.08892
      15     H     0.43549  0.43549  0.00000  0.12902

   Total alpha = 29.00000, Total beta = 29.00000, Total charge = -0.00000

*** Psi4 exiting successfully. Buy a developer a beer!
