  ==> Input File <==

--------------------------------------------------------------------------
set {
	reference rhf
	basis 6-31G*
}

set_num_threads( 4 )
memory 2 gb

molecule MOL {
0 1

H	 1.869660	 1.725528	 -0.069180
O	 0.981312	 1.382581	 -0.072597
C	 1.050492	 0.053836	 0.000068
C	 -0.318135	 -0.576402	 0.000164
O	 2.087225	 -0.523245	 0.056273
C	 -1.454360	 0.441875	 -0.000474
H	 -0.374042	 -1.230163	 -0.866135
H	 -0.374274	 -1.229227	 0.867154
C	 -2.826123	 -0.230780	 0.000056
H	 -1.357605	 1.085198	 -0.868380
H	 -1.357504	 1.086451	 0.866496
H	 -2.959731	 -0.858053	 -0.876869
H	 -3.619374	 0.509403	 -0.000080
H	 -2.959371	 -0.857318	 0.877556

	symmetry c1
}
set optking {
	frozen_dihedral = ("
		2 3 4 7
	")
}

ee = optimize('scf')
oeprop('DIPOLE', 'QUADRUPOLE', 'MULLIKEN_CHARGES')
f=open( 'psi4out.xyz', 'w' )
f.write( "14  " )
f.write( str(ee) + "\n" )
f.write( MOL.save_string_xyz() )
f.close()
--------------------------------------------------------------------------

    Molecular point group: c1
  Charge       = 0
  Multiplicity = 1
  Basis Set: 6-31G*
  Basis Set:
  @DF-RHF Final Energy:  -305.87677423540379
    Total Energy =                       -305.8767742354037864
    Molecular point group: c1
  Basis Set: 6-31G*
  Basis Set:
  Basis Set: 6-31G*
  Basis Set:
  @DF-RHF Final Energy:  -305.87769379320127
    Total Energy =                       -305.8776937932012743
  Basis Set: 6-31G*
  Basis Set:
  Basis Set: 6-31G*
  Basis Set:
  @DF-RHF Final Energy:  -305.87786190037212
    Total Energy =                       -305.8778619003719541
  Basis Set: 6-31G*
  Basis Set:
  Basis Set: 6-31G*
  Basis Set:
  @DF-RHF Final Energy:  -305.87790955293440
    Total Energy =                       -305.8779095529345113
  Basis Set: 6-31G*
  Basis Set:
  Basis Set: 6-31G*
  Basis Set:
  @DF-RHF Final Energy:  -305.87807732558537
    Total Energy =                       -305.8780773255854228
  Basis Set: 6-31G*
  Basis Set:
  Basis Set: 6-31G*
  Basis Set:
  @DF-RHF Final Energy:  -305.87807876889849
    Total Energy =                       -305.8780787688981491
  Basis Set: 6-31G*
  Basis Set:
  Charge       = 0
  Multiplicity = 1
  Basis Set: 6-31G*
  Basis Set:

    Orbital Energies (a.u.)
    -----------------------

    Doubly Occupied:

       1A    -20.615988     2A    -20.546930     3A    -11.382157
       4A    -11.241731     5A    -11.229449     6A    -11.219340
       7A     -1.476157     8A     -1.364490     9A     -1.084914
      10A     -0.977854    11A     -0.846222    12A     -0.819288
      13A     -0.699229    14A     -0.677854    15A     -0.667817
      16A     -0.616079    17A     -0.589841    18A     -0.564034
      19A     -0.549071    20A     -0.525707    21A     -0.495123
      22A     -0.493971    23A     -0.466516    24A     -0.436633

  @DF-RHF Final Energy:  -305.87807880264398

   => Energetics <=

    Nuclear Repulsion Energy =            240.3806098801283611
    One-Electron Energy =                -893.3445859773446500
    Two-Electron Energy =                 347.0858972945721348
    DFT Exchange-Correlation Energy =       0.0000000000000000
    Empirical Dispersion Energy =           0.0000000000000000
    PCM Polarization Energy =               0.0000000000000000
    EFP Energy =                            0.0000000000000000
    Total Energy =                       -305.8780788026442110
    Molecular point group: c1
  Basis Set: 6-31G*
  Basis Set:

  -Total Gradient:
     Atom            X                  Y                   Z
    ------   -----------------  -----------------  -----------------
       1        0.000002312352     0.000003099794     0.000000399812
       2       -0.000002881370     0.000031827417     0.000146192339
       3        0.000022300729    -0.000063051853    -0.000197348771
       4       -0.000070389519     0.000157102853    -0.000058577574
       5       -0.000019092535     0.000003914090     0.000006426141
       6       -0.000000427746     0.000009452356     0.000017084570
       7        0.000055922491    -0.000131006832     0.000092153508
       8       -0.000002435398    -0.000000303300     0.000001499257
       9        0.000005593856    -0.000011538309    -0.000008295734
      10        0.000002182894     0.000001040990    -0.000000527068
      11        0.000001934360    -0.000000183730     0.000001407676
      12       -0.000001861305    -0.000004407031    -0.000000613209
      13        0.000008640717     0.000001942317    -0.000002964115
      14       -0.000001799529     0.000002111240     0.000003163169

  **** Optimization is complete! (in 7 steps) ****
    Final optimized geometry and variables:
    Molecular point group: c1

    Geometry (in Angstrom), charge = 0, multiplicity = 1:

    H            2.049646304566     1.554065320322    -0.068824626274
    O            1.137066607979     1.280947089623    -0.074292408295
    C            1.109824598467    -0.046209363177     0.004835710440
    C           -0.280195123839    -0.638947156819     0.000757503165
    O            2.104792929367    -0.693649271015     0.068178163646
    C           -1.449602981581     0.344786493329     0.001759026957
    H           -0.324922320557    -1.289909829856    -0.867958303466
    H           -0.326775246264    -1.297520986597     0.862617937144
    C           -2.795022066526    -0.379921528019     0.005267129623
    H           -1.383417549995     0.990671249223    -0.867098374347
    H           -1.380305886175     0.992040562990     0.869869888973
    H           -2.904730451294    -1.012946256781    -0.870690669426
    H           -3.616271871089     0.329103054523     0.005217036810
    H           -2.902119147388    -1.009957542696     0.883647931268

  Mulliken Charges: (a.u.)
   Center  Symbol    Alpha    Beta     Spin     Total
       1     H     0.26715  0.26715  0.00000  0.46570
       2     O     4.34839  4.34839  0.00000 -0.69678
       3     C     2.62201  2.62201  0.00000  0.75599
       4     C     3.21297  3.21297  0.00000 -0.42595
       5     O     4.28272  4.28272  0.00000 -0.56544
       6     C     3.15273  3.15273  0.00000 -0.30546
       7     H     0.39647  0.39647  0.00000  0.20705
       8     H     0.39614  0.39614  0.00000  0.20771
       9     C     3.24332  3.24332  0.00000 -0.48665
      10     H     0.41132  0.41132  0.00000  0.17736
      11     H     0.41255  0.41255  0.00000  0.17489
      12     H     0.41990  0.41990  0.00000  0.16021
      13     H     0.41456  0.41456  0.00000  0.17089
      14     H     0.41977  0.41977  0.00000  0.16047

   Total alpha = 24.00000, Total beta = 24.00000, Total charge =  0.00000
