  ==> Input File <==

--------------------------------------------------------------------------
set {
	reference rhf
	basis 6-31G*
}

set_num_threads( 1 )
memory 2 gb

molecule MOL {
0 1

H	 3.463771	 0.168298	 -0.756243
C	 2.752674	 -0.045734	 0.033351
C	 1.322923	 0.120767	 -0.479465
H	 2.934561	 -1.059086	 0.377456
H	 2.958358	 0.631174	 0.856809
C	 0.306652	 -0.176050	 0.621399
H	 1.144658	 -0.551717	 -1.312180
H	 1.166477	 1.131798	 -0.836680
N	 -1.068537	 -0.011044	 0.085269
H	 0.372515	 -1.192590	 0.973735
H	 0.391664	 0.520566	 1.441230
O	 -1.330562	 -0.562877	 -0.938545
O	 -1.809253	 0.691747	 0.702885

	symmetry c1
}
set optking {
	frozen_dihedral = ("
		7 3 6 9
	")
}

ee = energy('scf')
oeprop('DIPOLE', 'QUADRUPOLE', 'MULLIKEN_CHARGES')
f=open( 'psi4out.xyz', 'w' )
f.write( "13  " )
f.write( str(ee) + "\n" )
f.write( MOL.save_string_xyz() )
f.close()
--------------------------------------------------------------------------

    Molecular point group: c1

    Geometry (in Angstrom), charge = 0, multiplicity = 1:

       Center              X                  Y                   Z               Mass
    ------------   -----------------  -----------------  -----------------  -----------------
           H          3.464530174245     0.164478666821    -0.759365331323     1.007825032070
           C          2.753433174245    -0.049553333179     0.030228668677    12.000000000000
           C          1.323682174245     0.116947666821    -0.482587331323    12.000000000000
           H          2.935320174245    -1.062905333179     0.374333668677     1.007825032070
           H          2.959117174245     0.627354666821     0.853686668677     1.007825032070
           C          0.307411174245    -0.179869333179     0.618276668677    12.000000000000
           H          1.145417174245    -0.555536333179    -1.315302331323     1.007825032070
           H          1.167236174245     1.127978666821    -0.839802331323     1.007825032070
           N         -1.067777825755    -0.014863333179     0.082146668677    14.003074004780
           H          0.373274174245    -1.196409333179     0.970612668677     1.007825032070
           H          0.392423174245     0.516746666821     1.438107668677     1.007825032070
           O         -1.329802825755    -0.566696333179    -0.941667331323    15.994914619560
           O         -1.808493825755     0.687927666821     0.699762668677    15.994914619560

  Charge       = 0
  Multiplicity = 1
  Basis Set: 6-31G*
  Basis Set:

    Orbital Energies (a.u.)
    -----------------------

    Doubly Occupied:

       1A    -20.602412     2A    -20.600731     3A    -15.847813
       4A    -11.299445     5A    -11.252492     6A    -11.237765
       7A     -1.631451     8A     -1.417140     9A     -1.134477
      10A     -1.027217    11A     -0.883318    12A     -0.829785
      13A     -0.760564    14A     -0.740062    15A     -0.724744
      16A     -0.666564    17A     -0.604532    18A     -0.585135
      19A     -0.549711    20A     -0.521118    21A     -0.511349
      22A     -0.484848    23A     -0.472815    24A     -0.449206

  @DF-RHF Final Energy:  -321.73489392310887

   => Energetics <=

    Nuclear Repulsion Energy =            247.7461047338942137
    One-Electron Energy =                -929.2925588551698866
    Two-Electron Energy =                 359.8115601981668874
    DFT Exchange-Correlation Energy =       0.0000000000000000
    Empirical Dispersion Energy =           0.0000000000000000
    PCM Polarization Energy =               0.0000000000000000
    EFP Energy =                            0.0000000000000000
    Total Energy =                       -321.7348939231088139

  Mulliken Charges: (a.u.)
   Center  Symbol    Alpha    Beta     Spin     Total
       1     H     0.40773  0.40773  0.00000  0.18454
       2     C     3.24839  3.24839  0.00000 -0.49679
       3     C     3.17231  3.17231  0.00000 -0.34461
       4     H     0.41565  0.41565  0.00000  0.16870
       5     H     0.41614  0.41614  0.00000  0.16773
       6     C     3.08862  3.08862  0.00000 -0.17725
       7     H     0.39327  0.39327  0.00000  0.21346
       8     H     0.40523  0.40523  0.00000  0.18955
       9     N     3.22136  3.22136  0.00000  0.55727
      10     H     0.38740  0.38740  0.00000  0.22519
      11     H     0.38536  0.38536  0.00000  0.22928
      12     O     4.22984  4.22984  0.00000 -0.45969
      13     O     4.22869  4.22869  0.00000 -0.45738

   Total alpha = 24.00000, Total beta = 24.00000, Total charge =  0.00000
