                              Psi4 1.0.54 Driver

  ==> Input File <==

--------------------------------------------------------------------------
set {
	reference rhf
	basis cc-pvtz
}

set_num_threads( 4 )
memory 2 gb

molecule MOL {
0 1

H	 -2.552077	 1.012248	 1.217010
C	 -1.924924	 1.730438	 1.740236
O	 -0.576530	 1.447373	 1.569218
H	 -2.110329	 2.714258	 1.334513
H	 -2.203864	 1.728123	 2.792411
C	 -0.184534	 0.206377	 2.056974
C	 1.266410	 -0.037131	 1.725597
H	 -0.310450	 0.169275	 3.138980
H	 -0.788686	 -0.586665	 1.621641
O	 1.401606	 -0.295166	 0.366636
H	 1.849805	 0.835368	 2.011651
H	 1.623813	 -0.886092	 2.308265
C	 2.714315	 -0.441627	 -0.061017
H	 2.765292	 -0.641548	 -1.128869
H	 3.305661	 0.447341	 0.150952
H	 3.143725	 -1.278506	 0.470147

	symmetry c1
}
set optking {
	frozen_dihedral = ("
		7 10 13 14
	")
}

ee,wfn = optimize('scf', return_wfn=True)
oeprop( wfn, 'DIPOLE', 'QUADRUPOLE', 'MULLIKEN_CHARGES')
f=open( 'psi4out.xyz', 'w' )
f.write( "16  " )
f.write( str(ee) + "\n" )
f.write( MOL.save_string_xyz() )
f.close()
--------------------------------------------------------------------------

    Molecular point group: c1
  Charge       = 0
  Multiplicity = 1
  Basis Set: CC-PVTZ
  Basis Set:
  @DF-RHF Final Energy:  -307.09688419443802
    Total Energy =                       -307.0968841944378482
    Molecular point group: c1
  Basis Set: CC-PVTZ
  Basis Set:
  Basis Set: CC-PVTZ
  Basis Set:
  @DF-RHF Final Energy:  -307.09772094978769
    Total Energy =                       -307.0977209497875720
  Basis Set: CC-PVTZ
  Basis Set:
  Basis Set: CC-PVTZ
  Basis Set:
  @DF-RHF Final Energy:  -307.09795397399535
    Total Energy =                       -307.0979539739953452
  Basis Set: CC-PVTZ
  Basis Set:
  Charge       = 0
  Multiplicity = 1
  Basis Set: CC-PVTZ
  Basis Set:

    Orbital Energies (a.u.)
    -----------------------

    Doubly Occupied:

       1A    -20.547860     2A    -20.547856     3A    -11.267583
       4A    -11.266905     5A    -11.261639     6A    -11.261619
       7A     -1.391879     8A     -1.374671     9A     -1.032134
      10A     -0.937229    11A     -0.892226    12A     -0.824462
      13A     -0.686548    14A     -0.682898    15A     -0.659569
      16A     -0.638238    17A     -0.632344    18A     -0.598654
      19A     -0.550695    20A     -0.536135    21A     -0.509929
      22A     -0.479846    23A     -0.464874    24A     -0.423365
      25A     -0.413768

  @DF-RHF Final Energy:  -307.09795470826197

   => Energetics <=

    Nuclear Repulsion Energy =            258.9273233235977045
    One-Electron Energy =                -932.2846962934954718
    Two-Electron Energy =                 366.2594182616358580
    DFT Exchange-Correlation Energy =       0.0000000000000000
    Empirical Dispersion Energy =           0.0000000000000000
    PCM Polarization Energy =               0.0000000000000000
    EFP Energy =                            0.0000000000000000
    Total Energy =                       -307.0979547082619661
    Molecular point group: c1
  Basis Set: CC-PVTZ
  Basis Set:

  -Total Gradient:
     Atom            X                  Y                   Z
    ------   -----------------  -----------------  -----------------
       1       -0.000000185906    -0.000000645521    -0.000001377080
       2        0.000002207037    -0.000003643027     0.000004137143
       3        0.000007082707     0.000026748910     0.000017468013
       4        0.000004822743    -0.000002056114     0.000001030003
       5       -0.000004100502     0.000002510449     0.000001648660
       6       -0.000016392919    -0.000054724802    -0.000151887588
       7        0.000121109828     0.000122749436     0.000060162670
       8        0.000063729327    -0.000003186935    -0.000033714825
       9       -0.000038215505    -0.000029810687     0.000010637343
      10       -0.000043955122    -0.000102713129     0.000003324290
      11        0.000024216565     0.000010742662     0.000003307113
      12       -0.000011913391    -0.000009662782    -0.000033541721
      13       -0.000012289484    -0.000035950982     0.000100056017
      14       -0.000052348160     0.000063491786    -0.000001544819
      15       -0.000008751691     0.000016109129     0.000008974507
      16       -0.000035015527     0.000000041609     0.000011320275

  **** Optimization is complete! (in 4 steps) ****
    Final optimized geometry and variables:
    Molecular point group: c1

    Geometry (in Angstrom), charge = 0, multiplicity = 1:

    H           -3.008223667525     0.532909591575     0.021208087345
    C           -2.385030331311     1.262727750389     0.532927724519
    O           -1.034921434893     0.997048244470     0.348011846036
    H           -2.588499811912     2.241467410398     0.123617317117
    H           -2.651816610080     1.262961153148     1.588260792505
    C           -0.620445167985    -0.235613003351     0.838245441866
    C            0.830027749125    -0.460867394744     0.492512288047
    H           -0.733570584170    -0.268118275835     1.921795408047
    H           -1.218371442310    -1.039496708060     0.414324137171
    O            0.953371271759    -0.725521666206    -0.866201733483
    H            1.404451832596     0.421333880731     0.766655299252
    H            1.205520832891    -1.301321866296     1.076153056964
    C            2.263065323154    -0.857838272264    -1.307158225220
    H            2.235705017864    -1.059944187935    -2.367941680315
    H            2.833654309177     0.052723848380    -1.139195812084
    H            2.772162960702    -1.679915555325    -0.807301427121

  Mulliken Charges: (a.u.)
   Center  Symbol    Alpha    Beta     Spin     Total
       1     H     0.47018  0.47018  0.00000  0.05963
       2     C     3.03199  3.03199  0.00000 -0.06398
       3     O     4.17048  4.17048  0.00000 -0.34097
       4     H     0.44634  0.44634  0.00000  0.10732
       5     H     0.47368  0.47368  0.00000  0.05264
       6     C     2.96049  2.96049  0.00000  0.07901
       7     C     2.96054  2.96054  0.00000  0.07891
       8     H     0.47613  0.47613  0.00000  0.04774
       9     H     0.47070  0.47070  0.00000  0.05859
      10     O     4.17042  4.17042  0.00000 -0.34084
      11     H     0.47066  0.47066  0.00000  0.05869
      12     H     0.47614  0.47614  0.00000  0.04772
      13     C     3.03201  3.03201  0.00000 -0.06402
      14     H     0.44632  0.44632  0.00000  0.10735
      15     H     0.47031  0.47031  0.00000  0.05938
      16     H     0.47360  0.47360  0.00000  0.05280

   Total alpha = 25.00000, Total beta = 25.00000, Total charge = -0.00000

*** Psi4 exiting successfully. Buy a developer a beer!
