  ==> Input File <==

--------------------------------------------------------------------------
set {
	reference rhf
	basis cc-pvtz
}

set_num_threads( 4 )
memory 2 gb

molecule MOL {
0 1

H	 -3.987582	 -0.780858	 0.711717
C	 -2.924238	 -0.637131	 0.740332
C	 -2.369109	 0.224143	 1.669676
C	 -2.113600	 -1.313290	 -0.151663
H	 -2.998939	 0.748632	 2.361721
C	 -1.002629	 0.408315	 1.705835
H	 -2.545086	 -1.980990	 -0.871988
C	 -0.745149	 -1.129934	 -0.116711
H	 -0.556185	 1.071294	 2.418720
C	 -0.185647	 -0.267874	 0.812978
H	 -0.114533	 -1.652047	 -0.806096
C	 1.284757	 -0.034508	 0.892805
O	 1.968286	 -0.725612	 -0.000027
O	 1.795080	 0.695372	 1.675125
C	 3.373556	 -0.568203	 0.000011
H	 3.695416	 -0.031588	 -0.879663
H	 3.782700	 -1.565294	 -0.000152
H	 3.695405	 -0.031851	 0.879862

	symmetry c1
}
set optking {
	frozen_dihedral = ("
		12 13 15 16
	")
}

ee = optimize('scf')
oeprop('DIPOLE', 'QUADRUPOLE', 'MULLIKEN_CHARGES')
f=open( 'psi4out.xyz', 'w' )
f.write( "18  " )
f.write( str(ee) + "\n" )
f.write( MOL.save_string_xyz() )
f.close()
--------------------------------------------------------------------------

    Molecular point group: c1
  Charge       = 0
  Multiplicity = 1
  Basis Set: CC-PVTZ
  Basis Set:
  @DF-RHF Final Energy:  -457.50749203143306
    Total Energy =                       -457.5074920314334577
    Molecular point group: c1
  Basis Set: CC-PVTZ
  Basis Set:
  Basis Set: CC-PVTZ
  Basis Set:
  @DF-RHF Final Energy:  -457.50775992469636
    Total Energy =                       -457.5077599246960744
  Basis Set: CC-PVTZ
  Basis Set:
  Basis Set: CC-PVTZ
  Basis Set:
  @DF-RHF Final Energy:  -457.50823318453286
    Total Energy =                       -457.5082331845330827
  Basis Set: CC-PVTZ
  Basis Set:
  Basis Set: CC-PVTZ
  Basis Set:
  @DF-RHF Final Energy:  -457.50812661094955
    Total Energy =                       -457.5081266109494891
  Basis Set: CC-PVTZ
  Basis Set:
  Basis Set: CC-PVTZ
  Basis Set:
  @DF-RHF Final Energy:  -457.50824134436351
    Total Energy =                       -457.5082413443637961
  Basis Set: CC-PVTZ
  Basis Set:
  Charge       = 0
  Multiplicity = 1
  Basis Set: CC-PVTZ
  Basis Set:

    Orbital Energies (a.u.)
    -----------------------

    Doubly Occupied:

       1A    -20.599975     2A    -20.533676     3A    -11.373178
       4A    -11.279961     5A    -11.244596     6A    -11.243197
       7A    -11.242278     8A    -11.239648     9A    -11.235707
      10A    -11.234942    11A     -1.474559    12A     -1.369063
      13A     -1.170355    14A     -1.051554    15A     -1.028673
      16A     -0.981584    17A     -0.862761    18A     -0.838057
      19A     -0.780396    20A     -0.745063    21A     -0.688372
      22A     -0.679285    23A     -0.676100    24A     -0.634304
      25A     -0.629747    26A     -0.600897    27A     -0.587619
      28A     -0.570907    29A     -0.526724    30A     -0.520034
      31A     -0.510062    32A     -0.501547    33A     -0.460328
      34A     -0.449868    35A     -0.350016    36A     -0.345875

  @DF-RHF Final Energy:  -457.50824445180530

   => Energetics <=

    Nuclear Repulsion Energy =            493.6061538118634076
    One-Electron Energy =               -1601.7069802420496671
    Two-Electron Energy =                 650.5925819783810766
    DFT Exchange-Correlation Energy =       0.0000000000000000
    Empirical Dispersion Energy =           0.0000000000000000
    PCM Polarization Energy =               0.0000000000000000
    EFP Energy =                            0.0000000000000000
    Total Energy =                       -457.5082444518052398
    Molecular point group: c1
  Basis Set: CC-PVTZ
  Basis Set:

  -Total Gradient:
     Atom            X                  Y                   Z
    ------   -----------------  -----------------  -----------------
       1        0.000000149976    -0.000000077183     0.000000052178
       2       -0.000002710875     0.000007654315     0.000008913536
       3       -0.000017160744    -0.000002641521    -0.000002560429
       4        0.000009262112     0.000000680384     0.000001706535
       5       -0.000002836149    -0.000000884339    -0.000000174452
       6        0.000001942112    -0.000006185448    -0.000007641427
       7       -0.000001792722     0.000000396529     0.000000264052
       8       -0.000015833153    -0.000008795634    -0.000010004020
       9        0.000000232843    -0.000000441777    -0.000000044809
      10       -0.000013552506     0.000012764163     0.000009564788
      11       -0.000006499332     0.000003943847     0.000005190393
      12        0.000029532065    -0.000542921234     0.000499217563
      13       -0.000039421111     0.000631703528    -0.000779991685
      14        0.000028484713    -0.000027974613    -0.000045379824
      15       -0.000073154680     0.000614294019     0.000701223488
      16        0.000067044279    -0.000699097640    -0.000390125414
      17        0.000020800872     0.000008609490     0.000002981721
      18        0.000015512303     0.000008973115     0.000006807808

  **** Optimization is complete! (in 6 steps) ****
    Final optimized geometry and variables:
    Molecular point group: c1

    Geometry (in Angstrom), charge = 0, multiplicity = 1:

    H           -4.019851799056    -0.475595331995    -0.024536375434
    C           -2.957713816731    -0.324364574463     0.010940009146
    C           -2.414666859857     0.541571353446     0.943144812782
    C           -2.136279588940    -0.995288156683    -0.875022280106
    H           -3.052635906723     1.062286652283     1.630665085709
    C           -1.049777112788     0.735412554546     0.988024050665
    H           -2.558024364925    -1.666628790335    -1.597791554183
    C           -0.769265583962    -0.802240831031    -0.831249268469
    H           -0.613073505832     1.402266531361     1.703308745952
    C           -0.221739560103     0.064318716705     0.101304657564
    H           -0.130894600197    -1.320446604257    -1.516310223068
    C            1.247465611313     0.309578487040     0.192519842811
    O            1.934617871053    -0.379135384862    -0.700549732206
    O            1.739219712120     1.044148861657     0.981596120377
    C            3.345314733706    -0.267945862087    -0.731070682369
    H            3.630291350612     0.266434871267    -1.626050298069
    H            3.744436060831    -1.270176784684    -0.771566727869
    H            3.711411670901     0.246263022867     0.140011983647

  Mulliken Charges: (a.u.)
   Center  Symbol    Alpha    Beta     Spin     Total
       1     H     0.42034  0.42034  0.00000  0.15931
       2     C     3.06972  3.06972  0.00000 -0.13943
       3     C     3.07554  3.07554  0.00000 -0.15108
       4     C     3.07482  3.07482  0.00000 -0.14964
       5     H     0.42049  0.42049  0.00000  0.15903
       6     C     3.07596  3.07596  0.00000 -0.15192
       7     H     0.42199  0.42199  0.00000  0.15603
       8     C     3.08187  3.08187  0.00000 -0.16375
       9     H     0.40636  0.40636  0.00000  0.18728
      10     C     3.01851  3.01851  0.00000 -0.03701
      11     H     0.41124  0.41124  0.00000  0.17751
      12     C     2.77460  2.77460  0.00000  0.45079
      13     O     4.15013  4.15013  0.00000 -0.30026
      14     O     4.21148  4.21148  0.00000 -0.42296
      15     C     3.04229  3.04229  0.00000 -0.08458
      16     H     0.45390  0.45390  0.00000  0.09221
      17     H     0.45079  0.45079  0.00000  0.09843
      18     H     0.43997  0.43997  0.00000  0.12006

   Total alpha = 36.00000, Total beta = 36.00000, Total charge = -0.00000
