                              Psi4 1.0.54 Driver

  ==> Input File <==

--------------------------------------------------------------------------
set {
	reference rhf
	basis cc-pvtz
}

set_num_threads( 4 )
memory 2 gb

molecule MOL {
0 1

O	 2.677958	 -0.231233	 -0.574425
C	 1.704209	 0.119472	 -0.000093
C	 0.380337	 -0.600947	 -0.000234
O	 1.653127	 1.218310	 0.735000
C	 -0.824290	 0.329213	 -0.000115
H	 0.371455	 -1.255476	 -0.865660
H	 0.371410	 -1.255787	 0.864952
C	 -2.146151	 -0.432825	 -0.000068
H	 -0.773936	 0.979158	 -0.866319
H	 -0.773838	 0.979034	 0.866186
C	 -3.366283	 0.483552	 0.000557
H	 -2.189286	 -1.084450	 -0.869996
H	 -2.188867	 -1.085083	 0.869399
C	 -4.687436	 -0.278003	 0.000108
H	 -3.325150	 1.134819	 -0.867957
H	 -3.325087	 1.133730	 0.869885
H	 -4.773783	 -0.912098	 -0.876078
H	 -5.531922	 0.401392	 0.000363
H	 -4.773901	 -0.912898	 0.875703
C	 2.830558	 1.994886	 0.823944
H	 3.634556	 1.419966	 1.258993
H	 2.587334	 2.832768	 1.456907
H	 3.133588	 2.341228	 -0.153007

	symmetry c1
}
set optking {
	frozen_dihedral = ("
		1 2 3 6
	")
}

ee,wfn = optimize('scf', return_wfn=True)
oeprop( wfn, 'DIPOLE', 'QUADRUPOLE', 'MULLIKEN_CHARGES')
f=open( 'psi4out.xyz', 'w' )
f.write( "23  " )
f.write( str(ee) + "\n" )
f.write( MOL.save_string_xyz() )
f.close()
--------------------------------------------------------------------------

    Molecular point group: c1
  Charge       = 0
  Multiplicity = 1
  Basis Set: CC-PVTZ
  Basis Set:
  @DF-RHF Final Energy:  -423.12853395207281
    Total Energy =                       -423.1285339520726438
    Molecular point group: c1
  Basis Set: CC-PVTZ
  Basis Set:
  Basis Set: CC-PVTZ
  Basis Set:
  @DF-RHF Final Energy:  -423.12585988811861
    Total Energy =                       -423.1258598881187254
  Basis Set: CC-PVTZ
  Basis Set:
  Basis Set: CC-PVTZ
  Basis Set:
  @DF-RHF Final Energy:  -423.12911298027092
    Total Energy =                       -423.1291129802709747
  Basis Set: CC-PVTZ
  Basis Set:
  Basis Set: CC-PVTZ
  Basis Set:
  @DF-RHF Final Energy:  -423.12923030310560
    Total Energy =                       -423.1292303031056008
  Basis Set: CC-PVTZ
  Basis Set:
  Basis Set: CC-PVTZ
  Basis Set:
  @DF-RHF Final Energy:  -423.12923437480873
    Total Energy =                       -423.1292343748086751
  Basis Set: CC-PVTZ
  Basis Set:
  Basis Set: CC-PVTZ
  Basis Set:
  @DF-RHF Final Energy:  -423.12923294215108
    Total Energy =                       -423.1292329421510203
  Basis Set: CC-PVTZ
  Basis Set:
  Basis Set: CC-PVTZ
  Basis Set:
  @DF-RHF Final Energy:  -423.12923582210192
    Total Energy =                       -423.1292358221019185
  Basis Set: CC-PVTZ
  Basis Set:
  Charge       = 0
  Multiplicity = 1
  Basis Set: CC-PVTZ
  Basis Set:

    Orbital Energies (a.u.)
    -----------------------

    Doubly Occupied:

       1A    -20.597862     2A    -20.531391     3A    -11.364068
       4A    -11.278987     5A    -11.233405     6A    -11.223406
       7A    -11.218735     8A    -11.217598     9A    -11.209946
      10A     -1.472571    11A     -1.364270    12A     -1.097704
      13A     -1.046256    14A     -0.984346    15A     -0.936421
      16A     -0.848749    17A     -0.798255    18A     -0.776023
      19A     -0.695213    20A     -0.685282    21A     -0.675559
      22A     -0.655121    23A     -0.610651    24A     -0.593902
      25A     -0.579266    26A     -0.567387    27A     -0.552394
      28A     -0.527308    29A     -0.525104    30A     -0.507161
      31A     -0.489695    32A     -0.480073    33A     -0.471021
      34A     -0.469251    35A     -0.458298    36A     -0.429031

  @DF-RHF Final Energy:  -423.12923583538884

   => Energetics <=

    Nuclear Repulsion Energy =            455.7645747574323423
    One-Electron Energy =               -1479.4442053342354484
    Two-Electron Energy =                 600.5503947414147206
    DFT Exchange-Correlation Energy =       0.0000000000000000
    Empirical Dispersion Energy =           0.0000000000000000
    PCM Polarization Energy =               0.0000000000000000
    EFP Energy =                            0.0000000000000000
    Total Energy =                       -423.1292358353883856
    Molecular point group: c1
  Basis Set: CC-PVTZ
  Basis Set:

  -Total Gradient:
     Atom            X                  Y                   Z
    ------   -----------------  -----------------  -----------------
       1        0.000227983912    -0.000572045230     0.000729682357
       2       -0.000399644648     0.000944551323    -0.001146353786
       3        0.000477489817    -0.001119687024     0.000862433740
       4        0.000006979467     0.000011072507     0.000000671554
       5       -0.000002024672     0.000004024839     0.000000737628
       6       -0.000311257284     0.000717047077    -0.000464606274
       7        0.000001673496     0.000002107216     0.000002543025
       8        0.000000237013    -0.000001304101     0.000012009021
       9        0.000000497633     0.000003735404    -0.000001570534
      10       -0.000003853647    -0.000003126995    -0.000000417076
      11        0.000000566030     0.000000501185     0.000001590663
      12        0.000000949871     0.000000850049     0.000001392020
      13        0.000000544890    -0.000000864111     0.000002943451
      14       -0.000000490544     0.000000715596    -0.000007836475
      15       -0.000001737580     0.000003519351    -0.000000388263
      16        0.000002487926    -0.000001967384     0.000001944787
      17       -0.000002611937    -0.000003335092    -0.000002211541
      18       -0.000001144510     0.000000825029    -0.000001736776
      19        0.000002110501     0.000001317422     0.000001200776
      20       -0.000016614054     0.000005019903     0.000001654510
      21        0.000006344156    -0.000000448163     0.000001120241
      22        0.000007879988     0.000006372128     0.000003341745
      23        0.000003634185     0.000001119073     0.000001855212

  **** Optimization is complete! (in 8 steps) ****
    Final optimized geometry and variables:
    Molecular point group: c1

    Geometry (in Angstrom), charge = 0, multiplicity = 1:

    O            2.787942623200    -0.660128773598    -0.703715085129
    C            1.854055657905    -0.253716583538    -0.099126109050
    C            0.480676496991    -0.876269173754    -0.150246332780
    O            1.923509007059     0.774702111736     0.728107510822
    C           -0.690412668972     0.102961468706    -0.092731543754
    H            0.446414909945    -1.466258089585    -1.055384358877
    H            0.426843393210    -1.567798010101     0.686048643786
    C           -2.037130428391    -0.605448100151    -0.206401825044
    H           -0.594282061769     0.825983192281    -0.897766344062
    H           -0.649453447157     0.665094025866     0.831731064033
    C           -3.224817463333     0.351248974147    -0.155567580171
    H           -2.072123113639    -1.170720227707    -1.134501868346
    H           -2.129246208871    -1.333432217207     0.596409534365
    C           -4.569899406356    -0.358285192457    -0.268549633281
    H           -3.133180419827     1.079019740674    -0.957076507348
    H           -3.191402748671     0.914970901380     0.772584156921
    H           -4.647467638932    -0.903832651275    -1.203098822338
    H           -5.390670713726     0.348474152951    -0.229597225532
    H           -4.706844777372    -1.068804155252     0.539839673086
    C            3.181669335476     1.401032620451     0.879152744891
    H            3.911112472064     0.702676664600     1.261588257045
    H            3.031284914682     2.205101207054     1.581159384434
    H            3.528758348293     1.790656163833    -0.066126482727

  Mulliken Charges: (a.u.)
   Center  Symbol    Alpha    Beta     Spin     Total
       1     O     4.20067  4.20067  0.00000 -0.40135
       2     C     2.81520  2.81520  0.00000  0.36960
       3     C     3.08142  3.08142  0.00000 -0.16284
       4     O     4.14546  4.14546  0.00000 -0.29092
       5     C     3.09375  3.09375  0.00000 -0.18750
       6     H     0.43614  0.43614  0.00000  0.12771
       7     H     0.44584  0.44584  0.00000  0.10833
       8     C     3.09134  3.09134  0.00000 -0.18268
       9     H     0.45058  0.45058  0.00000  0.09883
      10     H     0.44330  0.44330  0.00000  0.11340
      11     C     3.08382  3.08382  0.00000 -0.16764
      12     H     0.45318  0.45318  0.00000  0.09363
      13     H     0.45443  0.45443  0.00000  0.09115
      14     C     3.15036  3.15036  0.00000 -0.30073
      15     H     0.45379  0.45379  0.00000  0.09243
      16     H     0.45386  0.45386  0.00000  0.09228
      17     H     0.45463  0.45463  0.00000  0.09073
      18     H     0.44774  0.44774  0.00000  0.10452
      19     H     0.45492  0.45492  0.00000  0.09017
      20     C     3.03621  3.03621  0.00000 -0.07242
      21     H     0.45333  0.45333  0.00000  0.09334
      22     H     0.44631  0.44631  0.00000  0.10738
      23     H     0.45371  0.45371  0.00000  0.09258

   Total alpha = 36.00000, Total beta = 36.00000, Total charge =  0.00000

*** Psi4 exiting successfully. Buy a developer a beer!
