                              Psi4 1.0.54 Driver

  ==> Input File <==

--------------------------------------------------------------------------
set {
	reference rhf
	basis cc-pvtz
}

set_num_threads( 4 )
memory 2 gb

molecule MOL {
0 1

O	 0.967971	 1.697622	 -0.492789
C	 0.402597	 1.263457	 -1.437731
C	 -0.871719	 0.459508	 -1.402401
O	 0.829250	 1.433645	 -2.678448
C	 -1.413045	 0.229353	 0.001137
H	 -1.595427	 0.978189	 -2.022640
H	 -0.671776	 -0.480824	 -1.905652
C	 -2.702562	 -0.586401	 0.000228
H	 -1.584453	 1.186711	 0.480328
H	 -0.660304	 -0.274208	 0.597252
C	 -3.953810	 0.284959	 -0.000782
H	 -2.717793	 -1.238567	 -0.869075
H	 -2.719108	 -1.238472	 0.869576
H	 -3.983727	 0.924403	 -0.876454
H	 -4.852989	 -0.320147	 -0.001515
H	 -3.985140	 0.924399	 0.874841
C	 2.020010	 2.172987	 -2.859506
H	 1.908051	 3.176215	 -2.475805
H	 2.195637	 2.198664	 -3.922692
H	 2.846728	 1.693614	 -2.356553

	symmetry c1
}
set optking {
	frozen_dihedral = ("
		9 5 8 12
	")
}

ee,wfn = optimize('scf', return_wfn=True)
oeprop( wfn, 'DIPOLE', 'QUADRUPOLE', 'MULLIKEN_CHARGES')
f=open( 'psi4out.xyz', 'w' )
f.write( "20  " )
f.write( str(ee) + "\n" )
f.write( MOL.save_string_xyz() )
f.close()
--------------------------------------------------------------------------

    Molecular point group: c1
  Charge       = 0
  Multiplicity = 1
  Basis Set: CC-PVTZ
  Basis Set:
  @DF-RHF Final Energy:  -384.07921638066796
    Total Energy =                       -384.0792163806677308
    Molecular point group: c1
  Basis Set: CC-PVTZ
  Basis Set:
  Basis Set: CC-PVTZ
  Basis Set:
  @DF-RHF Final Energy:  -384.07948152659412
    Total Energy =                       -384.0794815265942361
  Basis Set: CC-PVTZ
  Basis Set:
  Basis Set: CC-PVTZ
  Basis Set:
  @DF-RHF Final Energy:  -384.07920166614895
    Total Energy =                       -384.0792016661490607
  Basis Set: CC-PVTZ
  Basis Set:
  Basis Set: CC-PVTZ
  Basis Set:
  @DF-RHF Final Energy:  -384.07954567904466
    Total Energy =                       -384.0795456790449407
  Basis Set: CC-PVTZ
  Basis Set:
  Basis Set: CC-PVTZ
  Basis Set:
  @DF-RHF Final Energy:  -384.07955158206909
    Total Energy =                       -384.0795515820686887
  Basis Set: CC-PVTZ
  Basis Set:
  Charge       = 0
  Multiplicity = 1
  Basis Set: CC-PVTZ
  Basis Set:

    Orbital Energies (a.u.)
    -----------------------

    Doubly Occupied:

       1A    -20.596366     2A    -20.534258     3A    -11.364557
       4A    -11.278533     5A    -11.234038     6A    -11.218505
       7A    -11.217420     8A    -11.210347     9A     -1.472269
      10A     -1.365847    11A     -1.089297    12A     -1.023948
      13A     -0.969056    14A     -0.890310    15A     -0.803116
      16A     -0.768402    17A     -0.703005    18A     -0.685966
      19A     -0.676353    20A     -0.633730    21A     -0.612738
      22A     -0.596754    23A     -0.573037    24A     -0.547674
      25A     -0.527016    26A     -0.524914    27A     -0.513843
      28A     -0.475057    29A     -0.474592    30A     -0.467784
      31A     -0.458918    32A     -0.440104

  @DF-RHF Final Energy:  -384.07955168241330

   => Energetics <=

    Nuclear Repulsion Energy =            384.4125787774375453
    One-Electron Energy =               -1285.0887478968666073
    Two-Electron Energy =                 516.5966174370159933
    DFT Exchange-Correlation Energy =       0.0000000000000000
    Empirical Dispersion Energy =           0.0000000000000000
    PCM Polarization Energy =               0.0000000000000000
    EFP Energy =                            0.0000000000000000
    Total Energy =                       -384.0795516824130118
    Molecular point group: c1
  Basis Set: CC-PVTZ
  Basis Set:

  -Total Gradient:
     Atom            X                  Y                   Z
    ------   -----------------  -----------------  -----------------
       1        0.000020541452     0.000009565227    -0.000036354103
       2       -0.000016580633    -0.000019845158     0.000002207924
       3       -0.000015890709    -0.000000460022     0.000013067151
       4        0.000016287420     0.000021529943     0.000029924790
       5        0.000710778519    -0.001139388752     0.003314216587
       6        0.000000736446    -0.000009182115    -0.000001359363
       7        0.000001355845    -0.000004539509    -0.000007484876
       8        0.001693438337    -0.002766176189     0.001499684924
       9       -0.000888351972     0.001396471769    -0.003020069356
      10       -0.000009279899    -0.000004578945    -0.000002344349
      11        0.000011118639     0.000001872842     0.000004283393
      12       -0.001524891593     0.002507924002    -0.001787322846
      13        0.000002151527     0.000003931861     0.000000975649
      14       -0.000000776629     0.000001910945     0.000001168332
      15       -0.000003327857    -0.000001427637    -0.000003337264
      16       -0.000004543006     0.000001424415     0.000000470498
      17        0.000001195537    -0.000004749287    -0.000008699986
      18       -0.000002214877     0.000000122901     0.000001431860
      19        0.000007829553     0.000005755688    -0.000001386204
      20        0.000000423903    -0.000000161975     0.000000927235

  **** Optimization is complete! (in 6 steps) ****
    Final optimized geometry and variables:
    Molecular point group: c1

    Geometry (in Angstrom), charge = 0, multiplicity = 1:

    O            1.522326196902     0.831422026942     0.616558207678
    C            0.954915391095     0.383745969367    -0.320880191241
    C           -0.292654172064    -0.460470858340    -0.268406046917
    O            1.355691500147     0.572261607895    -1.567669282364
    C           -0.798430126384    -0.721815268048     1.146188205804
    H           -1.042417340392     0.040757741621    -0.871529846751
    H           -0.072431089441    -1.389689375164    -0.783135987800
    C           -2.111908982958    -1.518403940255     1.158443494827
    H           -0.944496063652     0.235123091679     1.632541657810
    H           -0.029948462807    -1.242310989479     1.702558788139
    C           -3.354189302925    -0.628868304914     1.151737875321
    H           -2.154855517316    -2.166012648651     0.287510682444
    H           -2.143058654548    -2.160666444004     2.030755293710
    H           -3.364322300329     0.033536116774     0.292279775556
    H           -4.260533980892    -1.222536213930     1.117430970422
    H           -3.394653091146    -0.011488053484     2.042341438698
    C            2.520019925100     1.348617366011    -1.764654830194
    H            2.383622585175     2.346356969632    -1.374584780159
    H            2.677458406101     1.384082308402    -2.830416116970
    H            3.369196313578     0.892897253861    -1.277356291549

  Mulliken Charges: (a.u.)
   Center  Symbol    Alpha    Beta     Spin     Total
       1     O     4.19676  4.19676  0.00000 -0.39352
       2     C     2.80641  2.80641  0.00000  0.38719
       3     C     3.10000  3.10000  0.00000 -0.19999
       4     O     4.14716  4.14716  0.00000 -0.29432
       5     C     3.08835  3.08835  0.00000 -0.17669
       6     H     0.44033  0.44033  0.00000  0.11935
       7     H     0.43977  0.43977  0.00000  0.12047
       8     C     3.09327  3.09327  0.00000 -0.18654
       9     H     0.44754  0.44754  0.00000  0.10492
      10     H     0.44112  0.44112  0.00000  0.11777
      11     C     3.14764  3.14764  0.00000 -0.29528
      12     H     0.45722  0.45722  0.00000  0.08557
      13     H     0.44508  0.44508  0.00000  0.10985
      14     H     0.45664  0.45664  0.00000  0.08672
      15     H     0.44811  0.44811  0.00000  0.10377
      16     H     0.45297  0.45297  0.00000  0.09405
      17     C     3.03774  3.03774  0.00000 -0.07549
      18     H     0.45431  0.45431  0.00000  0.09139
      19     H     0.44529  0.44529  0.00000  0.10943
      20     H     0.45431  0.45431  0.00000  0.09138

   Total alpha = 32.00000, Total beta = 32.00000, Total charge =  0.00000

*** Psi4 exiting successfully. Buy a developer a beer!
