                              Psi4 1.0.54 Driver

  ==> Input File <==

--------------------------------------------------------------------------
set {
	reference rhf
	basis cc-pvtz
}

set_num_threads( 4 )
memory 2 gb

molecule MOL {
0 1

H	 -2.698799	 -0.000846	 0.036018
C	 -1.694291	 -0.000483	 0.434279
O	 -0.828718	 -0.000608	 -0.655022
H	 -1.576855	 0.881100	 1.056504
H	 -1.576401	 -0.881658	 1.057001
C	 0.557892	 0.000078	 -0.420099
C	 0.924038	 -0.613874	 0.926479
C	 1.347088	 -0.614819	 -1.570456
H	 0.801421	 1.054423	 -0.379237
H	 0.319363	 -0.182121	 1.714525
H	 1.965965	 -0.415526	 1.149623
H	 0.786908	 -1.688886	 0.937737
H	 1.035864	 -0.183675	 -2.514012
H	 2.404422	 -0.416612	 -1.438042
H	 1.221093	 -1.689824	 -1.625511

	symmetry c1
}
set optking {
	frozen_dihedral = ("
		9 6 3 2
	")
}

ee,wfn = optimize('scf', return_wfn=True)
oeprop( wfn, 'DIPOLE', 'QUADRUPOLE', 'MULLIKEN_CHARGES')
f=open( 'psi4out.xyz', 'w' )
f.write( "15  " )
f.write( str(ee) + "\n" )
f.write( MOL.save_string_xyz() )
f.close()
--------------------------------------------------------------------------

    Molecular point group: c1
  Charge       = 0
  Multiplicity = 1
  Basis Set: CC-PVTZ
  Basis Set:
  @DF-RHF Final Energy:  -232.22020032807268
    Total Energy =                       -232.2202003280726217
    Molecular point group: c1
  Basis Set: CC-PVTZ
  Basis Set:
  Basis Set: CC-PVTZ
  Basis Set:
  @DF-RHF Final Energy:  -231.55308753023672
    Total Energy =                       -231.5530875302366667
  Basis Set: CC-PVTZ
  Basis Set:
  Basis Set: CC-PVTZ
  Basis Set:
  @DF-RHF Final Energy:  -231.73848404453054
    Total Energy =                       -231.7384840445303666
  Basis Set: CC-PVTZ
  Basis Set:
  Basis Set: CC-PVTZ
  Basis Set:
  @DF-RHF Final Energy:  -232.04108662837359
    Total Energy =                       -232.0410866283735913
  Basis Set: CC-PVTZ
  Basis Set:
  @DF-RHF Final Energy:  -232.20685209188187
    Total Energy =                       -232.2068520918818990
  @DF-RHF Final Energy:  -232.22441722202439
    Total Energy =                       -232.2244172220246128
  @DF-RHF Final Energy:  -232.22542186900091
    Total Energy =                       -232.2254218690009111
  Basis Set: CC-PVTZ
  Basis Set:
  @DF-RHF Final Energy:  -232.22544947668462
    Total Energy =                       -232.2254494766848438
  Basis Set: CC-PVTZ
  Basis Set:
  Basis Set: CC-PVTZ
  Basis Set:
  @DF-RHF Final Energy:  -232.22549055811930
    Total Energy =                       -232.2254905581193043
  Basis Set: CC-PVTZ
  Basis Set:
  Basis Set: CC-PVTZ
  Basis Set:
  @DF-RHF Final Energy:  -232.22549211938116
    Total Energy =                       -232.2254921193811583
  Basis Set: CC-PVTZ
  Basis Set:
  Charge       = 0
  Multiplicity = 1
  Basis Set: CC-PVTZ
  Basis Set:

    Orbital Energies (a.u.)
    -----------------------

    Doubly Occupied:

       1A    -20.541889     2A    -11.273175     3A    -11.259880
       4A    -11.212439     5A    -11.203281     6A     -1.373858
       7A     -1.054324     8A     -0.949940     9A     -0.913505
      10A     -0.786078    11A     -0.678080    12A     -0.642797
      13A     -0.632758    14A     -0.592925    15A     -0.550948
      16A     -0.543078    17A     -0.526331    18A     -0.502694
      19A     -0.495552    20A     -0.450934    21A     -0.406463

  @DF-RHF Final Energy:  -232.22549237761660

   => Energetics <=

    Nuclear Repulsion Energy =            198.1555255203557522
    One-Electron Energy =                -707.5801753061409727
    Two-Electron Energy =                 277.1991574081687304
    DFT Exchange-Correlation Energy =       0.0000000000000000
    Empirical Dispersion Energy =           0.0000000000000000
    PCM Polarization Energy =               0.0000000000000000
    EFP Energy =                            0.0000000000000000
    Total Energy =                       -232.2254923776164901
    Molecular point group: c1
  Basis Set: CC-PVTZ
  Basis Set:

  -Total Gradient:
     Atom            X                  Y                   Z
    ------   -----------------  -----------------  -----------------
       1       -0.000018001849    -0.000021971430    -0.000019334464
       2        0.001992314305    -0.003281784604     0.002148308833
       3       -0.002280918246     0.004688278375    -0.004141690846
       4       -0.000010730300     0.000026372072     0.000003117208
       5        0.000007395382    -0.000008715992    -0.000000410405
       6       -0.002628418873    -0.000613347861     0.006065636734
       7       -0.000043092344     0.000051150884     0.000019445751
       8        0.000026479478    -0.000003009512    -0.000013561828
       9        0.002928259815    -0.000823072066    -0.004044073117
      10       -0.000012294582     0.000002614461     0.000017054511
      11        0.000012039697     0.000011020641    -0.000002260516
      12        0.000010844669    -0.000016641517    -0.000011044448
      13        0.000005027336    -0.000011740076    -0.000042817551
      14        0.000008381384     0.000016643690     0.000006695736
      15        0.000002714125    -0.000015797064     0.000014934403

  **** Optimization is complete! (in 11 steps) ****
    Final optimized geometry and variables:
    Molecular point group: c1

    Geometry (in Angstrom), charge = 0, multiplicity = 1:

    H           -2.383403894844    -1.307619054461    -0.512548171392
    C           -1.769167276506    -0.655275067423     0.091842854888
    O           -0.605950871192    -0.415028812947    -0.629120165941
    H           -2.329724072291     0.257421323760     0.283911164358
    H           -1.576555115913    -1.148048560661     1.038415949919
    C            0.347699647261     0.491617288798    -0.129120650898
    C            0.447025597630     0.548324062997     1.388844140598
    C            1.674384827530     0.088643229329    -0.754353495596
    H            0.102506227049     1.481415638218    -0.513762482326
    H           -0.466904396754     0.895720669560     1.852398378675
    H            1.235609340247     1.237947901330     1.664430028655
    H            0.693662403125    -0.424464832156     1.799736237273
    H            1.574152647532     0.028911188240    -1.830323167129
    H            2.446340169938     0.812771141315    -0.519644757991
    H            1.987097786100    -0.882862268678    -0.388930685942

  Mulliken Charges: (a.u.)
   Center  Symbol    Alpha    Beta     Spin     Total
       1     H     0.44304  0.44304  0.00000  0.11392
       2     C     3.03895  3.03895  0.00000 -0.07791
       3     O     4.18342  4.18342  0.00000 -0.36683
       4     H     0.47132  0.47132  0.00000  0.05737
       5     H     0.46862  0.46862  0.00000  0.06275
       6     C     2.92139  2.92139  0.00000  0.15723
       7     C     3.16855  3.16855  0.00000 -0.33711
       8     C     3.13981  3.13981  0.00000 -0.27963
       9     H     0.46191  0.46191  0.00000  0.07618
      10     H     0.44582  0.44582  0.00000  0.10836
      11     H     0.44483  0.44483  0.00000  0.11035
      12     H     0.45011  0.45011  0.00000  0.09977
      13     H     0.44596  0.44596  0.00000  0.10808
      14     H     0.46000  0.46000  0.00000  0.07999
      15     H     0.45627  0.45627  0.00000  0.08746

   Total alpha = 21.00000, Total beta = 21.00000, Total charge = -0.00000

*** Psi4 exiting successfully. Buy a developer a beer!
