  ==> Input File <==

--------------------------------------------------------------------------
set {
	reference rhf
	basis cc-pvtz
}

set_num_threads( 4 )
memory 2 gb

molecule MOL {
0 1

O	 0.876308	 1.842498	 -0.473877
C	 0.136129	 1.684621	 -1.383970
C	 -1.131502	 0.870107	 -1.350193
O	 0.333130	 2.217784	 -2.578669
C	 -1.413045	 0.229353	 0.001137
H	 -1.942138	 1.525844	 -1.650790
H	 -1.052469	 0.121215	 -2.131459
C	 -2.702562	 -0.586401	 0.000228
H	 -1.467975	 1.002276	 0.759499
H	 -0.577880	 -0.404146	 0.278128
C	 -3.953810	 0.284959	 -0.000782
H	 -2.717793	 -1.238567	 -0.869075
H	 -2.719108	 -1.238472	 0.869576
H	 -3.983727	 0.924403	 -0.876454
H	 -4.852989	 -0.320147	 -0.001515
H	 -3.985140	 0.924399	 0.874841
C	 1.490248	 3.010299	 -2.752786
H	 1.477519	 3.856345	 -2.081764
H	 1.469108	 3.346974	 -3.776539
H	 2.381732	 2.428902	 -2.569871

	symmetry c1
}
set optking {
	frozen_dihedral = ("
		9 5 8 12
	")
}

ee = optimize('scf')
oeprop('DIPOLE', 'QUADRUPOLE', 'MULLIKEN_CHARGES')
f=open( 'psi4out.xyz', 'w' )
f.write( "20  " )
f.write( str(ee) + "\n" )
f.write( MOL.save_string_xyz() )
f.close()
--------------------------------------------------------------------------

    Molecular point group: c1
  Charge       = 0
  Multiplicity = 1
  Basis Set: CC-PVTZ
  Basis Set:
  @DF-RHF Final Energy:  -384.08106807587370
    Total Energy =                       -384.0810680758737590
    Molecular point group: c1
  Basis Set: CC-PVTZ
  Basis Set:
  Basis Set: CC-PVTZ
  Basis Set:
  @DF-RHF Final Energy:  -384.08127730239335
    Total Energy =                       -384.0812773023932323
  Basis Set: CC-PVTZ
  Basis Set:
  Basis Set: CC-PVTZ
  Basis Set:
  @DF-RHF Final Energy:  -384.08119292085837
    Total Energy =                       -384.0811929208580295
  Basis Set: CC-PVTZ
  Basis Set:
  Basis Set: CC-PVTZ
  Basis Set:
  @DF-RHF Final Energy:  -384.08134131189337
    Total Energy =                       -384.0813413118929702
  Basis Set: CC-PVTZ
  Basis Set:
  Charge       = 0
  Multiplicity = 1
  Basis Set: CC-PVTZ
  Basis Set:

    Orbital Energies (a.u.)
    -----------------------

    Doubly Occupied:

       1A    -20.596319     2A    -20.534163     3A    -11.364623
       4A    -11.278496     5A    -11.233562     6A    -11.218677
       7A    -11.217518     8A    -11.210551     9A     -1.472221
      10A     -1.365807    11A     -1.089843    12A     -1.023815
      13A     -0.968767    14A     -0.893917    15A     -0.801254
      16A     -0.767007    17A     -0.703499    18A     -0.685964
      19A     -0.676190    20A     -0.634027    21A     -0.613435
      22A     -0.596362    23A     -0.571298    24A     -0.549520
      25A     -0.532607    26A     -0.524531    27A     -0.510635
      28A     -0.475445    29A     -0.473994    30A     -0.467902
      31A     -0.459079    32A     -0.440693

  @DF-RHF Final Energy:  -384.08134188353813

   => Energetics <=

    Nuclear Repulsion Energy =            385.1247184302475262
    One-Electron Energy =               -1286.5086740500496489
    Two-Electron Energy =                 517.3026137362641066
    DFT Exchange-Correlation Energy =       0.0000000000000000
    Empirical Dispersion Energy =           0.0000000000000000
    PCM Polarization Energy =               0.0000000000000000
    EFP Energy =                            0.0000000000000000
    Total Energy =                       -384.0813418835380162
    Molecular point group: c1
  Basis Set: CC-PVTZ
  Basis Set:

  -Total Gradient:
     Atom            X                  Y                   Z
    ------   -----------------  -----------------  -----------------
       1        0.000000900032     0.000021939829     0.000021213250
       2        0.000015154635    -0.000049025003    -0.000051282130
       3        0.000024249268    -0.000097360788     0.000013162526
       4       -0.000004975142     0.000010266546     0.000022856014
       5        0.000452306199    -0.000764714526     0.001081045844
       6       -0.000026663905    -0.000011604601     0.000025763184
       7       -0.000003352214     0.000013761037    -0.000033634479
       8        0.000748876105    -0.001112766791     0.000607503811
       9       -0.000608899930     0.000948604129    -0.000967894415
      10       -0.000018360127    -0.000014611858     0.000005968991
      11        0.000072001839     0.000016409076     0.000091843805
      12       -0.000678725120     0.001047681654    -0.000824369885
      13       -0.000025789444    -0.000013143902     0.000008121300
      14        0.000051099616    -0.000021942406    -0.000000397475
      15        0.000008370870    -0.000016121538     0.000012802501
      16       -0.000015098601     0.000034184281    -0.000002944622
      17        0.000012546181     0.000004918904    -0.000010334017
      18       -0.000001923560    -0.000000987385     0.000000558596
      19        0.000000612394     0.000002153631     0.000000126407
      20       -0.000002329092     0.000002359714    -0.000000109205

  **** Optimization is complete! (in 5 steps) ****
    Final optimized geometry and variables:
    Molecular point group: c1

    Geometry (in Angstrom), charge = 0, multiplicity = 1:

    O            1.652705739705     0.615224607301     0.609826190354
    C            0.914068972995     0.467504455295    -0.303215991350
    C           -0.362958312046    -0.332884926694    -0.276893159229
    O            1.121433274296     1.001447468208    -1.495972100059
    C           -0.648697294260    -0.979039535410     1.073486455712
    H           -1.159964071361     0.335320042603    -0.581754046288
    H           -0.287674692794    -1.080844648196    -1.059572881812
    C           -1.937365631603    -1.804289662945     1.086648974260
    H           -0.702435229140    -0.203400993180     1.829198910720
    H            0.190341083065    -1.609246258300     1.340740464777
    C           -3.215453375265    -0.968304011003     1.106059213025
    H           -1.957092997641    -2.460720196988     0.220557691649
    H           -1.928745351033    -2.447008785756     1.960270702138
    H           -3.306525904794    -0.344859051293     0.223885585371
    H           -4.092134001773    -1.604512031637     1.144264219602
    H           -3.240797647105    -0.318000104422     1.974022300760
    C            2.288079145056     1.781109177036    -1.664023132999
    H            2.282479153737     2.625763510407    -0.991148161998
    H            2.274622296259     2.120303167344    -2.687086395670
    H            3.172242149891     1.189246726502    -1.479121159641

  Mulliken Charges: (a.u.)
   Center  Symbol    Alpha    Beta     Spin     Total
       1     O     4.19688  4.19688  0.00000 -0.39377
       2     C     2.80470  2.80470  0.00000  0.39060
       3     C     3.10132  3.10132  0.00000 -0.20264
       4     O     4.14719  4.14719  0.00000 -0.29438
       5     C     3.08772  3.08772  0.00000 -0.17544
       6     H     0.44005  0.44005  0.00000  0.11990
       7     H     0.44024  0.44024  0.00000  0.11952
       8     C     3.09402  3.09402  0.00000 -0.18805
       9     H     0.44727  0.44727  0.00000  0.10545
      10     H     0.44127  0.44127  0.00000  0.11747
      11     C     3.15043  3.15043  0.00000 -0.30086
      12     H     0.45640  0.45640  0.00000  0.08719
      13     H     0.44515  0.44515  0.00000  0.10971
      14     H     0.45612  0.45612  0.00000  0.08776
      15     H     0.44628  0.44628  0.00000  0.10744
      16     H     0.45325  0.45325  0.00000  0.09350
      17     C     3.03786  3.03786  0.00000 -0.07572
      18     H     0.45431  0.45431  0.00000  0.09138
      19     H     0.44527  0.44527  0.00000  0.10946
      20     H     0.45426  0.45426  0.00000  0.09148

   Total alpha = 32.00000, Total beta = 32.00000, Total charge = -0.00000
