                              Psi4 1.0.54 Driver

  ==> Input File <==

--------------------------------------------------------------------------
set {
	reference rhf
	basis cc-pvtz
}

set_num_threads( 4 )
memory 2 gb

molecule MOL {
0 1

H	 -2.362812	 -0.831741	 -0.859882
N	 -1.641648	 -0.142254	 -0.870037
C	 -0.561396	 -0.500007	 0.035200
H	 -2.058918	 0.724603	 -0.602117
C	 0.575129	 0.507849	 -0.048832
H	 -0.193084	 -1.477804	 -0.257164
H	 -0.886963	 -0.585975	 1.073001
C	 1.951750	 -0.141983	 0.035101
H	 0.478254	 1.061643	 -0.975981
H	 0.467676	 1.231891	 0.755499
H	 2.101550	 -0.848142	 -0.774949
H	 2.738260	 0.600794	 -0.026526
H	 2.078939	 -0.679792	 0.968824

	symmetry c1
}
set optking {
	frozen_dihedral = ("
		6 3 5 9
	")
}

ee,wfn = optimize('scf', return_wfn=True)
oeprop( wfn, 'DIPOLE', 'QUADRUPOLE', 'MULLIKEN_CHARGES')
f=open( 'psi4out.xyz', 'w' )
f.write( "13  " )
f.write( str(ee) + "\n" )
f.write( MOL.save_string_xyz() )
f.close()
--------------------------------------------------------------------------

    Molecular point group: c1
  Charge       = 0
  Multiplicity = 1
  Basis Set: CC-PVTZ
  Basis Set:
  @DF-RHF Final Energy:  -173.34813562509106
    Total Energy =                       -173.3481356250911460
    Molecular point group: c1
  Basis Set: CC-PVTZ
  Basis Set:
  Basis Set: CC-PVTZ
  Basis Set:
  @DF-RHF Final Energy:  -173.34845255869311
    Total Energy =                       -173.3484525586930545
  Basis Set: CC-PVTZ
  Basis Set:
  Basis Set: CC-PVTZ
  Basis Set:
  @DF-RHF Final Energy:  -173.34851897828293
    Total Energy =                       -173.3485189782829536
  Basis Set: CC-PVTZ
  Basis Set:
  Basis Set: CC-PVTZ
  Basis Set:
  @DF-RHF Final Energy:  -173.34852156029399
    Total Energy =                       -173.3485215602939888
  Basis Set: CC-PVTZ
  Basis Set:
  Charge       = 0
  Multiplicity = 1
  Basis Set: CC-PVTZ
  Basis Set:

    Orbital Energies (a.u.)
    -----------------------

    Doubly Occupied:

       1A    -15.527708     2A    -11.238268     3A    -11.210329
       4A    -11.207082     5A     -1.178384     6A     -1.035032
       7A     -0.899099     8A     -0.801673     9A     -0.653432
      10A     -0.641500    11A     -0.598635    12A     -0.566836
      13A     -0.534369    14A     -0.491275    15A     -0.474912
      16A     -0.468281    17A     -0.383346

  @DF-RHF Final Energy:  -173.34852191129693

   => Energetics <=

    Nuclear Repulsion Energy =            131.8446265078105171
    One-Electron Energy =                -494.5659762501906584
    Two-Electron Energy =                 189.3728278310831570
    DFT Exchange-Correlation Energy =       0.0000000000000000
    Empirical Dispersion Energy =           0.0000000000000000
    PCM Polarization Energy =               0.0000000000000000
    EFP Energy =                            0.0000000000000000
    Total Energy =                       -173.3485219112969844
    Molecular point group: c1
  Basis Set: CC-PVTZ
  Basis Set:

  -Total Gradient:
     Atom            X                  Y                   Z
    ------   -----------------  -----------------  -----------------
       1       -0.000037767400    -0.000015122465    -0.000012200927
       2        0.000071293034    -0.000030026512     0.000019587861
       3       -0.001842586613     0.001904869398    -0.005008300265
       4       -0.000009049886     0.000020732592     0.000016639921
       5        0.003493504935    -0.004137766670    -0.001547563040
       6        0.001030398704    -0.000927964189     0.004399867403
       7       -0.000024038039     0.000001308928     0.000031451504
       8       -0.000032891099     0.000024349173    -0.000010062468
       9       -0.002633256953     0.003141851596     0.002087154396
      10       -0.000004985662     0.000007115066     0.000013816516
      11       -0.000005089376     0.000013567648     0.000007919263
      12        0.000009277624    -0.000001748216     0.000004030918
      13       -0.000014809270    -0.000001166347    -0.000002341081

  **** Optimization is complete! (in 5 steps) ****
    Final optimized geometry and variables:
    Molecular point group: c1

    Geometry (in Angstrom), charge = 0, multiplicity = 1:

    H           -2.456140521748    -0.712630935802    -0.614542131701
    N           -1.706944505011    -0.055194152558    -0.669524722629
    C           -0.617046455899    -0.434011440491     0.215183801869
    H           -2.080462084963     0.834188673007    -0.409180081740
    C            0.536169739027     0.573270993196     0.156751489846
    H           -0.258693931998    -1.416281094344    -0.072593055609
    H           -0.937277026284    -0.539043251802     1.252914676290
    C            1.911166053201    -0.067097106041     0.297142408111
    H            0.460652757457     1.130991551041    -0.769868732758
    H            0.405617022855     1.308091734376     0.947183199017
    H            2.109340325732    -0.746461382945    -0.524545757018
    H            2.694037905023     0.682271214898     0.306592771220
    H            1.986868825897    -0.633465509844     1.220056573896

  Mulliken Charges: (a.u.)
   Center  Symbol    Alpha    Beta     Spin     Total
       1     H     0.43056  0.43056  0.00000  0.13888
       2     N     3.68593  3.68593  0.00000 -0.37186
       3     C     3.02304  3.02304  0.00000 -0.04609
       4     H     0.43092  0.43092  0.00000  0.13817
       5     C     3.08437  3.08437  0.00000 -0.16873
       6     H     0.46026  0.46026  0.00000  0.07948
       7     H     0.46895  0.46895  0.00000  0.06211
       8     C     3.14936  3.14936  0.00000 -0.29872
       9     H     0.45039  0.45039  0.00000  0.09922
      10     H     0.45731  0.45731  0.00000  0.08537
      11     H     0.45312  0.45312  0.00000  0.09376
      12     H     0.44962  0.44962  0.00000  0.10076
      13     H     0.45618  0.45618  0.00000  0.08764

   Total alpha = 17.00000, Total beta = 17.00000, Total charge =  0.00000

*** Psi4 exiting successfully. Buy a developer a beer!
