                              Psi4 1.0.54 Driver

  ==> Input File <==

--------------------------------------------------------------------------
set {
	reference rhf
	basis cc-pvtz
}

set_num_threads( 4 )
memory 2 gb

molecule MOL {
0 1

H	 -2.525341	 -1.456875	 2.123160
O	 -2.107762	 -1.472786	 1.275167
C	 -1.033745	 -0.689576	 1.319947
C	 -0.310616	 -0.658853	 0.000791
O	 -0.723095	 -0.103406	 2.298656
C	 0.926581	 0.227233	 0.000178
H	 -1.026877	 -0.337274	 -0.748398
H	 -0.061562	 -1.684781	 -0.250529
C	 2.220156	 -0.582071	 -0.000088
H	 0.899945	 0.878221	 -0.866390
H	 0.900542	 0.878581	 0.866486
C	 3.466689	 0.296012	 -0.000457
H	 2.239073	 -1.234095	 -0.869382
H	 2.239505	 -1.233985	 0.869270
H	 3.493549	 0.935857	 -0.875887
H	 4.368821	 -0.304526	 -0.001199
H	 3.494559	 0.935166	 0.875458

	symmetry c1
}
set optking {
	frozen_dihedral = ("
		7 4 6 10
	")
}

ee,wfn = optimize('scf', return_wfn=True)
oeprop( wfn, 'DIPOLE', 'QUADRUPOLE', 'MULLIKEN_CHARGES')
f=open( 'psi4out.xyz', 'w' )
f.write( "17  " )
f.write( str(ee) + "\n" )
f.write( MOL.save_string_xyz() )
f.close()
--------------------------------------------------------------------------

    Molecular point group: c1
  Charge       = 0
  Multiplicity = 1
  Basis Set: CC-PVTZ
  Basis Set:
  @DF-RHF Final Energy:  -345.04483848009005
    Total Energy =                       -345.0448384800903341
    Molecular point group: c1
  Basis Set: CC-PVTZ
  Basis Set:
  Basis Set: CC-PVTZ
  Basis Set:
  @DF-RHF Final Energy:  -345.04506625438449
    Total Energy =                       -345.0450662543844942
  Basis Set: CC-PVTZ
  Basis Set:
  Basis Set: CC-PVTZ
  Basis Set:
  @DF-RHF Final Energy:  -345.04392607960699
    Total Energy =                       -345.0439260796069902
  Basis Set: CC-PVTZ
  Basis Set:
  Basis Set: CC-PVTZ
  Basis Set:
  @DF-RHF Final Energy:  -345.04519751146938
    Total Energy =                       -345.0451975114695529
  Basis Set: CC-PVTZ
  Basis Set:
  Basis Set: CC-PVTZ
  Basis Set:
  @DF-RHF Final Energy:  -345.04521227766116
    Total Energy =                       -345.0452122776612214
  Basis Set: CC-PVTZ
  Basis Set:
  Basis Set: CC-PVTZ
  Basis Set:
  @DF-RHF Final Energy:  -345.04521593737769
    Total Energy =                       -345.0452159373776908
  Basis Set: CC-PVTZ
  Basis Set:
  Basis Set: CC-PVTZ
  Basis Set:
  @DF-RHF Final Energy:  -345.04521835194282
    Total Energy =                       -345.0452183519428218
  Basis Set: CC-PVTZ
  Basis Set:
  Charge       = 0
  Multiplicity = 1
  Basis Set: CC-PVTZ
  Basis Set:

    Orbital Energies (a.u.)
    -----------------------

    Doubly Occupied:

       1A    -20.604736     2A    -20.541647     3A    -11.374790
       4A    -11.239200     5A    -11.219776     6A    -11.218366
       7A    -11.208492     8A     -1.478621     9A     -1.370035
      10A     -1.089971    11A     -1.018168    12A     -0.914507
      13A     -0.826508    14A     -0.789022    15A     -0.705929
      16A     -0.696863    17A     -0.658299    18A     -0.629293
      19A     -0.588714    20A     -0.584891    21A     -0.583071
      22A     -0.525092    23A     -0.521449    24A     -0.486681
      25A     -0.481323    26A     -0.471276    27A     -0.466529
      28A     -0.449449

  @DF-RHF Final Energy:  -345.04521885876153

   => Energetics <=

    Nuclear Repulsion Energy =            307.6200341486494949
    One-Electron Energy =               -1079.8451157810814038
    Two-Electron Energy =                 427.1798627736701519
    DFT Exchange-Correlation Energy =       0.0000000000000000
    Empirical Dispersion Energy =           0.0000000000000000
    PCM Polarization Energy =               0.0000000000000000
    EFP Energy =                            0.0000000000000000
    Total Energy =                       -345.0452188587618139
    Molecular point group: c1
  Basis Set: CC-PVTZ
  Basis Set:

  -Total Gradient:
     Atom            X                  Y                   Z
    ------   -----------------  -----------------  -----------------
       1        0.000044548589     0.000023807406    -0.000012514964
       2       -0.000050149414    -0.000057664910    -0.000087017819
       3       -0.000044545760     0.000017150541     0.000111827404
       4       -0.001877266211     0.002652776769     0.002844788917
       5        0.000065191155     0.000026414925    -0.000024923414
       6        0.002008508800    -0.002886834602    -0.002389021079
       7        0.001211711441    -0.001735202167    -0.001954743992
       8       -0.000007803725    -0.000013471912    -0.000001874647
       9       -0.000011371172     0.000017674989    -0.000025339664
      10       -0.001368640495     0.001928824009     0.001521415169
      11        0.000012088082     0.000020582758     0.000002395867
      12        0.000011800510     0.000004102376     0.000021883457
      13        0.000004183107     0.000003745938    -0.000006783108
      14       -0.000005213398    -0.000006191057    -0.000007594455
      15       -0.000003888979    -0.000008950478    -0.000002425143
      16        0.000004962587     0.000004312691     0.000007490548
      17        0.000005884881     0.000008922722     0.000002436925

  **** Optimization is complete! (in 8 steps) ****
    Final optimized geometry and variables:
    Molecular point group: c1

    Geometry (in Angstrom), charge = 0, multiplicity = 1:

    H           -2.842168698582    -1.074725932571     1.368205259849
    O           -2.443445477851    -1.035073579783     0.512001370173
    C           -1.343606038120    -0.292168266128     0.594804295744
    C           -0.641676939403    -0.197724928597    -0.733940445331
    O           -0.995598220713     0.202894578586     1.610664583689
    C            0.604924510664     0.693321149998    -0.741097345961
    H           -1.371773015532     0.115935984521    -1.470003710193
    H           -0.394769351431    -1.217696052159    -1.012935180960
    C            1.914800992206    -0.089304074274    -0.729491657139
    H            0.569680994039     1.347553565757    -1.605474439328
    H            0.573390273987     1.342340224251     0.124400800617
    C            3.142978192247     0.812839517219    -0.703083521882
    H            1.958706075495    -0.734734976290    -1.602914150029
    H            1.928600745128    -0.743234350879     0.137833551888
    H            3.170583884531     1.461690239425    -1.572356810572
    H            4.056759871653     0.230184361955    -0.696455917742
    H            3.144689887193     1.442777203774     0.179668194202

  Mulliken Charges: (a.u.)
   Center  Symbol    Alpha    Beta     Spin     Total
       1     H     0.38260  0.38260  0.00000  0.23481
       2     O     4.15935  4.15935  0.00000 -0.31871
       3     C     2.79997  2.79997  0.00000  0.40005
       4     C     3.12082  3.12082  0.00000 -0.24163
       5     O     4.19189  4.19189  0.00000 -0.38379
       6     C     3.09517  3.09517  0.00000 -0.19034
       7     H     0.42865  0.42865  0.00000  0.14269
       8     H     0.43808  0.43808  0.00000  0.12385
       9     C     3.08380  3.08380  0.00000 -0.16761
      10     H     0.44710  0.44710  0.00000  0.10579
      11     H     0.43963  0.43963  0.00000  0.12075
      12     C     3.15099  3.15099  0.00000 -0.30198
      13     H     0.45546  0.45546  0.00000  0.08907
      14     H     0.45087  0.45087  0.00000  0.09826
      15     H     0.45586  0.45586  0.00000  0.08828
      16     H     0.44816  0.44816  0.00000  0.10367
      17     H     0.45158  0.45158  0.00000  0.09683

   Total alpha = 28.00000, Total beta = 28.00000, Total charge = -0.00000

*** Psi4 exiting successfully. Buy a developer a beer!
