                              Psi4 1.0.54 Driver

  ==> Input File <==

--------------------------------------------------------------------------
set {
	reference rhf
	basis cc-pvtz
}

set_num_threads( 4 )
memory 2 gb

molecule MOL {
0 1

H	 1.237618	 -2.010929	 -2.418573
C	 1.249382	 -1.133940	 -1.780187
C	 0.061802	 -1.160746	 -0.827591
H	 1.207629	 -0.251633	 -2.406854
H	 2.196506	 -1.124667	 -1.255208
N	 0.000297	 0.000045	 0.046090
H	 -0.841966	 -1.190180	 -1.420427
H	 0.072470	 -2.087184	 -0.246620
C	 -1.359159	 0.315706	 0.454404
C	 0.908234	 -0.107671	 1.176829
C	 -2.416729	 -0.286720	 -0.460525
H	 -1.478729	 1.390261	 0.442008
H	 -1.539692	 0.003361	 1.486761
C	 1.377976	 1.242491	 1.701085
H	 1.779228	 -0.666582	 0.863706
H	 0.455056	 -0.683801	 1.988381
H	 -2.285276	 0.073129	 -1.473515
H	 -2.371743	 -1.368476	 -0.483209
H	 -3.408658	 -0.007405	 -0.121593
H	 1.889563	 1.790818	 0.919725
H	 0.556776	 1.854055	 2.053782
H	 2.063226	 1.104629	 2.530687

	symmetry c1
}
set optking {
	frozen_dihedral = ("
		3 6 9 11
	")
}

ee,wfn = optimize('scf', return_wfn=True)
oeprop( wfn, 'DIPOLE', 'QUADRUPOLE', 'MULLIKEN_CHARGES')
f=open( 'psi4out.xyz', 'w' )
f.write( "22  " )
f.write( str(ee) + "\n" )
f.write( MOL.save_string_xyz() )
f.close()
--------------------------------------------------------------------------

    Molecular point group: c1
  Charge       = 0
  Multiplicity = 1
  Basis Set: CC-PVTZ
  Basis Set:
  @DF-RHF Final Energy:  -290.45980416434901
    Total Energy =                       -290.4598041643487250
    Molecular point group: c1
  Basis Set: CC-PVTZ
  Basis Set:
  Basis Set: CC-PVTZ
  Basis Set:
  @DF-RHF Final Energy:  -290.15614847260809
    Total Energy =                       -290.1561484726080380
  Basis Set: CC-PVTZ
  Basis Set:
  Basis Set: CC-PVTZ
  Basis Set:
  @DF-RHF Final Energy:  -290.31123268568007
    Total Energy =                       -290.3112326856797836
  Basis Set: CC-PVTZ
  Basis Set:
  Basis Set: CC-PVTZ
  Basis Set:
  @DF-RHF Final Energy:  -290.43707527720358
    Total Energy =                       -290.4370752772035758
  Basis Set: CC-PVTZ
  Basis Set:
  @DF-RHF Final Energy:  -290.46680434936928
    Total Energy =                       -290.4668043493692835
  @DF-RHF Final Energy:  -290.46885728097089
    Total Energy =                       -290.4688572809710081
  Basis Set: CC-PVTZ
  Basis Set:
  @DF-RHF Final Energy:  -290.46916747189243
    Total Energy =                       -290.4691674718923764
  Basis Set: CC-PVTZ
  Basis Set:
  Basis Set: CC-PVTZ
  Basis Set:
  @DF-RHF Final Energy:  -290.46923569268682
    Total Energy =                       -290.4692356926867092
  Basis Set: CC-PVTZ
  Basis Set:
  Basis Set: CC-PVTZ
  Basis Set:
  @DF-RHF Final Energy:  -290.46924236579184
    Total Energy =                       -290.4692423657918994
  Basis Set: CC-PVTZ
  Basis Set:
  Charge       = 0
  Multiplicity = 1
  Basis Set: CC-PVTZ
  Basis Set:

    Orbital Energies (a.u.)
    -----------------------

    Doubly Occupied:

       1A    -15.529322     2A    -11.239882     3A    -11.237351
       4A    -11.236835     5A    -11.210638     6A    -11.202868
       7A    -11.202075     8A     -1.221392     9A     -1.025573
      10A     -1.023956    11A     -0.957923    12A     -0.857567
      13A     -0.844431    14A     -0.759438    15A     -0.652156
      16A     -0.642322    17A     -0.628975    18A     -0.594139
      19A     -0.592029    20A     -0.547215    21A     -0.532812
      22A     -0.520178    23A     -0.515400    24A     -0.502200
      25A     -0.491721    26A     -0.487162    27A     -0.467110
      28A     -0.460653    29A     -0.332602

  @DF-RHF Final Energy:  -290.46924587500024

   => Energetics <=

    Nuclear Repulsion Energy =            337.7958121129684628
    One-Electron Energy =               -1061.4982675386252140
    Two-Electron Energy =                 433.2332095506564542
    DFT Exchange-Correlation Energy =       0.0000000000000000
    Empirical Dispersion Energy =           0.0000000000000000
    PCM Polarization Energy =               0.0000000000000000
    EFP Energy =                            0.0000000000000000
    Total Energy =                       -290.4692458750003539
    Molecular point group: c1
  Basis Set: CC-PVTZ
  Basis Set:

  -Total Gradient:
     Atom            X                  Y                   Z
    ------   -----------------  -----------------  -----------------
       1       -0.000011260367    -0.000010838892    -0.000031783537
       2       -0.000005241476     0.000042209823     0.000012394630
       3       -0.000220475710     0.003112711740    -0.001887540649
       4        0.000006351548     0.000019602488    -0.000022587858
       5        0.000038961895    -0.000018888655     0.000003412889
       6        0.000043735116    -0.006136625904     0.003382950546
       7       -0.000101730526     0.000016157867     0.000015044490
       8        0.000010482149    -0.000040171437     0.000009766583
       9        0.000854062856     0.006252164975    -0.002606498420
      10        0.000013968333     0.000025450679    -0.000057582616
      11       -0.000668861989    -0.003213103505     0.001015404978
      12        0.000001605858     0.000004336382     0.000081331318
      13        0.000007789398    -0.000031128508     0.000027735715
      14        0.000044178517     0.000093197158     0.000017353988
      15        0.000011072655    -0.000021952746     0.000041401305
      16        0.000001258752    -0.000018946155    -0.000002786600
      17        0.000005726864    -0.000068070498    -0.000019463457
      18       -0.000020392448     0.000017554191    -0.000003221036
      19       -0.000018396735     0.000064249979     0.000034564393
      20       -0.000030882058    -0.000078565461     0.000091728196
      21        0.000085720739    -0.000050098614    -0.000092580944
      22       -0.000047673372     0.000040755093    -0.000009043914

  **** Optimization is complete! (in 10 steps) ****
    Final optimized geometry and variables:
    Molecular point group: c1

    Geometry (in Angstrom), charge = 0, multiplicity = 1:

    H           -0.059904886910    -1.098242944468    -3.207205019345
    C            0.398717293689    -0.563772418368    -2.381726741774
    C           -0.468810781825    -0.695569018845    -1.134022302546
    H            0.497850565113     0.478542322792    -2.659614385257
    H            1.392766404266    -0.969938007819    -2.246169028620
    N            0.044812723091     0.057852148869    -0.006692451359
    H           -1.447686490074    -0.326100073041    -1.387962442943
    H           -0.594655213514    -1.756144198679    -0.892456322176
    C           -0.895561687970     0.583866073835     0.977821733201
    C            1.202925259191    -0.546648435255     0.617598616540
    C           -2.349266154561     0.724584801652     0.547675029833
    H           -0.543286971458     1.556187527643     1.302152972619
    H           -0.890117137546    -0.050851338195     1.867862876212
    C            2.076036935238     0.442374033941     1.380051349716
    H            1.808972649300    -1.003039265097    -0.151385175710
    H            0.901912636811    -1.355028403009     1.292588097814
    H           -2.459346489667     1.356676606943    -0.325738843973
    H           -2.813258083468    -0.230900856811     0.340440361322
    H           -2.900290147890     1.187967771990     1.357968696693
    H            2.385713696044     1.252527968064     0.730822189997
    H            1.563666183522     0.869939897654     2.232297535118
    H            2.963178889178    -0.058575263855     1.751302784004

  Mulliken Charges: (a.u.)
   Center  Symbol    Alpha    Beta     Spin     Total
       1     H     0.45324  0.45324  0.00000  0.09352
       2     C     3.14190  3.14190  0.00000 -0.28380
       3     C     3.04223  3.04223  0.00000 -0.08446
       4     H     0.45281  0.45281  0.00000  0.09438
       5     H     0.45527  0.45527  0.00000  0.08945
       6     N     3.61829  3.61829  0.00000 -0.23658
       7     H     0.44669  0.44669  0.00000  0.10663
       8     H     0.46805  0.46805  0.00000  0.06389
       9     C     3.02371  3.02371  0.00000 -0.04742
      10     C     3.04257  3.04257  0.00000 -0.08514
      11     C     3.16316  3.16316  0.00000 -0.32632
      12     H     0.45603  0.45603  0.00000  0.08794
      13     H     0.47170  0.47170  0.00000  0.05659
      14     C     3.14762  3.14762  0.00000 -0.29524
      15     H     0.45004  0.45004  0.00000  0.09991
      16     H     0.46584  0.46584  0.00000  0.06832
      17     H     0.45111  0.45111  0.00000  0.09779
      18     H     0.45066  0.45066  0.00000  0.09868
      19     H     0.44434  0.44434  0.00000  0.11131
      20     H     0.45102  0.45102  0.00000  0.09796
      21     H     0.45310  0.45310  0.00000  0.09380
      22     H     0.45061  0.45061  0.00000  0.09878

   Total alpha = 29.00000, Total beta = 29.00000, Total charge =  0.00000

*** Psi4 exiting successfully. Buy a developer a beer!
