                              Psi4 1.0.54 Driver

  ==> Input File <==

--------------------------------------------------------------------------
set {
	reference rhf
	basis cc-pvtz
}

set_num_threads( 4 )
memory 2 gb

molecule MOL {
0 1

H	 -1.835082	 1.385983	 0.000069
C	 -1.300516	 0.441153	 -0.000028
O	 -0.006604	 0.654344	 -0.000106
O	 -1.828920	 -0.612308	 0.000113
C	 0.454358	 1.931595	 0.431135
C	 1.961901	 1.932077	 0.341608
H	 0.114552	 2.102236	 1.442753
H	 0.016815	 2.692126	 -0.199826
H	 2.385955	 1.163455	 0.975145
H	 2.345607	 2.892725	 0.663758
H	 2.287731	 1.756282	 -0.675692

	symmetry c1
}
set optking {
	frozen_dihedral = ("
		5 3 2 4
	")
}

ee,wfn = optimize('scf', return_wfn=True)
oeprop( wfn, 'DIPOLE', 'QUADRUPOLE', 'MULLIKEN_CHARGES')
f=open( 'psi4out.xyz', 'w' )
f.write( "11  " )
f.write( str(ee) + "\n" )
f.write( MOL.save_string_xyz() )
f.close()
--------------------------------------------------------------------------

    Molecular point group: c1
  Charge       = 0
  Multiplicity = 1
  Basis Set: CC-PVTZ
  Basis Set:
  @DF-RHF Final Energy:  -266.92149457706375
    Total Energy =                       -266.9214945770638678
    Molecular point group: c1
  Basis Set: CC-PVTZ
  Basis Set:
  Basis Set: CC-PVTZ
  Basis Set:
  @DF-RHF Final Energy:  -266.92245668313444
    Total Energy =                       -266.9224566831342145
  Basis Set: CC-PVTZ
  Basis Set:
  Basis Set: CC-PVTZ
  Basis Set:
  @DF-RHF Final Energy:  -266.92231390130149
    Total Energy =                       -266.9223139013014929
  Basis Set: CC-PVTZ
  Basis Set:
  Basis Set: CC-PVTZ
  Basis Set:
  @DF-RHF Final Energy:  -266.92271354412276
    Total Energy =                       -266.9227135441227006
  Basis Set: CC-PVTZ
  Basis Set:
  Basis Set: CC-PVTZ
  Basis Set:
  @DF-RHF Final Energy:  -266.92273210161960
    Total Energy =                       -266.9227321016194310
  Basis Set: CC-PVTZ
  Basis Set:
  Basis Set: CC-PVTZ
  Basis Set:
  @DF-RHF Final Energy:  -266.92273593177686
    Total Energy =                       -266.9227359317768560
  Basis Set: CC-PVTZ
  Basis Set:
  Charge       = 0
  Multiplicity = 1
  Basis Set: CC-PVTZ
  Basis Set:

    Orbital Energies (a.u.)
    -----------------------

    Doubly Occupied:

       1A    -20.604178     2A    -20.545471     3A    -11.371845
       4A    -11.304509     5A    -11.231855     6A     -1.476357
       7A     -1.383538     8A     -1.056290     9A     -0.890255
      10A     -0.847687    11A     -0.741116    12A     -0.696624
      13A     -0.669389    14A     -0.611330    15A     -0.574265
      16A     -0.562365    17A     -0.536024    18A     -0.519943
      19A     -0.461650    20A     -0.453325

  @DF-RHF Final Energy:  -266.92273626578128

   => Energetics <=

    Nuclear Repulsion Energy =            176.6720753667890449
    One-Electron Energy =                -714.1135909141648881
    Two-Electron Energy =                 270.5187792815946750
    DFT Exchange-Correlation Energy =       0.0000000000000000
    Empirical Dispersion Energy =           0.0000000000000000
    PCM Polarization Energy =               0.0000000000000000
    EFP Energy =                            0.0000000000000000
    Total Energy =                       -266.9227362657811682
    Molecular point group: c1
  Basis Set: CC-PVTZ
  Basis Set:

  -Total Gradient:
     Atom            X                  Y                   Z
    ------   -----------------  -----------------  -----------------
       1        0.000012800840     0.000003462995    -0.000002672881
       2        0.000521816407    -0.000896016365    -0.003413032246
       3        0.000348513001     0.001067463441    -0.002140585929
       4       -0.000512448231     0.000416368552     0.003109558971
       5       -0.000351803329    -0.000549748254     0.002470829229
       6       -0.000015538969    -0.000037243659    -0.000014703714
       7        0.000012040054     0.000026888991     0.000009022729
       8        0.000001146379    -0.000019849685    -0.000012381227
       9        0.000007590121    -0.000003910933     0.000002582408
      10       -0.000030504382    -0.000005259209    -0.000000271607
      11        0.000006388101    -0.000002155877    -0.000008345734

  **** Optimization is complete! (in 7 steps) ****
    Final optimized geometry and variables:
    Molecular point group: c1

    Geometry (in Angstrom), charge = 0, multiplicity = 1:

    H           -1.683796576872     0.534271951922    -0.452379362948
    C           -1.159332372594    -0.400124269244    -0.246441656398
    O            0.134265774236    -0.247613574668    -0.036380862044
    O           -1.700606177973    -1.439704420321    -0.214163899228
    C            0.609613744708     1.036284987590     0.325703156222
    C            2.112214391449     1.048217997083     0.171287342362
    H            0.326550718263     1.239784363884     1.351562416119
    H            0.152442918470     1.787922218901    -0.308871360105
    H            2.564275575709     0.293222585898     0.800705456539
    H            2.503498545979     2.017045996118     0.457646732410
    H            2.391618315235     0.851105117177    -0.855578845579

  Mulliken Charges: (a.u.)
   Center  Symbol    Alpha    Beta     Spin     Total
       1     H     0.47603  0.47603  0.00000  0.04794
       2     C     2.84480  2.84480  0.00000  0.31040
       3     O     4.12639  4.12639  0.00000 -0.25277
       4     O     4.17435  4.17435  0.00000 -0.34869
       5     C     2.97745  2.97745  0.00000  0.04510
       6     C     3.13257  3.13257  0.00000 -0.26514
       7     H     0.45658  0.45658  0.00000  0.08685
       8     H     0.46283  0.46283  0.00000  0.07434
       9     H     0.44520  0.44520  0.00000  0.10959
      10     H     0.45537  0.45537  0.00000  0.08926
      11     H     0.44844  0.44844  0.00000  0.10312

   Total alpha = 20.00000, Total beta = 20.00000, Total charge = -0.00000

*** Psi4 exiting successfully. Buy a developer a beer!
