  ==> Input File <==

--------------------------------------------------------------------------
set {
	reference rhf
	basis 6-31G*
}

set_num_threads( 1 )
memory 2 gb

molecule MOL {
0 1

H	 3.463771	 0.168298	 -0.756243
C	 2.752674	 -0.045734	 0.033351
C	 1.322923	 0.120767	 -0.479465
H	 2.934561	 -1.059086	 0.377456
H	 2.958358	 0.631174	 0.856809
C	 0.306652	 -0.176050	 0.621399
H	 1.144658	 -0.551717	 -1.312180
H	 1.166477	 1.131798	 -0.836680
N	 -1.068537	 -0.011044	 0.085269
H	 0.372515	 -1.192590	 0.973735
H	 0.391664	 0.520566	 1.441230
O	 -1.238487	 -0.234029	 -1.073509
O	 -1.905029	 0.365946	 0.848279

	symmetry c1
}
set optking {
	frozen_dihedral = ("
		7 3 6 9
	")
}

ee = energy('scf')
oeprop('DIPOLE', 'QUADRUPOLE', 'MULLIKEN_CHARGES')
f=open( 'psi4out.xyz', 'w' )
f.write( "13  " )
f.write( str(ee) + "\n" )
f.write( MOL.save_string_xyz() )
f.close()
--------------------------------------------------------------------------

    Molecular point group: c1

    Geometry (in Angstrom), charge = 0, multiplicity = 1:

       Center              X                  Y                   Z               Mass
    ------------   -----------------  -----------------  -----------------  -----------------
           H          3.465194954956     0.163931358843    -0.761238787906     1.007825032070
           C          2.754097954956    -0.050100641157     0.028355212094    12.000000000000
           C          1.324346954956     0.116400358843    -0.484460787906    12.000000000000
           H          2.935984954956    -1.063452641157     0.372460212094     1.007825032070
           H          2.959781954956     0.626807358843     0.851813212094     1.007825032070
           C          0.308075954956    -0.180416641157     0.616403212094    12.000000000000
           H          1.146081954956    -0.556083641157    -1.317175787906     1.007825032070
           H          1.167900954956     1.127431358843    -0.841675787906     1.007825032070
           N         -1.067113045044    -0.015410641157     0.080273212094    14.003074004780
           H          0.373938954956    -1.196956641157     0.968739212094     1.007825032070
           H          0.393087954956     0.516199358843     1.436234212094     1.007825032070
           O         -1.237063045044    -0.238395641157    -1.078504787906    15.994914619560
           O         -1.903605045044     0.361579358843     0.843283212094    15.994914619560

  Charge       = 0
  Multiplicity = 1
  Basis Set: 6-31G*
  Basis Set:

    Orbital Energies (a.u.)
    -----------------------

    Doubly Occupied:

       1A    -20.602368     2A    -20.601387     3A    -15.848540
       4A    -11.300036     5A    -11.248774     6A    -11.235833
       7A     -1.632037     8A     -1.417815     9A     -1.133805
      10A     -1.026173    11A     -0.882804    12A     -0.825898
      13A     -0.761943    14A     -0.746429    15A     -0.726168
      16A     -0.660292    17A     -0.604555    18A     -0.581873
      19A     -0.549798    20A     -0.519723    21A     -0.510417
      22A     -0.484138    23A     -0.472781    24A     -0.449530

  @DF-RHF Final Energy:  -321.73382532283841

   => Energetics <=

    Nuclear Repulsion Energy =            248.0608648552571935
    One-Electron Energy =                -929.9432060462268055
    Two-Electron Energy =                 360.1485158681309713
    DFT Exchange-Correlation Energy =       0.0000000000000000
    Empirical Dispersion Energy =           0.0000000000000000
    PCM Polarization Energy =               0.0000000000000000
    EFP Energy =                            0.0000000000000000
    Total Energy =                       -321.7338253228385838

  Mulliken Charges: (a.u.)
   Center  Symbol    Alpha    Beta     Spin     Total
       1     H     0.40810  0.40810  0.00000  0.18379
       2     C     3.24865  3.24865  0.00000 -0.49730
       3     C     3.16908  3.16908  0.00000 -0.33816
       4     H     0.41683  0.41683  0.00000  0.16635
       5     H     0.41723  0.41723  0.00000  0.16555
       6     C     3.09102  3.09102  0.00000 -0.18205
       7     H     0.39427  0.39427  0.00000  0.21147
       8     H     0.40582  0.40582  0.00000  0.18835
       9     N     3.22137  3.22137  0.00000  0.55726
      10     H     0.38524  0.38524  0.00000  0.22951
      11     H     0.38531  0.38531  0.00000  0.22937
      12     O     4.22779  4.22779  0.00000 -0.45557
      13     O     4.22929  4.22929  0.00000 -0.45858

   Total alpha = 24.00000, Total beta = 24.00000, Total charge = -0.00000
