                              Psi4 1.0.54 Driver

  ==> Input File <==

--------------------------------------------------------------------------
set {
	reference rhf
	basis cc-pvtz
}

set_num_threads( 4 )
memory 2 gb

molecule MOL {
0 1

O	 -0.694481	 1.313155	 -0.204815
C	 -0.862519	 0.151932	 -0.046791
C	 -2.171428	 -0.477048	 0.339095
O	 0.085519	 -0.757083	 -0.192238
H	 -2.467997	 -1.191667	 -0.417688
H	 -2.923379	 0.287970	 0.444097
H	 -2.053854	 -1.015120	 1.270901
C	 0.015641	 -1.648136	 -1.299316
C	 0.631272	 -1.043868	 -2.544209
H	 -1.013364	 -1.924104	 -1.469042
H	 0.566338	 -2.521275	 -0.982911
H	 0.620187	 -1.773773	 -3.345811
H	 0.074625	 -0.175167	 -2.868068
H	 1.659155	 -0.754850	 -2.361127

	symmetry c1
}
set optking {
	frozen_dihedral = ("
		8 4 2 1
	")
}

ee,wfn = optimize('scf', return_wfn=True)
oeprop( wfn, 'DIPOLE', 'QUADRUPOLE', 'MULLIKEN_CHARGES')
f=open( 'psi4out.xyz', 'w' )
f.write( "14  " )
f.write( str(ee) + "\n" )
f.write( MOL.save_string_xyz() )
f.close()
--------------------------------------------------------------------------

    Molecular point group: c1
  Charge       = 0
  Multiplicity = 1
  Basis Set: CC-PVTZ
  Basis Set:
  @DF-RHF Final Energy:  -305.96814822570951
    Total Energy =                       -305.9681482257097969
    Molecular point group: c1
  Basis Set: CC-PVTZ
  Basis Set:
  Basis Set: CC-PVTZ
  Basis Set:
  @DF-RHF Final Energy:  -305.14682575079337
    Total Energy =                       -305.1468257507932549
  Basis Set: CC-PVTZ
  Basis Set:
  Basis Set: CC-PVTZ
  Basis Set:
  @DF-RHF Final Energy:  -305.35962474121629
    Total Energy =                       -305.3596247412161802
  Basis Set: CC-PVTZ
  Basis Set:
  Basis Set: CC-PVTZ
  Basis Set:
  @DF-RHF Final Energy:  -305.66143936535798
    Total Energy =                       -305.6614393653582056
  Basis Set: CC-PVTZ
  Basis Set:
  @DF-RHF Final Energy:  -305.87791749051206
    Total Energy =                       -305.8779174905118907
  @DF-RHF Final Energy:  -305.95894612573488
    Total Energy =                       -305.9589461257349967
  @DF-RHF Final Energy:  -305.96921828711623
    Total Energy =                       -305.9692182871164619
  @DF-RHF Final Energy:  -305.86937247776666
    Total Energy =                       -305.8693724777667740
  @DF-RHF Final Energy:  -305.96137475740454
    Total Energy =                       -305.9613747574046556
  @DF-RHF Final Energy:  -305.97050687193087
    Total Energy =                       -305.9705068719307519
  @DF-RHF Final Energy:  -305.96976546908763
    Total Energy =                       -305.9697654690878039
  @DF-RHF Final Energy:  -305.97121530763360
    Total Energy =                       -305.9712153076337700
  @DF-RHF Final Energy:  -305.97129519600094
    Total Energy =                       -305.9712951960010514
  @DF-RHF Final Energy:  -305.97130952904286
    Total Energy =                       -305.9713095290427418
  @DF-RHF Final Energy:  -305.97131275037447
    Total Energy =                       -305.9713127503741816
  Basis Set: CC-PVTZ
  Basis Set:
  @DF-RHF Final Energy:  -305.97131499191516
    Total Energy =                       -305.9713149919151647
  Basis Set: CC-PVTZ
  Basis Set:
  Basis Set: CC-PVTZ
  Basis Set:
  @DF-RHF Final Energy:  -305.97131856428712
    Total Energy =                       -305.9713185642870599
  Basis Set: CC-PVTZ
  Basis Set:
  Basis Set: CC-PVTZ
  Basis Set:
  @DF-RHF Final Energy:  -305.97131994400627
    Total Energy =                       -305.9713199440059270
  Basis Set: CC-PVTZ
  Basis Set:
  Charge       = 0
  Multiplicity = 1
  Basis Set: CC-PVTZ
  Basis Set:

    Orbital Energies (a.u.)
    -----------------------

    Doubly Occupied:

       1A    -20.577927     2A    -20.542283     3A    -11.370094
       4A    -11.295711     5A    -11.237165     6A    -11.222308
       7A     -1.460568     8A     -1.369487     9A     -1.046711
      10A     -1.011481    11A     -0.890522    12A     -0.766959
      13A     -0.693657    14A     -0.683719    15A     -0.675151
      16A     -0.611199    17A     -0.597294    18A     -0.585045
      19A     -0.547959    20A     -0.546998    21A     -0.523278
      22A     -0.485640    23A     -0.456654    24A     -0.439302

  @DF-RHF Final Energy:  -305.97132009976491

   => Energetics <=

    Nuclear Repulsion Energy =            248.8048647028162463
    One-Electron Energy =                -910.2781436588935549
    Two-Electron Energy =                 355.5019588563126831
    DFT Exchange-Correlation Energy =       0.0000000000000000
    Empirical Dispersion Energy =           0.0000000000000000
    PCM Polarization Energy =               0.0000000000000000
    EFP Energy =                            0.0000000000000000
    Total Energy =                       -305.9713200997646823
    Molecular point group: c1
  Basis Set: CC-PVTZ
  Basis Set:

  -Total Gradient:
     Atom            X                  Y                   Z
    ------   -----------------  -----------------  -----------------
       1       -0.000773120499    -0.000145537167    -0.001066059089
       2        0.001303707507     0.000549162807     0.001133319826
       3        0.000005465478     0.000003203440    -0.000002760508
       4       -0.000931973934    -0.001041525777     0.000720557261
       5        0.000005117216     0.000004406280     0.000000628692
       6       -0.000001550528    -0.000003942079     0.000002301346
       7       -0.000000121998     0.000003306889    -0.000003928728
       8        0.000387727418     0.000625749383    -0.000772371624
       9        0.000006163877     0.000011801469    -0.000010390080
      10       -0.000005246385    -0.000003180788    -0.000002001957
      11        0.000002967187     0.000000849766    -0.000003910703
      12        0.000000237110    -0.000001735688     0.000002080589
      13       -0.000002999305    -0.000001662380     0.000004159810
      14        0.000003626855    -0.000000896158    -0.000001624834

  **** Optimization is complete! (in 19 steps) ****
    Final optimized geometry and variables:
    Molecular point group: c1

    Geometry (in Angstrom), charge = 0, multiplicity = 1:

    O            0.197632680335     1.708945969788     0.351964063744
    C           -0.045709276936     0.600019640636     0.659779417199
    C           -1.164116467517     0.219309551295     1.594201595059
    O            0.721351011392    -0.423186994650     0.241706925045
    H           -1.872714021861    -0.433916546137     1.101207113326
    H           -1.671734987365     1.108783771731     1.929960003114
    H           -0.754611193173    -0.319762941827     2.439145615920
    C            0.216799866480    -1.346145356124    -0.707507697997
    C            0.096297638997    -0.739644672546    -2.091377811201
    H           -0.735257545388    -1.744543697948    -0.375053168311
    H            0.927420402590    -2.158210564822    -0.707982662139
    H           -0.228667013229    -1.499387985973    -2.793520866468
    H           -0.623318278420     0.069533197833    -2.110620221685
    H            1.051134076422    -0.348891002942    -2.417040728228

  Mulliken Charges: (a.u.)
   Center  Symbol    Alpha    Beta     Spin     Total
       1     O     4.17083  4.17083  0.00000 -0.34165
       2     C     2.80382  2.80382  0.00000  0.39235
       3     C     3.14831  3.14831  0.00000 -0.29662
       4     O     4.16600  4.16600  0.00000 -0.33201
       5     H     0.45245  0.45245  0.00000  0.09510
       6     H     0.43416  0.43416  0.00000  0.13168
       7     H     0.44246  0.44246  0.00000  0.11508
       8     C     2.99268  2.99268  0.00000  0.01464
       9     C     3.13662  3.13662  0.00000 -0.27324
      10     H     0.46174  0.46174  0.00000  0.07653
      11     H     0.44230  0.44230  0.00000  0.11540
      12     H     0.45193  0.45193  0.00000  0.09613
      13     H     0.45234  0.45234  0.00000  0.09531
      14     H     0.44435  0.44435  0.00000  0.11130

   Total alpha = 24.00000, Total beta = 24.00000, Total charge = -0.00000

*** Psi4 exiting successfully. Buy a developer a beer!
