  ==> Input File <==

--------------------------------------------------------------------------
set {
	reference rhf
	basis 6-31G*
}

set_num_threads( 4 )
memory 2 gb

molecule MOL {
0 1

H	 -3.261111	 -0.295142	 1.469456
C	 -3.306842	 -0.277400	 0.373456
C	 -2.660244	 0.921717	 -0.272021
O	 -3.838538	 -1.161155	 -0.216482
C	 -3.675828	 1.825990	 -0.984155
H	 -2.108394	 1.463128	 0.487613
H	 -1.943435	 0.545049	 -1.000692
C	 -4.650675	 2.519385	 -0.029076
H	 -3.131091	 2.575524	 -1.550499
H	 -4.231665	 1.239879	 -1.714412
C	 -5.649317	 3.425946	 -0.751348
H	 -4.085473	 3.104587	 0.693373
H	 -5.195180	 1.774162	 0.547723
C	 -6.612331	 4.130227	 0.208100
H	 -5.099937	 4.161321	 -1.333704
H	 -6.221728	 2.835076	 -1.465212
C	 -7.684830	 4.985769	 -0.475906
H	 -6.043306	 4.751944	 0.897573
H	 -7.108294	 3.377811	 0.817694
C	 -7.143578	 6.205338	 -1.223782
H	 -8.386989	 5.325518	 0.281387
H	 -8.256924	 4.365103	 -1.162494
H	 -6.552962	 6.836568	 -0.565002
H	 -6.515403	 5.922479	 -2.061852
H	 -7.956787	 6.808293	 -1.616376

	symmetry c1
}
set optking {
	frozen_dihedral = ("
		6 3 2 4
	")
}

ee = optimize('scf')
oeprop('DIPOLE', 'QUADRUPOLE', 'MULLIKEN_CHARGES')
f=open( 'psi4out.xyz', 'w' )
f.write( "25  " )
f.write( str(ee) + "\n" )
f.write( MOL.save_string_xyz() )
f.close()
--------------------------------------------------------------------------

    Molecular point group: c1
  Charge       = 0
  Multiplicity = 1
  Basis Set: 6-31G*
  Basis Set:
  @DF-RHF Final Energy:  -387.11997622317409
    Total Energy =                       -387.1199762231744899
    Molecular point group: c1
  Basis Set: 6-31G*
  Basis Set:
  Basis Set: 6-31G*
  Basis Set:
  @DF-RHF Final Energy:  -387.12029985801365
    Total Energy =                       -387.1202998580137091
  Basis Set: 6-31G*
  Basis Set:
  Basis Set: 6-31G*
  Basis Set:
  @DF-RHF Final Energy:  -387.12023551599401
    Total Energy =                       -387.1202355159938406
  Basis Set: 6-31G*
  Basis Set:
  Basis Set: 6-31G*
  Basis Set:
  @DF-RHF Final Energy:  -387.12034077270749
    Total Energy =                       -387.1203407727074364
  Basis Set: 6-31G*
  Basis Set:
  Basis Set: 6-31G*
  Basis Set:
  @DF-RHF Final Energy:  -387.12034932712891
    Total Energy =                       -387.1203493271289062
  Basis Set: 6-31G*
  Basis Set:
  Basis Set: 6-31G*
  Basis Set:
  @DF-RHF Final Energy:  -387.12035167685735
    Total Energy =                       -387.1203516768567852
  Basis Set: 6-31G*
  Basis Set:
  Charge       = 0
  Multiplicity = 1
  Basis Set: 6-31G*
  Basis Set:

    Orbital Energies (a.u.)
    -----------------------

    Doubly Occupied:

       1A    -20.561951     2A    -11.326606     3A    -11.234132
       4A    -11.229992     5A    -11.223368     6A    -11.218153
       7A    -11.217271     8A    -11.216445     9A    -11.209971
      10A     -1.402255    11A     -1.100935    12A     -1.066818
      13A     -1.011277    14A     -0.941663    15A     -0.876527
      16A     -0.824484    17A     -0.781165    18A     -0.770072
      19A     -0.685732    20A     -0.652201    21A     -0.631217
      22A     -0.621870    23A     -0.596633    24A     -0.593046
      25A     -0.577886    26A     -0.548673    27A     -0.535416
      28A     -0.522774    29A     -0.505446    30A     -0.493830
      31A     -0.489038    32A     -0.477446    33A     -0.463707
      34A     -0.457978    35A     -0.439602    36A     -0.408887

  @DF-RHF Final Energy:  -387.12035180231499

   => Energetics <=

    Nuclear Repulsion Energy =            440.7691409651572485
    One-Electron Energy =               -1397.9500481341592604
    Two-Electron Energy =                 570.0605553666867991
    DFT Exchange-Correlation Energy =       0.0000000000000000
    Empirical Dispersion Energy =           0.0000000000000000
    PCM Polarization Energy =               0.0000000000000000
    EFP Energy =                            0.0000000000000000
    Total Energy =                       -387.1203518023152128
    Molecular point group: c1
  Basis Set: 6-31G*
  Basis Set:

  -Total Gradient:
     Atom            X                  Y                   Z
    ------   -----------------  -----------------  -----------------
       1       -0.000000080036    -0.000004687132     0.000017906090
       2       -0.000642278382     0.000318211777    -0.000011622451
       3       -0.000398433758     0.000275355387     0.000128611323
       4        0.000527697316    -0.000288889917    -0.000008545003
       5        0.000038135767     0.000022536074    -0.000000693135
       6        0.000466795741    -0.000326985107    -0.000129478149
       7        0.000012284273     0.000014619483    -0.000002866868
       8       -0.000019194982    -0.000008845893    -0.000004917508
       9       -0.000001117436     0.000005869380    -0.000015188824
      10        0.000011519291    -0.000005057686     0.000013270434
      11        0.000003418921     0.000002867388     0.000006791393
      12        0.000000949161    -0.000000960063    -0.000009201845
      13       -0.000008640750     0.000000364131     0.000012919577
      14       -0.000007571223    -0.000010460608    -0.000001853787
      15        0.000002890390     0.000008258921    -0.000010758622
      16        0.000003725974     0.000000566779     0.000009522855
      17        0.000001410309     0.000008900593     0.000013816288
      18       -0.000002101415     0.000001174735    -0.000004524585
      19       -0.000001165410    -0.000001661641     0.000002537298
      20        0.000003744617    -0.000003176977    -0.000002998438
      21       -0.000003732746    -0.000003534018     0.000001294845
      22        0.000005729679    -0.000000215335     0.000000977815
      23       -0.000001389967    -0.000002130172    -0.000000575164
      24        0.000006889339    -0.000001596533    -0.000004374961
      25        0.000000515327    -0.000000523557    -0.000000048579

  **** Optimization is complete! (in 7 steps) ****
    Final optimized geometry and variables:
    Molecular point group: c1

    Geometry (in Angstrom), charge = 0, multiplicity = 1:

    H            1.771274579661    -2.819426371336     1.864253206790
    C            1.731028148800    -2.782493768766     0.770688641130
    C            2.377832420173    -1.589940271576     0.098754714931
    O            1.195908042647    -3.655438614302     0.166018390015
    C            1.350252582038    -0.690301113859    -0.605770020169
    H            2.949391364695    -1.022486019410     0.827292799218
    H            3.075958116571    -1.979436942069    -0.636308103369
    C            0.377746423941     0.004422545096     0.350757745637
    H            1.889184343559     0.059387559802    -1.178677482334
    H            0.798329222973    -1.294649247564    -1.318660761338
    C           -0.613924802321     0.918807474115    -0.371474852121
    H            0.941319037509     0.587037984127     1.077907913757
    H           -0.176443524749    -0.741703086973     0.917576187794
    C           -1.584388378123     1.616661842208     0.585152461691
    H           -0.058928298665     1.657593959825    -0.944064295168
    H           -1.180267654589     0.332708744743    -1.093151021259
    C           -2.653701565976     2.474063087136    -0.101471455223
    H           -1.021131388142     2.236634650255     1.281126186552
    H           -2.083361848031     0.860546517868     1.187758051631
    C           -2.108971233052     3.696305815298    -0.842864790110
    H           -3.360698506282     2.810512552503     0.652806209285
    H           -3.220866130415     1.854697165535    -0.793210972820
    H           -1.525902484578     4.328180304235    -0.178083988672
    H           -1.472912677831     3.416558435067    -1.676103078016
    H           -2.920092120149     4.297844735292    -1.241391601560

  Mulliken Charges: (a.u.)
   Center  Symbol    Alpha    Beta     Spin     Total
       1     H     0.42652  0.42652  0.00000  0.14695
       2     C     2.84452  2.84452  0.00000  0.31097
       3     C     3.20192  3.20192  0.00000 -0.40385
       4     O     4.23750  4.23750  0.00000 -0.47501
       5     C     3.15830  3.15830  0.00000 -0.31659
       6     H     0.41680  0.41680  0.00000  0.16640
       7     H     0.39896  0.39896  0.00000  0.20207
       8     C     3.15730  3.15730  0.00000 -0.31461
       9     H     0.41620  0.41620  0.00000  0.16760
      10     H     0.40577  0.40577  0.00000  0.18846
      11     C     3.15423  3.15423  0.00000 -0.30846
      12     H     0.42338  0.42338  0.00000  0.15324
      13     H     0.41999  0.41999  0.00000  0.16003
      14     C     3.15304  3.15304  0.00000 -0.30608
      15     H     0.42099  0.42099  0.00000  0.15802
      16     H     0.42065  0.42065  0.00000  0.15870
      17     C     3.15270  3.15270  0.00000 -0.30540
      18     H     0.42456  0.42456  0.00000  0.15088
      19     H     0.42122  0.42122  0.00000  0.15757
      20     C     3.24139  3.24139  0.00000 -0.48278
      21     H     0.42049  0.42049  0.00000  0.15902
      22     H     0.42228  0.42228  0.00000  0.15543
      23     H     0.42251  0.42251  0.00000  0.15498
      24     H     0.42013  0.42013  0.00000  0.15974
      25     H     0.41864  0.41864  0.00000  0.16271

   Total alpha = 36.00000, Total beta = 36.00000, Total charge = -0.00000
