  ==> Input File <==

--------------------------------------------------------------------------
set {
	reference rhf
	basis 6-31G*
}

set_num_threads( 4 )
memory 2 gb

molecule MOL {
0 1

O	 3.225979	 0.970355	 -0.599647
C	 2.701189	 0.057885	 -0.047330
C	 1.245376	 -0.013843	 0.345420
O	 3.347903	 -1.046386	 0.304773
C	 0.455112	 1.231400	 -0.050772
H	 0.838542	 -0.913825	 -0.103701
H	 1.208210	 -0.175333	 1.419774
C	 -0.998893	 1.219485	 0.433193
H	 0.482531	 1.345121	 -1.130325
H	 0.957290	 2.103070	 0.354729
C	 -1.883438	 0.145884	 -0.207175
H	 -1.431207	 2.195402	 0.224832
H	 -1.019646	 1.105716	 1.516076
C	 -3.347647	 0.245583	 0.225435
H	 -1.822183	 0.231698	 -1.291012
H	 -1.510341	 -0.844814	 0.042401
C	 -4.307006	 -0.496361	 -0.706918
H	 -3.636926	 1.293859	 0.277105
H	 -3.452481	 -0.148635	 1.235039
C	 -5.767558	 -0.388665	 -0.270007
H	 -4.202824	 -0.104353	 -1.716432
H	 -4.022108	 -1.545246	 -0.756455
H	 -6.422558	 -0.924351	 -0.950171
H	 -6.093630	 0.647291	 -0.244155
H	 -5.911293	 -0.804164	 0.723459
C	 4.728119	 -1.109107	 -0.004993
H	 4.882018	 -1.033965	 -1.071845
H	 5.068212	 -2.067527	 0.355250
H	 5.265056	 -0.311663	 0.488280

	symmetry c1
}
set optking {
	frozen_dihedral = ("
		17 14 11 15
	")
}

ee = optimize('scf')
oeprop('DIPOLE', 'QUADRUPOLE', 'MULLIKEN_CHARGES')
f=open( 'psi4out.xyz', 'w' )
f.write( "29  " )
f.write( str(ee) + "\n" )
f.write( MOL.save_string_xyz() )
f.close()
--------------------------------------------------------------------------

    Molecular point group: c1
  Charge       = 0
  Multiplicity = 1
  Basis Set: 6-31G*
  Basis Set:
  @DF-RHF Final Energy:  -501.04289484573940
    Total Energy =                       -501.0428948457401930
    Molecular point group: c1
  Basis Set: 6-31G*
  Basis Set:
  Basis Set: 6-31G*
  Basis Set:
  @DF-RHF Final Energy:  -501.04296030252726
    Total Energy =                       -501.0429603025271490
  Basis Set: 6-31G*
  Basis Set:
  Basis Set: 6-31G*
  Basis Set:
  @DF-RHF Final Energy:  -501.04299401870503
    Total Energy =                       -501.0429940187046896
  Basis Set: 6-31G*
  Basis Set:
  Basis Set: 6-31G*
  Basis Set:
  @DF-RHF Final Energy:  -501.04305405660784
    Total Energy =                       -501.0430540566077298
  Basis Set: 6-31G*
  Basis Set:
  Basis Set: 6-31G*
  Basis Set:
  @DF-RHF Final Energy:  -501.04305703038847
    Total Energy =                       -501.0430570303886952
  Basis Set: 6-31G*
  Basis Set:
  Charge       = 0
  Multiplicity = 1
  Basis Set: 6-31G*
  Basis Set:

    Orbital Energies (a.u.)
    -----------------------

    Doubly Occupied:

       1A    -20.603392     2A    -20.545213     3A    -11.372033
       4A    -11.280678     5A    -11.234781     6A    -11.219166
       7A    -11.217886     8A    -11.215952     9A    -11.215793
      10A    -11.214369    11A    -11.208984    12A     -1.469090
      13A     -1.362531    14A     -1.097784    15A     -1.066679
      16A     -1.019469    17A     -0.977084    18A     -0.928647
      19A     -0.861675    20A     -0.799675    21A     -0.790573
      22A     -0.763938    23A     -0.700990    24A     -0.682319
      25A     -0.672069    26A     -0.649398    27A     -0.628287
      28A     -0.604353    29A     -0.596442    30A     -0.580472
      31A     -0.566276    32A     -0.549990    33A     -0.532565
      34A     -0.530028    35A     -0.515294    36A     -0.512361
      37A     -0.496946    38A     -0.477310    39A     -0.470374
      40A     -0.462509    41A     -0.457165    42A     -0.455601
      43A     -0.441417    44A     -0.435506

  @DF-RHF Final Energy:  -501.04305691883792

   => Energetics <=

    Nuclear Repulsion Energy =            609.8047779248336155
    One-Electron Energy =               -1890.7295379589211279
    Two-Electron Energy =                 779.8817031152491381
    DFT Exchange-Correlation Energy =       0.0000000000000000
    Empirical Dispersion Energy =           0.0000000000000000
    PCM Polarization Energy =               0.0000000000000000
    EFP Energy =                            0.0000000000000000
    Total Energy =                       -501.0430569188383743
    Molecular point group: c1
  Basis Set: 6-31G*
  Basis Set:

  -Total Gradient:
     Atom            X                  Y                   Z
    ------   -----------------  -----------------  -----------------
       1       -0.000031897974    -0.000059968964    -0.000133491054
       2        0.000078925864     0.000159049891     0.000370109969
       3       -0.000013846007    -0.000066131637    -0.000106667244
       4       -0.000021749560    -0.000045469376    -0.000103289603
       5       -0.000017624800    -0.000006312819    -0.000024484000
       6       -0.000012525085     0.000012316902     0.000007763387
       7        0.000027052970    -0.000000057459    -0.000005997696
       8        0.000046822204    -0.000028544682     0.000034922733
       9       -0.000015830572     0.000018781689     0.000008120345
      10        0.000010637206    -0.000005040229     0.000011861329
      11        0.000141103120     0.004695388127    -0.000136782060
      12        0.000019575003    -0.000014042582    -0.000026255788
      13        0.000004302373     0.000033953626     0.000011728760
      14        0.000390179172    -0.003485145611     0.001643487660
      15       -0.000243177751    -0.003138047720    -0.000364714459
      16       -0.000020922745     0.000031968014     0.000009781891
      17       -0.000318735925     0.001910124439    -0.001189533922
      18       -0.000007101716    -0.000018469841     0.000008140995
      19       -0.000013261086    -0.000009796469     0.000001912512
      20       -0.000011697646     0.000026022009    -0.000025183950
      21        0.000010940368    -0.000012060954    -0.000004478198
      22        0.000002683779     0.000000638618     0.000020871478
      23       -0.000006397864     0.000012268803    -0.000006475996
      24       -0.000002267924     0.000001220974     0.000014281052
      25        0.000006156050    -0.000010351585    -0.000009979636
      26       -0.000001083719    -0.000001047321    -0.000002377381
      27        0.000004011307    -0.000000999904    -0.000001275663
      28       -0.000000255876    -0.000001015386    -0.000002301409
      29       -0.000004013177     0.000000769452     0.000000305949

  **** Optimization is complete! (in 6 steps) ****
    Final optimized geometry and variables:
    Molecular point group: c1

    Geometry (in Angstrom), charge = 0, multiplicity = 1:

    O            3.252530208972     0.895333459199    -0.529156339459
    C            2.712762696609    -0.010780889484     0.019179981421
    C            1.252016006277    -0.067575465336     0.395718071047
    O            3.344159571503    -1.121589711635     0.378428873926
    C            0.478719582574     1.184864695322    -0.011417949092
    H            0.841722954279    -0.964603523054    -0.055931893062
    H            1.201472532417    -0.226313672550     1.469929123124
    C           -0.980819070805     1.190087647608     0.455800407982
    H            0.519633810736     1.297238544632    -1.090692354903
    H            0.985506273671     2.051592394456     0.398909431599
    C           -1.875242769318     0.140879877720    -0.208173353268
    H           -1.395580822027     2.174939959605     0.254937712331
    H           -1.016436804613     1.063183341905     1.537043275893
    C           -3.332206562155     0.200046383021     0.264167233629
    H           -1.837807689204     0.252139729455    -1.290651023213
    H           -1.490790076526    -0.857164574261    -0.008582008110
    C           -4.299672169670    -0.540595512025    -0.661001720781
    H           -3.647580155288     1.240249072868     0.331156418717
    H           -3.404236652626    -0.202529955372     1.272595452391
    C           -5.744486048908    -0.508988681669    -0.164187666851
    H           -4.249059772933    -0.099183573680    -1.653682805403
    H           -3.978941950033    -1.574876567641    -0.770701909581
    H           -6.407498561127    -1.030047645126    -0.847951182509
    H           -6.103764978688     0.511882482311    -0.068768520745
    H           -5.834996589087    -0.982392333007     0.809392699794
    C            4.726745789163    -1.199031072090     0.082862490560
    H            4.892357769774    -1.126154205234    -0.982395597663
    H            5.052984247126    -2.160763206183     0.447050103465
    H            5.266960259159    -0.406994174118     0.581241146066

  Mulliken Charges: (a.u.)
   Center  Symbol    Alpha    Beta     Spin     Total
       1     O     4.28595  4.28595  0.00000 -0.57191
       2     C     2.60485  2.60485  0.00000  0.79031
       3     C     3.20963  3.20963  0.00000 -0.41926
       4     O     4.30746  4.30746  0.00000 -0.61492
       5     C     3.15402  3.15402  0.00000 -0.30805
       6     H     0.39888  0.39888  0.00000  0.20225
       7     H     0.40122  0.40122  0.00000  0.19755
       8     C     3.15677  3.15677  0.00000 -0.31355
       9     H     0.41296  0.41296  0.00000  0.17409
      10     H     0.40870  0.40870  0.00000  0.18260
      11     C     3.15589  3.15589  0.00000 -0.31177
      12     H     0.41798  0.41798  0.00000  0.16404
      13     H     0.42380  0.42380  0.00000  0.15241
      14     C     3.15048  3.15048  0.00000 -0.30096
      15     H     0.42221  0.42221  0.00000  0.15558
      16     H     0.42336  0.42336  0.00000  0.15328
      17     C     3.15197  3.15197  0.00000 -0.30395
      18     H     0.42387  0.42387  0.00000  0.15227
      19     H     0.42293  0.42293  0.00000  0.15413
      20     C     3.23950  3.23950  0.00000 -0.47899
      21     H     0.42236  0.42236  0.00000  0.15528
      22     H     0.42350  0.42350  0.00000  0.15299
      23     H     0.41919  0.41919  0.00000  0.16161
      24     H     0.42160  0.42160  0.00000  0.15680
      25     H     0.42180  0.42180  0.00000  0.15640
      26     C     3.09241  3.09241  0.00000 -0.18481
      27     H     0.40907  0.40907  0.00000  0.18187
      28     H     0.40851  0.40851  0.00000  0.18297
      29     H     0.40913  0.40913  0.00000  0.18173

   Total alpha = 44.00000, Total beta = 44.00000, Total charge =  0.00000
