                              Psi4 1.0.54 Driver

  ==> Input File <==

--------------------------------------------------------------------------
set {
	reference rhf
	basis cc-pvtz
}

set_num_threads( 4 )
memory 2 gb

molecule MOL {
0 1

H	 2.171227	 -1.321984	 -0.154743
N	 2.433987	 -0.362316	 -0.080024
C	 1.263552	 0.494993	 0.021953
H	 2.969320	 -0.139312	 -0.893059
C	 -0.016533	 -0.325589	 -0.026925
H	 1.280915	 1.180773	 -0.818522
H	 1.263064	 1.106893	 0.925038
C	 -1.280353	 0.525521	 0.047747
H	 -0.016686	 -0.912532	 -0.939714
H	 -0.014099	 -1.037598	 0.796369
C	 -2.560681	 -0.301323	 -0.007747
H	 -1.279957	 1.241025	 -0.770189
H	 -1.270445	 1.110526	 0.963468
H	 -2.617064	 -0.872870	 -0.928010
H	 -3.439525	 0.331102	 0.043462
H	 -2.609427	 -1.002736	 0.818585

	symmetry c1
}
set optking {
	frozen_dihedral = ("
		1 2 3 6
	")
}

ee,wfn = optimize('scf', return_wfn=True)
oeprop( wfn, 'DIPOLE', 'QUADRUPOLE', 'MULLIKEN_CHARGES')
f=open( 'psi4out.xyz', 'w' )
f.write( "16  " )
f.write( str(ee) + "\n" )
f.write( MOL.save_string_xyz() )
f.close()
--------------------------------------------------------------------------

    Molecular point group: c1
  Charge       = 0
  Multiplicity = 1
  Basis Set: CC-PVTZ
  Basis Set:
  @DF-RHF Final Energy:  -212.39537017867815
    Total Energy =                       -212.3953701786781494
    Molecular point group: c1
  Basis Set: CC-PVTZ
  Basis Set:
  Basis Set: CC-PVTZ
  Basis Set:
  @DF-RHF Final Energy:  -212.39635740773019
    Total Energy =                       -212.3963574077304202
  Basis Set: CC-PVTZ
  Basis Set:
  Basis Set: CC-PVTZ
  Basis Set:
  @DF-RHF Final Energy:  -212.39652256236309
    Total Energy =                       -212.3965225623633160
  Basis Set: CC-PVTZ
  Basis Set:
  Basis Set: CC-PVTZ
  Basis Set:
  @DF-RHF Final Energy:  -212.39652574072923
    Total Energy =                       -212.3965257407294871
  Basis Set: CC-PVTZ
  Basis Set:
  Charge       = 0
  Multiplicity = 1
  Basis Set: CC-PVTZ
  Basis Set:

    Orbital Energies (a.u.)
    -----------------------

    Doubly Occupied:

       1A    -15.523002     2A    -11.237777     3A    -11.215932
       4A    -11.213827     5A    -11.208575     6A     -1.175092
       7A     -1.063501     8A     -0.961262     9A     -0.847387
      10A     -0.798150    11A     -0.665462    12A     -0.638964
      13A     -0.597705    14A     -0.584423    15A     -0.568159
      16A     -0.520223    17A     -0.512070    18A     -0.473500
      19A     -0.472554    20A     -0.464844    21A     -0.377085

  @DF-RHF Final Energy:  -212.39652625818226

   => Energetics <=

    Nuclear Repulsion Energy =            186.5364815029193721
    One-Electron Energy =                -655.6270256238630054
    Two-Electron Energy =                 256.6940178627614273
    DFT Exchange-Correlation Energy =       0.0000000000000000
    Empirical Dispersion Energy =           0.0000000000000000
    PCM Polarization Energy =               0.0000000000000000
    EFP Energy =                            0.0000000000000000
    Total Energy =                       -212.3965262581821776
    Molecular point group: c1
  Basis Set: CC-PVTZ
  Basis Set:

  -Total Gradient:
     Atom            X                  Y                   Z
    ------   -----------------  -----------------  -----------------
       1       -0.000002489482    -0.000036831094     0.000234555584
       2        0.000081607304     0.000034544249    -0.000241761136
       3       -0.000203869238    -0.000161658795    -0.000080437292
       4       -0.000011536293    -0.000001701547    -0.000026616619
       5        0.000085304297     0.000014069370    -0.000011842365
       6        0.000112102036     0.000135678146     0.000113289251
       7       -0.000026970249    -0.000000624865     0.000008932695
       8        0.000012781002    -0.000004756807    -0.000002404007
       9        0.000013985141     0.000005307191     0.000003609129
      10       -0.000005482971     0.000005934118    -0.000017829565
      11       -0.000035754634     0.000019610503     0.000022577736
      12        0.000003526379    -0.000010686637     0.000001783862
      13       -0.000012267224     0.000002310657    -0.000007544595
      14        0.000010196029     0.000010027332     0.000003857233
      15       -0.000021960381    -0.000009376193     0.000004023664
      16        0.000000828283    -0.000001845629    -0.000004193577

  **** Optimization is complete! (in 5 steps) ****
    Final optimized geometry and variables:
    Molecular point group: c1

    Geometry (in Angstrom), charge = 0, multiplicity = 1:

    H            2.235445747498    -1.311036645948    -0.197868114726
    N            2.463079769534    -0.343451726467    -0.128935283854
    C            1.266823272456     0.490591703906    -0.051163643506
    H            3.032406658119    -0.110082191443    -0.911299853172
    C           -0.021191045545    -0.321698403280    -0.036883640604
    H            1.239012133947     1.187468843877    -0.883885154535
    H            1.310993027951     1.093762393791     0.850935624638
    C           -1.272830011760     0.534058785315     0.130424405201
    H           -0.091558472219    -0.893580673005    -0.959442819989
    H            0.030341802388    -1.045518833396     0.773719765914
    C           -2.559111678375    -0.285173472834     0.149244767315
    H           -1.321553113599     1.260980887851    -0.675753106170
    H           -1.196660414929     1.104962161889     1.051295447396
    H           -2.682242415730    -0.841888557548    -0.773778958714
    H           -3.428119937753     0.351320248497     0.269549908791
    H           -2.556214370805    -0.998767420745     0.966390259069

  Mulliken Charges: (a.u.)
   Center  Symbol    Alpha    Beta     Spin     Total
       1     H     0.42851  0.42851  0.00000  0.14297
       2     N     3.69681  3.69681  0.00000 -0.39362
       3     C     3.01585  3.01585  0.00000 -0.03170
       4     H     0.42741  0.42741  0.00000  0.14519
       5     C     3.08852  3.08852  0.00000 -0.17704
       6     H     0.46372  0.46372  0.00000  0.07255
       7     H     0.46319  0.46319  0.00000  0.07362
       8     C     3.08929  3.08929  0.00000 -0.17858
       9     H     0.45751  0.45751  0.00000  0.08499
      10     H     0.45373  0.45373  0.00000  0.09253
      11     C     3.14912  3.14912  0.00000 -0.29823
      12     H     0.45497  0.45497  0.00000  0.09005
      13     H     0.45328  0.45328  0.00000  0.09343
      14     H     0.45526  0.45526  0.00000  0.08948
      15     H     0.44820  0.44820  0.00000  0.10360
      16     H     0.45463  0.45463  0.00000  0.09075

   Total alpha = 21.00000, Total beta = 21.00000, Total charge = -0.00000

*** Psi4 exiting successfully. Buy a developer a beer!
