  ==> Input File <==

--------------------------------------------------------------------------
set {
	reference rhf
	basis 6-31G*
}

set_num_threads( 1 )
memory 2 gb

molecule MOL {
0 1

H	 -3.715462	 -2.688991	 1.218960
C	 -3.166077	 -1.806841	 0.953162
C	 -1.927123	 -1.910081	 0.530864
H	 -3.651941	 -0.853396	 1.041415
O	 -1.180634	 -0.819263	 0.215062
H	 -1.424909	 -2.855870	 0.428591
C	 0.051604	 -1.018856	 -0.387932
C	 1.043764	 0.054862	 -0.001873
H	 -0.017620	 -1.041351	 -1.469781
H	 0.437898	 -1.966374	 -0.042284
F	 2.212596	 -0.199467	 -0.571921
F	 0.652529	 1.252447	 -0.405055
F	 1.230877	 0.110694	 1.300533

	symmetry c1
}
set optking {
	frozen_dihedral = ("
		11 8 7 9,
		6 3 2 1,
		6 3 5 7
	")
}

ee = energy('scf')
oeprop('DIPOLE', 'QUADRUPOLE', 'MULLIKEN_CHARGES')
f=open( 'psi4out.xyz', 'w' )
f.write( "13  " )
f.write( str(ee) + "\n" )
f.write( MOL.save_string_xyz() )
f.close()
--------------------------------------------------------------------------

    Molecular point group: c1

    Geometry (in Angstrom), charge = 0, multiplicity = 1:

       Center              X                  Y                   Z               Mass
    ------------   -----------------  -----------------  -----------------  -----------------
           H         -3.735471863994    -2.239518594032     1.029291910474     1.007825032070
           C         -3.186086863994    -1.357368594032     0.763493910474    12.000000000000
           C         -1.947132863994    -1.460608594032     0.341195910474    12.000000000000
           H         -3.671950863994    -0.403923594032     0.851746910474     1.007825032070
           O         -1.200643863994    -0.369790594032     0.025393910474    15.994914619560
           H         -1.444918863994    -2.406397594032     0.238922910474     1.007825032070
           C          0.031594136006    -0.569383594032    -0.577600089526    12.000000000000
           C          1.023754136006     0.504334405968    -0.191541089526    12.000000000000
           H         -0.037629863994    -0.591878594032    -1.659449089526     1.007825032070
           H          0.417888136006    -1.516901594032    -0.231952089526     1.007825032070
           F          2.192586136006     0.250005405968    -0.761589089526    18.998403224000
           F          0.632519136006     1.701919405968    -0.594723089526    18.998403224000
           F          1.210867136006     0.560166405968     1.110864910474    18.998403224000

  Charge       = 0
  Multiplicity = 1
  Basis Set: 6-31G*
  Basis Set:

    Orbital Energies (a.u.)
    -----------------------

    Doubly Occupied:

       1A    -26.345400     2A    -26.340543     3A    -26.337811
       4A    -20.606763     5A    -11.505919     6A    -11.319132
       7A    -11.303524     8A    -11.219187     9A     -1.740174
      10A     -1.639425    11A     -1.634989    12A     -1.437579
      13A     -1.086819    14A     -1.016696    15A     -0.923470
      16A     -0.836943    17A     -0.829883    18A     -0.808497
      19A     -0.800950    20A     -0.721853    21A     -0.712329
      22A     -0.698082    23A     -0.679180    24A     -0.658283
      25A     -0.652443    26A     -0.640981    27A     -0.639693
      28A     -0.580025    29A     -0.559066    30A     -0.526534
      31A     -0.514776    32A     -0.353690

  @DF-RHF Final Energy:  -527.53291671846750

   => Energetics <=

    Nuclear Repulsion Energy =            405.5567390873990803
    One-Electron Energy =               -1534.8381695653320094
    Two-Electron Energy =                 601.7485137594651405
    DFT Exchange-Correlation Energy =       0.0000000000000000
    Empirical Dispersion Energy =           0.0000000000000000
    PCM Polarization Energy =               0.0000000000000000
    EFP Energy =                            0.0000000000000000
    Total Energy =                       -527.5329167184677317

  Mulliken Charges: (a.u.)
   Center  Symbol    Alpha    Beta     Spin     Total
       1     H     0.40688  0.40688  0.00000  0.18625
       2     C     3.23496  3.23496  0.00000 -0.46992
       3     C     2.89592  2.89592  0.00000  0.20817
       4     H     0.40025  0.40025  0.00000  0.19950
       5     O     4.30507  4.30507  0.00000 -0.61014
       6     H     0.40817  0.40817  0.00000  0.18366
       7     C     3.04715  3.04715  0.00000 -0.09430
       8     C     2.45289  2.45289  0.00000  1.09421
       9     H     0.40302  0.40302  0.00000  0.19396
      10     H     0.40970  0.40970  0.00000  0.18060
      11     F     4.68312  4.68312  0.00000 -0.36625
      12     F     4.67793  4.67793  0.00000 -0.35587
      13     F     4.67494  4.67494  0.00000 -0.34988

   Total alpha = 32.00000, Total beta = 32.00000, Total charge =  0.00000
