  ==> Input File <==

--------------------------------------------------------------------------
set {
	reference rhf
	basis 6-31G*
}

set_num_threads( 4 )
memory 2 gb

molecule MOL {
0 1

H	 -2.499100	 -0.730091	 -0.745082
O	 -2.347518	 -0.290803	 0.079804
C	 -1.184022	 0.487508	 -0.006784
C	 0.062599	 -0.378592	 0.031606
H	 -1.176523	 1.099369	 -0.904519
H	 -1.187323	 1.153111	 0.844927
O	 -0.339739	 -1.711972	 0.031458
H	 0.647046	 -0.154467	 0.926129
H	 0.688482	 -0.156418	 -0.830655
C	 0.706670	 -2.630759	 0.031891
H	 1.331398	 -2.521865	 0.916474
H	 0.272180	 -3.620766	 0.029594
H	 1.334191	 -2.518420	 -0.849805

	symmetry c1
}
set optking {
	frozen_dihedral = ("
		8 4 3 5
	")
}

ee = optimize('scf')
oeprop('DIPOLE', 'QUADRUPOLE', 'MULLIKEN_CHARGES')
f=open( 'psi4out.xyz', 'w' )
f.write( "13  " )
f.write( str(ee) + "\n" )
f.write( MOL.save_string_xyz() )
f.close()
--------------------------------------------------------------------------

    Molecular point group: c1
  Charge       = 0
  Multiplicity = 1
  Basis Set: 6-31G*
  Basis Set:
  @DF-RHF Final Energy:  -267.93732428767322
    Total Energy =                       -267.9373242876732775
    Molecular point group: c1
  Basis Set: 6-31G*
  Basis Set:
  Basis Set: 6-31G*
  Basis Set:
  @DF-RHF Final Energy:  -267.93935013168914
    Total Energy =                       -267.9393501316889683
  Basis Set: 6-31G*
  Basis Set:
  Basis Set: 6-31G*
  Basis Set:
  @DF-RHF Final Energy:  -267.94125079908656
    Total Energy =                       -267.9412507990865606
  Basis Set: 6-31G*
  Basis Set:
  Basis Set: 6-31G*
  Basis Set:
  @DF-RHF Final Energy:  -267.94179051910305
    Total Energy =                       -267.9417905191031650
  Basis Set: 6-31G*
  Basis Set:
  @DF-RHF Final Energy:  -267.94283902698692
    Total Energy =                       -267.9428390269868601
  @DF-RHF Final Energy:  -267.94364830497921
    Total Energy =                       -267.9436483049791491
  Basis Set: 6-31G*
  Basis Set:
  @DF-RHF Final Energy:  -267.94382530221850
    Total Energy =                       -267.9438253022184995
  Basis Set: 6-31G*
  Basis Set:
  Basis Set: 6-31G*
  Basis Set:
  @DF-RHF Final Energy:  -267.94385885956069
    Total Energy =                       -267.9438588595609190
  Basis Set: 6-31G*
  Basis Set:
  Basis Set: 6-31G*
  Basis Set:
  @DF-RHF Final Energy:  -267.94386487917211
    Total Energy =                       -267.9438648791719970
  Basis Set: 6-31G*
  Basis Set:
  Charge       = 0
  Multiplicity = 1
  Basis Set: 6-31G*
  Basis Set:

    Orbital Energies (a.u.)
    -----------------------

    Doubly Occupied:

       1A    -20.577238     2A    -20.537804     3A    -11.281865
       4A    -11.280188     5A    -11.268092     6A     -1.403937
       7A     -1.345609     8A     -1.016827     9A     -0.929159
      10A     -0.836707    11A     -0.699103    12A     -0.690279
      13A     -0.671114    14A     -0.623998    15A     -0.605968
      16A     -0.565865    17A     -0.548487    18A     -0.498835
      19A     -0.473922    20A     -0.447306    21A     -0.411468

  @DF-RHF Final Energy:  -267.94386552174569

   => Energetics <=

    Nuclear Repulsion Energy =            195.0797317931010468
    One-Electron Energy =                -752.6196521719209613
    Two-Electron Energy =                 289.5960548570741366
    DFT Exchange-Correlation Energy =       0.0000000000000000
    Empirical Dispersion Energy =           0.0000000000000000
    PCM Polarization Energy =               0.0000000000000000
    EFP Energy =                            0.0000000000000000
    Total Energy =                       -267.9438655217458063
    Molecular point group: c1
  Basis Set: 6-31G*
  Basis Set:

  -Total Gradient:
     Atom            X                  Y                   Z
    ------   -----------------  -----------------  -----------------
       1        0.000019913837     0.000015697520    -0.000010396055
       2       -0.000045981583     0.000003661713     0.000012124606
       3       -0.001012561233    -0.001572264653    -0.001851264612
       4       -0.001346168980    -0.001675186990     0.001591695716
       5        0.001092877452     0.001618206259     0.001289480808
       6       -0.000003725890    -0.000013710895    -0.000010346828
       7       -0.000014172102    -0.000024129613     0.000028507818
       8        0.001303051036     0.001639671495    -0.001062679170
       9       -0.000003538291     0.000015659152     0.000010980414
      10        0.000018829677    -0.000013214665     0.000004677302
      11       -0.000002839436    -0.000001019158    -0.000002800772
      12       -0.000001914753     0.000001378770     0.000000414304
      13       -0.000003769727     0.000005251070    -0.000000393531

  **** Optimization is complete! (in 10 steps) ****
    Final optimized geometry and variables:
    Molecular point group: c1

    Geometry (in Angstrom), charge = 0, multiplicity = 1:

    H           -1.558819046380    -0.189174455979    -0.208465741753
    O           -1.744198036629     0.728811941066    -0.060820116147
    C           -0.537913570445     1.426853862248    -0.023557954585
    C            0.705977439076     0.508410037648     0.074544927111
    H           -0.447371309967     2.061495639227    -0.900447996826
    H           -0.561504123040     2.087978064122     0.835565386660
    O            0.302009201317    -0.825075325530    -0.015362496529
    H            1.240330514157     0.679783284086     1.006312121012
    H            1.400338003877     0.733574492506    -0.732596831121
    C            1.342354296832    -1.752355025577     0.037694953658
    H            1.886579403609    -1.678336232902     0.975964390358
    H            0.904402083581    -2.737391868294    -0.039666096530
    H            2.040337524297    -1.608023785950    -0.783512386685

  Mulliken Charges: (a.u.)
   Center  Symbol    Alpha    Beta     Spin     Total
       1     H     0.26233  0.26233  0.00000  0.47535
       2     O     4.38128  4.38128  0.00000 -0.76255
       3     C     2.99038  2.99038  0.00000  0.01924
       4     C     3.01037  3.01037  0.00000 -0.02075
       5     H     0.42628  0.42628  0.00000  0.14744
       6     H     0.42201  0.42201  0.00000  0.15599
       7     O     4.31871  4.31871  0.00000 -0.63742
       8     H     0.42394  0.42394  0.00000  0.15213
       9     H     0.42545  0.42545  0.00000  0.14910
      10     C     3.08054  3.08054  0.00000 -0.16107
      11     H     0.42473  0.42473  0.00000  0.15055
      12     H     0.40861  0.40861  0.00000  0.18277
      13     H     0.42538  0.42538  0.00000  0.14923

   Total alpha = 21.00000, Total beta = 21.00000, Total charge = -0.00000
