  ==> Input File <==

--------------------------------------------------------------------------
set {
	reference rhf
	basis 6-31G*
}

set_num_threads( 1 )
memory 2 gb

molecule MOL {
0 1

O	 1.214711	 1.306902	 -0.000018
C	 1.122059	 0.121804	 -0.000188
C	 -0.170150	 -0.657997	 -0.000612
O	 2.172624	 -0.688929	 0.000216
C	 -1.412532	 0.227344	 -0.000452
H	 -0.153702	 -1.313099	 -0.867402
H	 -0.153924	 -1.313811	 0.865644
C	 -2.483437	 -0.273803	 0.969795
H	 -1.819507	 0.273965	 -1.005789
H	 -1.128752	 1.243007	 0.257233
C	 -3.731238	 0.608207	 0.977249
H	 -2.763564	 -1.292068	 0.707609
H	 -2.069624	 -0.321064	 1.975079
H	 -4.188330	 0.648067	 -0.007196
H	 -4.474410	 0.230982	 1.672716
H	 -3.489537	 1.625833	 1.269923
C	 3.452279	 -0.082609	 0.000533
H	 3.583069	 0.529321	 -0.880332
H	 4.163299	 -0.894027	 0.001117
H	 3.582335	 0.529955	 0.881077

	symmetry c1
}
set optking {
	frozen_dihedral = ("
		9 5 8 12,
		1 2 3 6,
		1 2 4 17
	")
}

ee = energy('scf')
oeprop('DIPOLE', 'QUADRUPOLE', 'MULLIKEN_CHARGES')
f=open( 'psi4out.xyz', 'w' )
f.write( "20  " )
f.write( str(ee) + "\n" )
f.write( MOL.save_string_xyz() )
f.close()
--------------------------------------------------------------------------

    Molecular point group: c1

    Geometry (in Angstrom), charge = 0, multiplicity = 1:

       Center              X                  Y                   Z               Mass
    ------------   -----------------  -----------------  -----------------  -----------------
           O          1.158531573431     1.228110388527    -0.243521990430    15.994914619560
           C          1.065879573431     0.043012388527    -0.243691990430    12.000000000000
           C         -0.226329426569    -0.736788611473    -0.244115990430    12.000000000000
           O          2.116444573431    -0.767720611473    -0.243287990430    15.994914619560
           C         -1.468711426569     0.148552388527    -0.243955990430    12.000000000000
           H         -0.209881426569    -1.391890611473    -1.110905990430     1.007825032070
           H         -0.210103426569    -1.392602611473     0.622140009570     1.007825032070
           C         -2.539616426569    -0.352594611473     0.726291009570    12.000000000000
           H         -1.875686426569     0.195173388527    -1.249292990430     1.007825032070
           H         -1.184931426569     1.164215388527     0.013729009570     1.007825032070
           C         -3.787417426569     0.529415388527     0.733745009570    12.000000000000
           H         -2.819743426569    -1.370859611473     0.464105009570     1.007825032070
           H         -2.125803426569    -0.399855611473     1.731575009570     1.007825032070
           H         -4.244509426569     0.569275388527    -0.250699990430     1.007825032070
           H         -4.530589426569     0.152190388527     1.429212009570     1.007825032070
           H         -3.545716426569     1.547041388527     1.026419009570     1.007825032070
           C          3.396099573431    -0.161400611473    -0.242970990430    12.000000000000
           H          3.526889573431     0.450529388527    -1.123835990430     1.007825032070
           H          4.107119573431    -0.972818611473    -0.242386990430     1.007825032070
           H          3.526155573431     0.451163388527     0.637573009570     1.007825032070

  Charge       = 0
  Multiplicity = 1
  Basis Set: 6-31G*
  Basis Set:

    Orbital Energies (a.u.)
    -----------------------

    Doubly Occupied:

       1A    -20.604358     2A    -20.546353     3A    -11.373032
       4A    -11.281245     5A    -11.234430     6A    -11.219047
       7A    -11.215671     8A    -11.209192     9A     -1.470091
      10A     -1.363859    11A     -1.087755    12A     -1.023583
      13A     -0.968966    14A     -0.884817    15A     -0.804459
      16A     -0.767194    17A     -0.701332    18A     -0.681888
      19A     -0.673071    20A     -0.639193    21A     -0.601112
      22A     -0.591918    23A     -0.578780    24A     -0.544564
      25A     -0.530048    26A     -0.520498    27A     -0.504153
      28A     -0.478540    29A     -0.467439    30A     -0.465660
      31A     -0.457280    32A     -0.439281

  @DF-RHF Final Energy:  -383.93751322480779

   => Energetics <=

    Nuclear Repulsion Energy =            382.5545507497318454
    One-Electron Energy =               -1281.1265478078812521
    Two-Electron Energy =                 514.6344838333416192
    DFT Exchange-Correlation Energy =       0.0000000000000000
    Empirical Dispersion Energy =           0.0000000000000000
    PCM Polarization Energy =               0.0000000000000000
    EFP Energy =                            0.0000000000000000
    Total Energy =                       -383.9375132248078444

  Mulliken Charges: (a.u.)
   Center  Symbol    Alpha    Beta     Spin     Total
       1     O     4.28465  4.28465  0.00000 -0.56931
       2     C     2.61066  2.61066  0.00000  0.77869
       3     C     3.21011  3.21011  0.00000 -0.42022
       4     O     4.30582  4.30582  0.00000 -0.61164
       5     C     3.15941  3.15941  0.00000 -0.31881
       6     H     0.39794  0.39794  0.00000  0.20413
       7     H     0.39850  0.39850  0.00000  0.20299
       8     C     3.15611  3.15611  0.00000 -0.31222
       9     H     0.41846  0.41846  0.00000  0.16308
      10     H     0.39517  0.39517  0.00000  0.20967
      11     C     3.24010  3.24010  0.00000 -0.48021
      12     H     0.42350  0.42350  0.00000  0.15299
      13     H     0.42171  0.42171  0.00000  0.15659
      14     H     0.42119  0.42119  0.00000  0.15763
      15     H     0.41908  0.41908  0.00000  0.16184
      16     H     0.41893  0.41893  0.00000  0.16214
      17     C     3.09229  3.09229  0.00000 -0.18457
      18     H     0.40898  0.40898  0.00000  0.18205
      19     H     0.40837  0.40837  0.00000  0.18326
      20     H     0.40904  0.40904  0.00000  0.18192

   Total alpha = 32.00000, Total beta = 32.00000, Total charge =  0.00000
