  ==> Input File <==

--------------------------------------------------------------------------
set {
	reference rhf
	basis 6-31G*
}

set_num_threads( 4 )
memory 2 gb

molecule MOL {
0 1

H	 3.960414	 -0.469565	 2.188081
C	 3.377496	 -0.773210	 1.324509
C	 2.068707	 0.011031	 1.240837
H	 3.988874	 -0.611926	 0.441089
H	 3.194357	 -1.840717	 1.408974
C	 1.217350	 -0.386724	 0.039429
H	 2.272697	 1.075643	 1.182718
H	 1.496359	 -0.145491	 2.153696
N	 0.000003	 0.397874	 -0.023260
H	 1.778816	 -0.206072	 -0.873305
H	 1.018156	 -1.463126	 0.071952
C	 -1.217365	 -0.386708	 0.039277
H	 -0.000031	 1.072115	 0.718656
C	 -2.452633	 0.504241	 -0.042481
H	 -1.215291	 -1.074557	 -0.802042
H	 -1.269739	 -1.003477	 0.942735
C	 -3.758029	 -0.289423	 -0.010781
H	 -2.394220	 1.093569	 -0.952170
H	 -2.440793	 1.210787	 0.785871
H	 -3.816659	 -0.981993	 -0.845726
H	 -4.617837	 0.370165	 -0.069296
H	 -3.847478	 -0.867502	 0.904682

	symmetry c1
}
set optking {
	frozen_dihedral = ("
		10 6 9 12
	")
}

ee = optimize('scf')
oeprop('DIPOLE', 'QUADRUPOLE', 'MULLIKEN_CHARGES')
f=open( 'psi4out.xyz', 'w' )
f.write( "22  " )
f.write( str(ee) + "\n" )
f.write( MOL.save_string_xyz() )
f.close()
--------------------------------------------------------------------------

    Molecular point group: c1
  Charge       = 0
  Multiplicity = 1
  Basis Set: 6-31G*
  Basis Set:
  @DF-RHF Final Energy:  -290.37683991345574
    Total Energy =                       -290.3768399134557967
    Molecular point group: c1
  Basis Set: 6-31G*
  Basis Set:
  Basis Set: 6-31G*
  Basis Set:
  @DF-RHF Final Energy:  -290.37753402600362
    Total Energy =                       -290.3775340260034454
  Basis Set: 6-31G*
  Basis Set:
  Basis Set: 6-31G*
  Basis Set:
  @DF-RHF Final Energy:  -290.37767257003702
    Total Energy =                       -290.3776725700371344
  Basis Set: 6-31G*
  Basis Set:
  Basis Set: 6-31G*
  Basis Set:
  @DF-RHF Final Energy:  -290.37767831189825
    Total Energy =                       -290.3776783118986486
  Basis Set: 6-31G*
  Basis Set:
  Basis Set: 6-31G*
  Basis Set:
  @DF-RHF Final Energy:  -290.37768418680383
    Total Energy =                       -290.3776841868037764
  Basis Set: 6-31G*
  Basis Set:
  Charge       = 0
  Multiplicity = 1
  Basis Set: 6-31G*
  Basis Set:

    Orbital Energies (a.u.)
    -----------------------

    Doubly Occupied:

       1A    -15.529554     2A    -11.238017     3A    -11.237419
       4A    -11.218755     5A    -11.212992     6A    -11.212484
       7A    -11.209424     8A     -1.200882     9A     -1.059950
      10A     -1.026695    11A     -0.928629    12A     -0.868988
      13A     -0.812662    14A     -0.798972    15A     -0.650648
      16A     -0.643979    17A     -0.614221    18A     -0.607988
      19A     -0.574593    20A     -0.555545    21A     -0.546118
      22A     -0.521146    23A     -0.516582    24A     -0.486030
      25A     -0.483062    26A     -0.477443    27A     -0.470523
      28A     -0.454213    29A     -0.350103

  @DF-RHF Final Energy:  -290.37768452977883

   => Energetics <=

    Nuclear Repulsion Energy =            314.2453076823357492
    One-Electron Energy =               -1014.2307510337983558
    Two-Electron Energy =                 409.6077588216834329
    DFT Exchange-Correlation Energy =       0.0000000000000000
    Empirical Dispersion Energy =           0.0000000000000000
    PCM Polarization Energy =               0.0000000000000000
    EFP Energy =                            0.0000000000000000
    Total Energy =                       -290.3776845297792306
    Molecular point group: c1
  Basis Set: 6-31G*
  Basis Set:

  -Total Gradient:
     Atom            X                  Y                   Z
    ------   -----------------  -----------------  -----------------
       1        0.000011007363    -0.000011051289     0.000004876884
       2        0.000011176537    -0.000010226829     0.000014497974
       3       -0.000044343974     0.000029313914    -0.000038245727
       4       -0.000002805828     0.000007977304    -0.000000173619
       5       -0.000001955449     0.000005105829    -0.000004284011
       6       -0.000057460900    -0.000148218896    -0.000009883635
       7        0.000000136676    -0.000014425499     0.000004324748
       8        0.000006983978     0.000003904749    -0.000005398261
       9        0.000000617836     0.000033548734    -0.000163827419
      10        0.000059322884     0.000126293363     0.000077458291
      11       -0.000011245491    -0.000013646062    -0.000000382708
      12        0.000006083743    -0.000001835267     0.000114415772
      13        0.000019052613    -0.000006774737     0.000004746527
      14       -0.000006058043    -0.000000326101     0.000009070478
      15       -0.000004585277    -0.000005217795    -0.000003487158
      16       -0.000000772558     0.000012768279    -0.000004732128
      17        0.000003447371    -0.000000459962    -0.000001292406
      18        0.000004887892    -0.000006105020    -0.000002085177
      19        0.000001077556    -0.000001649564     0.000003973844
      20       -0.000000105294    -0.000001459275    -0.000001671036
      21        0.000005091787     0.000002353626    -0.000000233738
      22        0.000000446572     0.000000130498     0.000002332508

  **** Optimization is complete! (in 6 steps) ****
    Final optimized geometry and variables:
    Molecular point group: c1

    Geometry (in Angstrom), charge = 0, multiplicity = 1:

    H            4.099578522920    -0.337096079609     1.805452374151
    C            3.514162443916    -0.626020753786     0.938553447211
    C            2.192190097151     0.138111966096     0.886019851694
    H            4.114337718375    -0.431717795489     0.054476104730
    H            3.346412302671    -1.697803428897     0.995401609950
    C            1.339130963739    -0.234122673938    -0.326211260994
    H            2.394311084179     1.207264595343     0.861140218432
    H            1.622923772675    -0.050043635308     1.794203435674
    N            0.096998240123     0.526368739472    -0.407886878421
    H            1.922269938921    -0.077797145560    -1.231058747101
    H            1.115497610885    -1.297703803849    -0.284462860259
    C           -1.123144028748    -0.253083797427    -0.335939658424
    H            0.083163080846     1.242464724228     0.290616674216
    C           -2.352534049595     0.644139778698    -0.429836680254
    H           -1.127643612087    -0.950127873749    -1.169115787906
    H           -1.182761020223    -0.858685788125     0.574915578525
    C           -3.662937696598    -0.140874658219    -0.390335140307
    H           -2.288891092918     1.222131496186    -1.346506369799
    H           -2.337381375538     1.360506395224     0.390153208214
    H           -3.724428876486    -0.843721037032    -1.216387572124
    H           -4.518368196590     0.523427592063    -0.459024874074
    H           -3.757837395890    -0.706411087566     0.532401393989

  Mulliken Charges: (a.u.)
   Center  Symbol    Alpha    Beta     Spin     Total
       1     H     0.41749  0.41749  0.00000  0.16501
       2     C     3.24292  3.24292  0.00000 -0.48583
       3     C     3.16850  3.16850  0.00000 -0.33700
       4     H     0.41912  0.41912  0.00000  0.16176
       5     H     0.42055  0.42055  0.00000  0.15890
       6     C     3.03795  3.03795  0.00000 -0.07591
       7     H     0.42080  0.42080  0.00000  0.15840
       8     H     0.42253  0.42253  0.00000  0.15494
       9     N     3.86487  3.86487  0.00000 -0.72973
      10     H     0.42100  0.42100  0.00000  0.15800
      11     H     0.42647  0.42647  0.00000  0.14706
      12     C     3.04764  3.04764  0.00000 -0.09529
      13     H     0.33188  0.33188  0.00000  0.33624
      14     C     3.15681  3.15681  0.00000 -0.31362
      15     H     0.42108  0.42108  0.00000  0.15784
      16     H     0.43731  0.43731  0.00000  0.12539
      17     C     3.24308  3.24308  0.00000 -0.48616
      18     H     0.41277  0.41277  0.00000  0.17447
      19     H     0.42696  0.42696  0.00000  0.14608
      20     H     0.42065  0.42065  0.00000  0.15869
      21     H     0.41780  0.41780  0.00000  0.16440
      22     H     0.42182  0.42182  0.00000  0.15635

   Total alpha = 29.00000, Total beta = 29.00000, Total charge = -0.00000
