  ==> Input File <==

--------------------------------------------------------------------------
set {
	reference rhf
	basis cc-pvtz
}

set_num_threads( 4 )
memory 2 gb

molecule MOL {
0 1

O	 1.135774	 0.546776	 -0.962219
C	 0.576499	 0.134701	 -0.003900
C	 -0.765656	 -0.550508	 -0.002152
O	 1.066982	 0.233637	 1.220686
C	 -1.945526	 0.411052	 0.000603
H	 -0.794329	 -1.203792	 -0.868145
H	 -0.791555	 -1.205429	 0.862701
C	 -3.282915	 -0.321280	 0.002596
H	 -1.880300	 1.059126	 -0.864925
H	 -1.877207	 1.057892	 0.866807
H	 -3.388495	 -0.952755	 -0.873419
H	 -4.107811	 0.380864	 0.004116
H	 -3.385717	 -0.953283	 0.878571
C	 2.324365	 0.862530	 1.367289
H	 3.084388	 0.327493	 0.817603
H	 2.544758	 0.843467	 2.422160
H	 2.284388	 1.881753	 1.012847

	symmetry c1
}
set optking {
	frozen_dihedral = ("
		1 2 3 6
	")
}

ee = optimize('scf')
oeprop('DIPOLE', 'QUADRUPOLE', 'MULLIKEN_CHARGES')
f=open( 'psi4out.xyz', 'w' )
f.write( "17  " )
f.write( str(ee) + "\n" )
f.write( MOL.save_string_xyz() )
f.close()
--------------------------------------------------------------------------

    Molecular point group: c1
  Charge       = 0
  Multiplicity = 1
  Basis Set: CC-PVTZ
  Basis Set:
  @DF-RHF Final Energy:  -345.03334381563025
    Total Energy =                       -345.0333438156296779
    Molecular point group: c1
  Basis Set: CC-PVTZ
  Basis Set:
  Basis Set: CC-PVTZ
  Basis Set:
  @DF-RHF Final Energy:  -345.03366262937078
    Total Energy =                       -345.0336626293711788
  Basis Set: CC-PVTZ
  Basis Set:
  Basis Set: CC-PVTZ
  Basis Set:
  @DF-RHF Final Energy:  -345.03405057399101
    Total Energy =                       -345.0340505739909531
  Basis Set: CC-PVTZ
  Basis Set:
  Basis Set: CC-PVTZ
  Basis Set:
  @DF-RHF Final Energy:  -345.03409215527034
    Total Energy =                       -345.0340921552703435
  Basis Set: CC-PVTZ
  Basis Set:
  Basis Set: CC-PVTZ
  Basis Set:
  @DF-RHF Final Energy:  -345.03409384151604
    Total Energy =                       -345.0340938415155279
  Basis Set: CC-PVTZ
  Basis Set:
  Charge       = 0
  Multiplicity = 1
  Basis Set: CC-PVTZ
  Basis Set:

    Orbital Energies (a.u.)
    -----------------------

    Doubly Occupied:

       1A    -20.598378     2A    -20.531734     3A    -11.363741
       4A    -11.278667     5A    -11.232480     6A    -11.229977
       7A    -11.216461     8A     -1.472353     9A     -1.364643
      10A     -1.084812    11A     -1.001066    12A     -0.942423
      13A     -0.830163    14A     -0.775566    15A     -0.700198
      16A     -0.683160    17A     -0.676293    18A     -0.637668
      19A     -0.596561    20A     -0.583915    21A     -0.556824
      22A     -0.541056    23A     -0.527727    24A     -0.507087
      25A     -0.487277    26A     -0.485104    27A     -0.457991
      28A     -0.436277

  @DF-RHF Final Energy:  -345.03409405285214

   => Energetics <=

    Nuclear Repulsion Energy =            314.1486077438447069
    One-Electron Energy =               -1092.7661977363572987
    Two-Electron Energy =                 433.5834959396604518
    DFT Exchange-Correlation Energy =       0.0000000000000000
    Empirical Dispersion Energy =           0.0000000000000000
    PCM Polarization Energy =               0.0000000000000000
    EFP Energy =                            0.0000000000000000
    Total Energy =                       -345.0340940528521969
    Molecular point group: c1
  Basis Set: CC-PVTZ
  Basis Set:

  -Total Gradient:
     Atom            X                  Y                   Z
    ------   -----------------  -----------------  -----------------
       1       -0.000168141050     0.000294293098     0.000105799732
       2        0.000261729971    -0.000485994510    -0.000107266162
       3       -0.000262939697     0.000445828079    -0.000179527378
       4        0.000041065744    -0.000002675767     0.000013005646
       5       -0.000007309345     0.000006859275    -0.000009659834
       6        0.000140850345    -0.000267974208     0.000175750489
       7        0.000008204252     0.000004165000    -0.000010058069
       8        0.000005634633    -0.000001196209     0.000009158670
       9       -0.000003563902    -0.000002808724     0.000001533033
      10       -0.000008849347     0.000002141093    -0.000002032420
      11        0.000003812293     0.000002582529    -0.000001856778
      12        0.000009150133     0.000005505574     0.000002543648
      13       -0.000001053216    -0.000004911108    -0.000000278190
      14       -0.000033821810     0.000014401560     0.000004179976
      15        0.000002890181    -0.000007574694    -0.000004824540
      16        0.000005515377    -0.000001571991     0.000000717826
      17        0.000006825439    -0.000001068997     0.000002814350

  **** Optimization is complete! (in 6 steps) ****
    Final optimized geometry and variables:
    Molecular point group: c1

    Geometry (in Angstrom), charge = 0, multiplicity = 1:

    O            1.181286758651     0.372073144711    -1.194745467021
    C            0.670098569800    -0.085183869705    -0.228968600773
    C           -0.658131341749    -0.796018528625    -0.227978491457
    O            1.195546213265     0.006323954927     0.980764170506
    C           -1.817045799244     0.207096814601    -0.236940038122
    H           -0.696136825131    -1.410511827852    -1.117924211492
    H           -0.724885441841    -1.437366589751     0.640313648055
    C           -3.175508666286    -0.483192032113    -0.265118216317
    H           -1.714409544309     0.854219326101    -1.100067507282
    H           -1.748985356365     0.839971627303     0.642111485032
    H           -3.280843164147    -1.101815602755    -1.149687565790
    H           -3.978298106947     0.244308578110    -0.271867490823
    H           -3.311198704865    -1.119099634019     0.603017464264
    C            2.422806460065     0.697287434025     1.102724164287
    H            3.189849871660     0.216727130630     0.513947350985
    H            2.680322194800     0.664209297744     2.148889548687
    H            2.317578514780     1.721183554883     0.776070396453

  Mulliken Charges: (a.u.)
   Center  Symbol    Alpha    Beta     Spin     Total
       1     O     4.20486  4.20486  0.00000 -0.40972
       2     C     2.80701  2.80701  0.00000  0.38598
       3     C     3.07849  3.07849  0.00000 -0.15698
       4     O     4.14802  4.14802  0.00000 -0.29604
       5     C     3.09131  3.09131  0.00000 -0.18262
       6     H     0.44141  0.44141  0.00000  0.11718
       7     H     0.44338  0.44338  0.00000  0.11323
       8     C     3.15136  3.15136  0.00000 -0.30273
       9     H     0.44212  0.44212  0.00000  0.11577
      10     H     0.44943  0.44943  0.00000  0.10114
      11     H     0.45300  0.45300  0.00000  0.09400
      12     H     0.44610  0.44610  0.00000  0.10781
      13     H     0.45438  0.45438  0.00000  0.09124
      14     C     3.03592  3.03592  0.00000 -0.07183
      15     H     0.45343  0.45343  0.00000  0.09315
      16     H     0.44543  0.44543  0.00000  0.10915
      17     H     0.45435  0.45435  0.00000  0.09129

   Total alpha = 28.00000, Total beta = 28.00000, Total charge = -0.00000
