  ==> Input File <==

--------------------------------------------------------------------------
set {
	reference rhf
	basis 6-31G*
}

set_num_threads( 4 )
memory 2 gb

molecule MOL {
0 1

H	 3.299469	 -0.432053	 0.021001
C	 2.239653	 -0.249868	 0.016486
C	 1.564583	 -0.133822	 -1.192511
C	 1.556261	 -0.132392	 1.215299
H	 2.102055	 -0.226215	 -2.118855
C	 0.203541	 0.100144	 -1.201921
H	 2.081823	 -0.222737	 2.148501
C	 0.190845	 0.102326	 1.204515
H	 -0.336624	 0.192999	 -2.125366
C	 -0.488460	 0.219100	 0.000000
H	 -0.345928	 0.194599	 2.133120
C	 -1.949954	 0.470334	 0.000000
O	 -2.781584	 -0.381627	 0.000000
H	 -2.238022	 1.526388	 0.000000

	symmetry c1
}
set optking {
	frozen_dihedral = ("
		8 10 12 14
	")
}

ee = optimize('scf')
oeprop('DIPOLE', 'QUADRUPOLE', 'MULLIKEN_CHARGES')
f=open( 'psi4out.xyz', 'w' )
f.write( "14  " )
f.write( str(ee) + "\n" )
f.write( MOL.save_string_xyz() )
f.close()
--------------------------------------------------------------------------

    Molecular point group: c1
  Charge       = 0
  Multiplicity = 1
  Basis Set: 6-31G*
  Basis Set:
  @DF-RHF Final Energy:  -343.41837956857944
    Total Energy =                       -343.4183795685793257
    Molecular point group: c1
  Basis Set: 6-31G*
  Basis Set:
  Basis Set: 6-31G*
  Basis Set:
  @DF-RHF Final Energy:  -343.41876108689684
    Total Energy =                       -343.4187610868968932
  Basis Set: 6-31G*
  Basis Set:
  Basis Set: 6-31G*
  Basis Set:
  @DF-RHF Final Energy:  -343.41874505073173
    Total Energy =                       -343.4187450507316726
  Basis Set: 6-31G*
  Basis Set:
  Basis Set: 6-31G*
  Basis Set:
  @DF-RHF Final Energy:  -343.41876916464389
    Total Energy =                       -343.4187691646440612
  Basis Set: 6-31G*
  Basis Set:
  Charge       = 0
  Multiplicity = 1
  Basis Set: 6-31G*
  Basis Set:

    Orbital Energies (a.u.)
    -----------------------

    Doubly Occupied:

       1A    -20.573210     2A    -11.336377     3A    -11.251702
       4A    -11.246997     5A    -11.246835     6A    -11.243947
       7A    -11.243448     8A    -11.241980     9A     -1.412043
      10A     -1.168796    11A     -1.044495    12A     -1.028665
      13A     -0.886681    14A     -0.840413    15A     -0.794765
      16A     -0.720431    17A     -0.676883    18A     -0.651129
      19A     -0.640739    20A     -0.616343    21A     -0.600264
      22A     -0.532402    23A     -0.528625    24A     -0.512168
      25A     -0.501446    26A     -0.421862    27A     -0.346583
      28A     -0.345685

  @DF-RHF Final Energy:  -343.41877915305696

   => Energetics <=

    Nuclear Repulsion Energy =            322.2115251695316260
    One-Electron Energy =               -1103.9507779994346492
    Two-Electron Energy =                 438.3204736768461771
    DFT Exchange-Correlation Energy =       0.0000000000000000
    Empirical Dispersion Energy =           0.0000000000000000
    PCM Polarization Energy =               0.0000000000000000
    EFP Energy =                            0.0000000000000000
    Total Energy =                       -343.4187791530569029
    Molecular point group: c1
  Basis Set: 6-31G*
  Basis Set:

  -Total Gradient:
     Atom            X                  Y                   Z
    ------   -----------------  -----------------  -----------------
       1       -0.000007962837    -0.000002047093    -0.000013943808
       2        0.000026488167    -0.000023591488     0.000249931802
       3       -0.000199117320     0.000063033851    -0.000127068483
       4        0.000196354759    -0.000022051425    -0.000127329744
       5        0.000007204194    -0.000009595430    -0.000002982474
       6        0.000112460050    -0.000026902476    -0.000078044322
       7       -0.000014865457     0.000000217000     0.000024349501
       8       -0.000206406495     0.000127159676    -0.000098849349
       9        0.000011375482    -0.000002706539    -0.000003831092
      10        0.000102666645    -0.000131722762     0.000214739949
      11        0.000021214297    -0.000009637299     0.000003119442
      12       -0.000127590030     0.000079434837    -0.000151726092
      13        0.000030530058    -0.000014498277     0.000005255938
      14        0.000047648484    -0.000027092573     0.000106378731

  **** Optimization is complete! (in 5 steps) ****
    Final optimized geometry and variables:
    Molecular point group: c1

    Geometry (in Angstrom), charge = 0, multiplicity = 1:

    H            3.309148082182    -0.429370835791     0.011575531878
    C            2.249666208555    -0.246657132563     0.007760482935
    C            1.570241064969    -0.129544643916    -1.194421743681
    C            1.561503813452    -0.128887896271     1.204208673519
    H            2.100533181032    -0.223640852810    -2.124924345287
    C            0.205450671592     0.105636622737    -1.200941166213
    H            2.084399748686    -0.222188663195     2.138977646029
    C            0.196115759643     0.106138067049     1.200269939630
    H           -0.319503679901     0.191385737552    -2.136121388603
    C           -0.485758463073     0.220890584638    -0.002725327279
    H           -0.335807461226     0.191912993663     2.131470769239
    C           -1.964996203486     0.482363974666    -0.008357304831
    O           -2.788229334954    -0.373259960330    -0.004735080984
    H           -2.263753587390     1.534727752941    -0.014811897779

  Mulliken Charges: (a.u.)
   Center  Symbol    Alpha    Beta     Spin     Total
       1     H     0.39598  0.39598  0.00000  0.20805
       2     C     3.09865  3.09865  0.00000 -0.19729
       3     C     3.09779  3.09779  0.00000 -0.19557
       4     C     3.09777  3.09777  0.00000 -0.19553
       5     H     0.39532  0.39532  0.00000  0.20935
       6     C     3.10447  3.10447  0.00000 -0.20894
       7     H     0.39532  0.39532  0.00000  0.20937
       8     C     3.10446  3.10446  0.00000 -0.20892
       9     H     0.39206  0.39206  0.00000  0.21587
      10     C     3.02945  3.02945  0.00000 -0.05889
      11     H     0.39198  0.39198  0.00000  0.21603
      12     C     2.85353  2.85353  0.00000  0.29295
      13     O     4.22019  4.22019  0.00000 -0.44038
      14     H     0.42305  0.42305  0.00000  0.15390

   Total alpha = 28.00000, Total beta = 28.00000, Total charge =  0.00000
