                              Psi4 1.0.54 Driver

  ==> Input File <==

--------------------------------------------------------------------------
set {
	reference rhf
	basis cc-pvtz
}

set_num_threads( 4 )
memory 2 gb

molecule MOL {
0 1

O	 -2.071633	 -1.227563	 -0.223463
C	 -1.652164	 -0.152425	 0.058082
C	 -0.327811	 0.006324	 0.778296
C	 -2.402515	 1.108629	 -0.298924
C	 0.843231	 -0.001575	 -0.211665
H	 -0.319484	 0.928173	 1.350354
H	 -0.227804	 -0.823091	 1.466705
C	 2.197693	 0.138030	 0.476937
H	 0.722944	 0.805202	 -0.930230
H	 0.813976	 -0.926978	 -0.776588
C	 2.663501	 1.586202	 0.581731
H	 2.143115	 -0.296826	 1.471143
H	 2.936592	 -0.440506	 -0.069747
H	 1.961373	 2.183425	 1.153899
H	 2.758050	 2.038273	 -0.399626
H	 3.628342	 1.651923	 1.070775
H	 -3.240910	 0.874416	 -0.936711
H	 -1.747554	 1.818823	 -0.790984
H	 -2.760419	 1.579708	 0.610998

	symmetry c1
}
set optking {
	frozen_dihedral = ("
		11 8 5 9
	")
}

ee,wfn = optimize('scf', return_wfn=True)
oeprop( wfn, 'DIPOLE', 'QUADRUPOLE', 'MULLIKEN_CHARGES')
f=open( 'psi4out.xyz', 'w' )
f.write( "19  " )
f.write( str(ee) + "\n" )
f.write( MOL.save_string_xyz() )
f.close()
--------------------------------------------------------------------------

    Molecular point group: c1
  Charge       = 0
  Multiplicity = 1
  Basis Set: CC-PVTZ
  Basis Set:
  @DF-RHF Final Energy:  -309.17359442139013
    Total Energy =                       -309.1735944213898506
    Molecular point group: c1
  Basis Set: CC-PVTZ
  Basis Set:
  Basis Set: CC-PVTZ
  Basis Set:
  @DF-RHF Final Energy:  -309.17362317219664
    Total Energy =                       -309.1736231721966988
  Basis Set: CC-PVTZ
  Basis Set:
  Basis Set: CC-PVTZ
  Basis Set:
  @DF-RHF Final Energy:  -309.17391795237830
    Total Energy =                       -309.1739179523790426
  Basis Set: CC-PVTZ
  Basis Set:
  Basis Set: CC-PVTZ
  Basis Set:
  @DF-RHF Final Energy:  -309.17361478790150
    Total Energy =                       -309.1736147879017835
  Basis Set: CC-PVTZ
  Basis Set:
  Basis Set: CC-PVTZ
  Basis Set:
  @DF-RHF Final Energy:  -309.17392837822462
    Total Energy =                       -309.1739283782246162
  Basis Set: CC-PVTZ
  Basis Set:
  Basis Set: CC-PVTZ
  Basis Set:
  @DF-RHF Final Energy:  -309.17392514516376
    Total Energy =                       -309.1739251451634800
  Basis Set: CC-PVTZ
  Basis Set:
  Basis Set: CC-PVTZ
  Basis Set:
  @DF-RHF Final Energy:  -309.17392940054822
    Total Energy =                       -309.1739294005484453
  Basis Set: CC-PVTZ
  Basis Set:
  Charge       = 0
  Multiplicity = 1
  Basis Set: CC-PVTZ
  Basis Set:

    Orbital Energies (a.u.)
    -----------------------

    Doubly Occupied:

       1A    -20.536861     2A    -11.319216     3A    -11.229068
       4A    -11.227802     5A    -11.226959     6A    -11.223352
       7A    -11.215652     8A     -1.396908     9A     -1.092311
      10A     -1.029430    11A     -0.983903    12A     -0.895971
      13A     -0.804436    14A     -0.736524    15A     -0.661335
      16A     -0.649968    17A     -0.619383    18A     -0.612808
      19A     -0.598773    20A     -0.569519    21A     -0.555098
      22A     -0.534571    23A     -0.523096    24A     -0.502064
      25A     -0.483811    26A     -0.472711    27A     -0.467297
      28A     -0.399168

  @DF-RHF Final Energy:  -309.17392961411230

   => Energetics <=

    Nuclear Repulsion Energy =            304.2727245791022028
    One-Electron Energy =               -1021.7573134933201118
    Two-Electron Energy =                 408.3106593001056694
    DFT Exchange-Correlation Energy =       0.0000000000000000
    Empirical Dispersion Energy =           0.0000000000000000
    PCM Polarization Energy =               0.0000000000000000
    EFP Energy =                            0.0000000000000000
    Total Energy =                       -309.1739296141122963
    Molecular point group: c1
  Basis Set: CC-PVTZ
  Basis Set:

  -Total Gradient:
     Atom            X                  Y                   Z
    ------   -----------------  -----------------  -----------------
       1       -0.000005257324    -0.000012042867    -0.000004442994
       2        0.000009017537     0.000019704785    -0.000001972844
       3        0.000003728053     0.000001644290    -0.000007997589
       4       -0.000011976742     0.000000109955     0.000021035897
       5        0.002119461677    -0.002771992366    -0.003803032329
       6        0.000001047595     0.000001878916     0.000001898142
       7        0.000000261614    -0.000003361585     0.000000477619
       8       -0.001854980744     0.001005348818     0.003710002157
       9       -0.001372357346     0.002127954738     0.002363276343
      10        0.000002899494    -0.000000153953    -0.000001283073
      11        0.001097045858    -0.000363385733    -0.002261014464
      12       -0.000000551227     0.000001777588    -0.000000907641
      13        0.000000977947     0.000002774494     0.000000151637
      14        0.000001821386    -0.000005408436    -0.000003337820
      15       -0.000001105907    -0.000000843445     0.000001039319
      16        0.000003078141     0.000000135348     0.000002088842
      17       -0.000002562563    -0.000003874341    -0.000005378447
      18        0.000002704380    -0.000002102734    -0.000001647429
      19        0.000006748174     0.000001836528    -0.000008955325

  **** Optimization is complete! (in 8 steps) ****
    Final optimized geometry and variables:
    Molecular point group: c1

    Geometry (in Angstrom), charge = 0, multiplicity = 1:

    O           -2.042076256155    -1.384731059384    -0.263871973961
    C           -1.560639255741    -0.320452992655    -0.047253374791
    C           -0.213933690878    -0.196582445284     0.636822994671
    C           -2.252770294617     0.958749202794    -0.454247005139
    C            0.933087760531    -0.314060716852    -0.379192285190
    H           -0.148181125323     0.749143416370     1.164196427736
    H           -0.138812760767    -0.997263996539     1.361068464474
    C            2.315551702563    -0.137338294518     0.264662055143
    H            0.796776330059     0.445149124951    -1.144124354821
    H            0.859407837823    -1.279226165729    -0.863254166917
    C            2.807288480820     1.307562271486     0.271394333132
    H            2.300300425866    -0.529572529692     1.276419617273
    H            3.036111144165    -0.738594530291    -0.279605832756
    H            2.120490151023     1.964336464762     0.795562683836
    H            2.914010444116     1.682085133878    -0.740691974077
    H            3.772002319041     1.389114107890     0.758429902210
    H           -3.111837738392     0.737193417231    -1.068644342230
    H           -1.571987877662     1.612279224872    -0.987855697648
    H           -2.573057591706     1.488443730466     0.437321794048

  Mulliken Charges: (a.u.)
   Center  Symbol    Alpha    Beta     Spin     Total
       1     O     4.17708  4.17708  0.00000 -0.35416
       2     C     2.85828  2.85828  0.00000  0.28343
       3     C     3.09938  3.09938  0.00000 -0.19875
       4     C     3.15546  3.15546  0.00000 -0.31092
       5     C     3.10495  3.10495  0.00000 -0.20989
       6     H     0.44922  0.44922  0.00000  0.10156
       7     H     0.43864  0.43864  0.00000  0.12273
       8     C     3.09102  3.09102  0.00000 -0.18204
       9     H     0.45311  0.45311  0.00000  0.09378
      10     H     0.43418  0.43418  0.00000  0.13163
      11     C     3.14850  3.14850  0.00000 -0.29701
      12     H     0.45263  0.45263  0.00000  0.09474
      13     H     0.44599  0.44599  0.00000  0.10802
      14     H     0.45638  0.45638  0.00000  0.08725
      15     H     0.45389  0.45389  0.00000  0.09221
      16     H     0.44611  0.44611  0.00000  0.10777
      17     H     0.43585  0.43585  0.00000  0.12830
      18     H     0.45097  0.45097  0.00000  0.09806
      19     H     0.44836  0.44836  0.00000  0.10329

   Total alpha = 28.00000, Total beta = 28.00000, Total charge =  0.00000

*** Psi4 exiting successfully. Buy a developer a beer!
