  ==> Input File <==

--------------------------------------------------------------------------
set {
	reference rhf
	basis cc-pvtz
}

set_num_threads( 4 )
memory 2 gb

molecule MOL {
0 1

H	 -2.259155	 0.205988	 3.198982
C	 -2.304096	 -0.170435	 2.197686
C	 -1.195962	 -0.317648	 1.513791
H	 -3.259899	 -0.419664	 1.780404
O	 -1.189946	 -0.765863	 0.237511
H	 -0.232103	 -0.079013	 1.925079
C	 0.026572	 -0.995256	 -0.379403
C	 1.057223	 0.049888	 -0.004615
H	 -0.054361	 -1.010670	 -1.459674
H	 0.397526	 -1.952058	 -0.044198
F	 2.203233	 -0.234060	 -0.590375
F	 0.698147	 1.254887	 -0.392621
F	 1.266440	 0.094219	 1.288722

	symmetry c1
}
set optking {
	frozen_dihedral = ("
		3 5 7 9
	")
}

ee = optimize('scf')
oeprop('DIPOLE', 'QUADRUPOLE', 'MULLIKEN_CHARGES')
f=open( 'psi4out.xyz', 'w' )
f.write( "13  " )
f.write( str(ee) + "\n" )
f.write( MOL.save_string_xyz() )
f.close()
--------------------------------------------------------------------------

    Molecular point group: c1
  Charge       = 0
  Multiplicity = 1
  Basis Set: CC-PVTZ
  Basis Set:
  @DF-RHF Final Energy:  -527.71536159500124
    Total Energy =                       -527.7153615950012409
    Molecular point group: c1
  Basis Set: CC-PVTZ
  Basis Set:
  Basis Set: CC-PVTZ
  Basis Set:
  @DF-RHF Final Energy:  -527.73069032612580
    Total Energy =                       -527.7306903261262505
  Basis Set: CC-PVTZ
  Basis Set:
  Basis Set: CC-PVTZ
  Basis Set:
  @DF-RHF Final Energy:  -527.73456792853244
    Total Energy =                       -527.7345679285324422
  Basis Set: CC-PVTZ
  Basis Set:
  Basis Set: CC-PVTZ
  Basis Set:
  @DF-RHF Final Energy:  -527.73561506188184
    Total Energy =                       -527.7356150618820720
  Basis Set: CC-PVTZ
  Basis Set:
  @DF-RHF Final Energy:  -527.73592845546148
    Total Energy =                       -527.7359284554614760
  @DF-RHF Final Energy:  -527.73612665289727
    Total Energy =                       -527.7361266528971555
  @DF-RHF Final Energy:  -527.73617841391979
    Total Energy =                       -527.7361784139196743
  @DF-RHF Final Energy:  -527.73622413411601
    Total Energy =                       -527.7362241341163553
  @DF-RHF Final Energy:  -527.73624152608454
    Total Energy =                       -527.7362415260843136
  @DF-RHF Final Energy:  -527.73626800070974
    Total Energy =                       -527.7362680007096287
  @DF-RHF Final Energy:  -527.73609429404496
    Total Energy =                       -527.7360942940449604
  @DF-RHF Final Energy:  -527.73628354611992
    Total Energy =                       -527.7362835461203758
  @DF-RHF Final Energy:  -527.73629682973581
    Total Energy =                       -527.7362968297356929
  Basis Set: CC-PVTZ
  Basis Set:
  @DF-RHF Final Energy:  -527.73630150059557
    Total Energy =                       -527.7363015005959141
  Basis Set: CC-PVTZ
  Basis Set:
  Basis Set: CC-PVTZ
  Basis Set:
  @DF-RHF Final Energy:  -527.73630441218029
    Total Energy =                       -527.7363044121802886
  Basis Set: CC-PVTZ
  Basis Set:
  Basis Set: CC-PVTZ
  Basis Set:
  @DF-RHF Final Energy:  -527.73630334685413
    Total Energy =                       -527.7363033468540152
  Basis Set: CC-PVTZ
  Basis Set:
  Charge       = 0
  Multiplicity = 1
  Basis Set: CC-PVTZ
  Basis Set:

    Orbital Energies (a.u.)
    -----------------------

    Doubly Occupied:

       1A    -26.343201     2A    -26.342979     3A    -26.341036
       4A    -20.599138     5A    -11.501555     6A    -11.319481
       7A    -11.294230     8A    -11.214845     9A     -1.753126
      10A     -1.648545    11A     -1.648461    12A     -1.437291
      13A     -1.085606    14A     -1.022526    15A     -0.934100
      16A     -0.844801    17A     -0.841493    18A     -0.837624
      19A     -0.779140    20A     -0.727235    21A     -0.721383
      22A     -0.700634    23A     -0.684729    24A     -0.669457
      25A     -0.663448    26A     -0.653356    27A     -0.644423
      28A     -0.597390    29A     -0.564037    30A     -0.525582
      31A     -0.498668    32A     -0.359814

  @DF-RHF Final Energy:  -527.73630329596585

   => Energetics <=

    Nuclear Repulsion Energy =            417.8704428164583646
    One-Electron Energy =               -1559.6148199915162422
    Two-Electron Energy =                 614.0080738790918531
    DFT Exchange-Correlation Energy =       0.0000000000000000
    Empirical Dispersion Energy =           0.0000000000000000
    PCM Polarization Energy =               0.0000000000000000
    EFP Energy =                            0.0000000000000000
    Total Energy =                       -527.7363032959660814
    Molecular point group: c1
  Basis Set: CC-PVTZ
  Basis Set:

  -Total Gradient:
     Atom            X                  Y                   Z
    ------   -----------------  -----------------  -----------------
       1        0.000000271747    -0.000000703400     0.000001088571
       2        0.000006370957    -0.000005550093    -0.000013664135
       3       -0.000659533643     0.004942793424    -0.001696979284
       4        0.000000343967    -0.000000471773     0.000001963839
       5        0.001061368558    -0.006222503715     0.002547839213
       6        0.000013435707    -0.000003294434     0.000002433419
       7       -0.000833293106    -0.004941103459    -0.000503650823
       8        0.000021126832     0.000040622711    -0.000268079161
       9        0.000438379402     0.006235087643    -0.000162653284
      10       -0.000034268113    -0.000008230241     0.000107500867
      11        0.000016356720    -0.000032741426     0.000015540081
      12       -0.000036749023     0.000031130017    -0.000004059511
      13        0.000006189989    -0.000035035261    -0.000027279791

  **** Optimization is complete! (in 17 steps) ****
    Final optimized geometry and variables:
    Molecular point group: c1

    Geometry (in Angstrom), charge = 0, multiplicity = 1:

    H           -2.557604588988     0.346685096910     2.734686910208
    C           -2.489043696620     0.074104714151     1.701255287116
    C           -1.405314644671    -0.512587758723     1.257086432235
    H           -3.318783389195     0.282908909299     1.054745066869
    O           -1.302568882996    -0.940616923331    -0.025538184021
    H           -0.566831142384    -0.727431279762     1.892300866439
    C           -0.070514905095    -1.002043839477    -0.659638588892
    C            0.834190141081     0.206304511753    -0.477254255549
    H           -0.274477249527    -1.015162106156    -1.719340928099
    H            0.493401822060    -1.882467342919    -0.374025715072
    F            1.848169344567     0.093563367157    -1.311619198405
    F            0.214809556399     1.330852779260    -0.742227664322
    F            1.341290101181     0.305974655596     0.734506999721

  Mulliken Charges: (a.u.)
   Center  Symbol    Alpha    Beta     Spin     Total
       1     H     0.42536  0.42536  0.00000  0.14928
       2     C     3.18850  3.18850  0.00000 -0.37700
       3     C     2.96969  2.96969  0.00000  0.06063
       4     H     0.42428  0.42428  0.00000  0.15144
       5     O     4.14810  4.14810  0.00000 -0.29620
       6     H     0.42810  0.42810  0.00000  0.14379
       7     C     3.01157  3.01157  0.00000 -0.02314
       8     C     2.68383  2.68383  0.00000  0.63234
       9     H     0.44079  0.44079  0.00000  0.11843
      10     H     0.45069  0.45069  0.00000  0.09862
      11     F     4.60953  4.60953  0.00000 -0.21905
      12     F     4.60678  4.60678  0.00000 -0.21357
      13     F     4.61279  4.61279  0.00000 -0.22557

   Total alpha = 32.00000, Total beta = 32.00000, Total charge = -0.00000
