                              Psi4 1.0.54 Driver

  ==> Input File <==

--------------------------------------------------------------------------
set {
	reference rhf
	basis cc-pvtz
}

set_num_threads( 4 )
memory 2 gb

molecule MOL {
0 1

O	 0.296206	 1.080886	 -1.532464
C	 -0.474975	 1.129646	 -0.635801
C	 -1.387622	 2.289559	 -0.352730
O	 -0.637375	 0.157174	 0.243149
H	 -1.186212	 2.677222	 0.637659
H	 -1.232916	 3.059467	 -1.090935
H	 -2.417022	 1.955579	 -0.371790
C	 0.162530	 -1.009518	 0.097799
C	 1.587210	 -0.664190	 0.477086
H	 0.096803	 -1.356267	 -0.924704
H	 -0.233803	 -1.785900	 0.736810
C	 2.256770	 0.342732	 -0.454344
H	 2.154716	 -1.590834	 0.479041
H	 1.598751	 -0.289614	 1.496104
C	 3.698146	 0.643205	 -0.057145
H	 2.235038	 -0.042575	 -1.470299
H	 1.683491	 1.262594	 -0.461300
H	 4.150202	 1.356548	 -0.736242
H	 4.305463	 -0.255904	 -0.069842
H	 3.749130	 1.061068	 0.942759

	symmetry c1
}
set optking {
	frozen_dihedral = ("
		2 4 8 10
	")
}

ee,wfn = optimize('scf', return_wfn=True)
oeprop( wfn, 'DIPOLE', 'QUADRUPOLE', 'MULLIKEN_CHARGES')
f=open( 'psi4out.xyz', 'w' )
f.write( "20  " )
f.write( str(ee) + "\n" )
f.write( MOL.save_string_xyz() )
f.close()
--------------------------------------------------------------------------

    Molecular point group: c1
  Charge       = 0
  Multiplicity = 1
  Basis Set: CC-PVTZ
  Basis Set:
  @DF-RHF Final Energy:  -384.04602413398391
    Total Energy =                       -384.0460241339841332
    Molecular point group: c1
  Basis Set: CC-PVTZ
  Basis Set:
  Basis Set: CC-PVTZ
  Basis Set:
  @DF-RHF Final Energy:  -383.84154639339130
    Total Energy =                       -383.8415463933912974
  Basis Set: CC-PVTZ
  Basis Set:
  Basis Set: CC-PVTZ
  Basis Set:
  @DF-RHF Final Energy:  -383.98928160551156
    Total Energy =                       -383.9892816055109961
  Basis Set: CC-PVTZ
  Basis Set:
  Basis Set: CC-PVTZ
  Basis Set:
  @DF-RHF Final Energy:  -384.07258655874796
    Total Energy =                       -384.0725865587477301
  Basis Set: CC-PVTZ
  Basis Set:
  @DF-RHF Final Energy:  -384.04038167095257
    Total Energy =                       -384.0403816709530247
  @DF-RHF Final Energy:  -384.07972151819962
    Total Energy =                       -384.0797215181994488
  @DF-RHF Final Energy:  -384.08124389861894
    Total Energy =                       -384.0812438986189363
  @DF-RHF Final Energy:  -384.08081824848398
    Total Energy =                       -384.0808182484842064
  @DF-RHF Final Energy:  -384.08149516054812
    Total Energy =                       -384.0814951605480019
  Basis Set: CC-PVTZ
  Basis Set:
  @DF-RHF Final Energy:  -384.08160740654182
    Total Energy =                       -384.0816074065417070
  Basis Set: CC-PVTZ
  Basis Set:
  Basis Set: CC-PVTZ
  Basis Set:
  @DF-RHF Final Energy:  -384.08163597950721
    Total Energy =                       -384.0816359795073822
  Basis Set: CC-PVTZ
  Basis Set:
  Basis Set: CC-PVTZ
  Basis Set:
  @DF-RHF Final Energy:  -384.08165174683444
    Total Energy =                       -384.0816517468344955
  Basis Set: CC-PVTZ
  Basis Set:
  Charge       = 0
  Multiplicity = 1
  Basis Set: CC-PVTZ
  Basis Set:

    Orbital Energies (a.u.)
    -----------------------

    Doubly Occupied:

       1A    -20.593262     2A    -20.531853     3A    -11.367192
       4A    -11.282664     5A    -11.231180     6A    -11.222876
       7A    -11.210542     8A    -11.206103     9A     -1.468630
      10A     -1.365303    11A     -1.081222    12A     -1.028579
      13A     -0.980460    14A     -0.890123    15A     -0.809432
      16A     -0.760618    17A     -0.694737    18A     -0.685860
      19A     -0.666672    20A     -0.625968    21A     -0.601147
      22A     -0.594346    23A     -0.570910    24A     -0.551161
      25A     -0.545370    26A     -0.528235    27A     -0.510372
      28A     -0.496112    29A     -0.469879    30A     -0.463889
      31A     -0.446739    32A     -0.436708

  @DF-RHF Final Energy:  -384.08165255385478

   => Energetics <=

    Nuclear Repulsion Energy =            394.9359410568557109
    One-Electron Energy =               -1306.1989012661924789
    Two-Electron Energy =                 527.1813076554821009
    DFT Exchange-Correlation Energy =       0.0000000000000000
    Empirical Dispersion Energy =           0.0000000000000000
    PCM Polarization Energy =               0.0000000000000000
    EFP Energy =                            0.0000000000000000
    Total Energy =                       -384.0816525538547239
    Molecular point group: c1
  Basis Set: CC-PVTZ
  Basis Set:

  -Total Gradient:
     Atom            X                  Y                   Z
    ------   -----------------  -----------------  -----------------
       1        0.000012603695     0.000004876265    -0.000014989727
       2        0.003914250842     0.002193530264     0.003294840141
       3        0.000051672187     0.000030975631     0.000002573703
       4       -0.006441697000    -0.004693723794    -0.004848287887
       5       -0.000004779435    -0.000026004030     0.000021973458
       6        0.000001105507    -0.000012431800    -0.000011203476
       7       -0.000017798759    -0.000007006277    -0.000019879124
       8        0.005095982897     0.008132614418     0.001505384652
       9        0.000032288633    -0.000023431062     0.000000977786
      10       -0.002629487373    -0.005655253220     0.000087542733
      11       -0.000012511905     0.000012324126    -0.000007722849
      12       -0.000009416019     0.000049293033     0.000032497520
      13       -0.000004261949     0.000000910150     0.000003230893
      14       -0.000004495776     0.000010711708    -0.000010464001
      15       -0.000010134687     0.000008716881    -0.000026028207
      16        0.000019274529    -0.000010782835     0.000011018149
      17        0.000026479503    -0.000013098294    -0.000023354954
      18        0.000000951491    -0.000006791505     0.000003908584
      19       -0.000007706966     0.000005118522     0.000005456259
      20       -0.000012319415    -0.000000548183    -0.000007473653

  **** Optimization is complete! (in 13 steps) ****
    Final optimized geometry and variables:
    Molecular point group: c1

    Geometry (in Angstrom), charge = 0, multiplicity = 1:

    O           -1.322716996529     0.957694012782    -0.640074643201
    C           -1.535665890671     0.261236116517     0.292470342678
    C           -2.462792106425     0.610083686839     1.422869765646
    O           -1.007036402904    -0.937457021609     0.458918443138
    H           -1.906786308887     0.635867381336     2.351472713318
    H           -2.916642015822     1.569623993174     1.235772915272
    H           -3.224489333525    -0.152696038927     1.517759042727
    C            0.000427251771    -1.414828985141    -0.427728264265
    C            1.403904121441    -0.893797215235    -0.159420137742
    H           -0.327367033256    -1.280879759233    -1.449063277280
    H            0.001790332935    -2.478777304044    -0.237803938246
    C            1.738776721312     0.539724271452    -0.565585179853
    H            2.067983103137    -1.566993867146    -0.696853209074
    H            1.619812034980    -1.038556428097     0.895637429642
    C            3.225994450753     0.838572928399    -0.402225664804
    H            1.442533065799     0.702746397246    -1.595684185478
    H            1.166065795774     1.242607833643     0.023617211502
    H            3.449594666806     1.861230246174    -0.682300802821
    H            3.830958800556     0.185950171694    -1.023387368800
    H            3.544565495775     0.701314040111     0.626286382116

  Mulliken Charges: (a.u.)
   Center  Symbol    Alpha    Beta     Spin     Total
       1     O     4.19763  4.19763  0.00000 -0.39525
       2     C     2.80488  2.80488  0.00000  0.39025
       3     C     3.13704  3.13704  0.00000 -0.27409
       4     O     4.15830  4.15830  0.00000 -0.31660
       5     H     0.44732  0.44732  0.00000  0.10537
       6     H     0.43850  0.43850  0.00000  0.12300
       7     H     0.44447  0.44447  0.00000  0.11105
       8     C     2.99191  2.99191  0.00000  0.01619
       9     C     3.09874  3.09874  0.00000 -0.19749
      10     H     0.44934  0.44934  0.00000  0.10132
      11     H     0.44147  0.44147  0.00000  0.11707
      12     C     3.08379  3.08379  0.00000 -0.16759
      13     H     0.45293  0.45293  0.00000  0.09414
      14     H     0.45028  0.45028  0.00000  0.09944
      15     C     3.15051  3.15051  0.00000 -0.30101
      16     H     0.44659  0.44659  0.00000  0.10683
      17     H     0.44648  0.44648  0.00000  0.10704
      18     H     0.44645  0.44645  0.00000  0.10711
      19     H     0.45649  0.45649  0.00000  0.08702
      20     H     0.45690  0.45690  0.00000  0.08620

   Total alpha = 32.00000, Total beta = 32.00000, Total charge =  0.00000

*** Psi4 exiting successfully. Buy a developer a beer!
