  ==> Input File <==

--------------------------------------------------------------------------
set {
	reference rhf
	basis cc-pvtz
}

set_num_threads( 4 )
memory 2 gb

molecule MOL {
0 1

H	 -2.757488	 0.447977	 -0.375946
C	 -2.129349	 0.756289	 -1.200935
C	 -0.851178	 -0.066274	 -1.250764
H	 -1.909758	 1.807175	 -1.068146
H	 -2.689128	 0.636915	 -2.120881
C	 0.000000	 0.039916	 0.000014
H	 -0.234157	 0.229447	 -2.094999
H	 -1.074492	 -1.117954	 -1.408851
C	 1.286532	 -0.763243	 0.000268
O	 -0.321848	 0.712256	 0.924542
C	 2.547023	 0.087626	 -0.000114
H	 1.264245	 -1.421103	 -0.864380
H	 1.264290	 -1.420353	 0.865489
H	 2.584452	 0.725630	 -0.872909
H	 3.427035	 -0.544422	 0.000125
H	 2.584484	 0.726356	 0.872143

	symmetry c1
}
set optking {
	frozen_dihedral = ("
		3 6 9 12
	")
}

ee = optimize('scf')
oeprop('DIPOLE', 'QUADRUPOLE', 'MULLIKEN_CHARGES')
f=open( 'psi4out.xyz', 'w' )
f.write( "16  " )
f.write( str(ee) + "\n" )
f.write( MOL.save_string_xyz() )
f.close()
--------------------------------------------------------------------------

    Molecular point group: c1
  Charge       = 0
  Multiplicity = 1
  Basis Set: CC-PVTZ
  Basis Set:
  @DF-RHF Final Energy:  -270.12921927617072
    Total Energy =                       -270.1292192761706588
    Molecular point group: c1
  Basis Set: CC-PVTZ
  Basis Set:
  Basis Set: CC-PVTZ
  Basis Set:
  @DF-RHF Final Energy:  -270.12965687948417
    Total Energy =                       -270.1296568794842869
  Basis Set: CC-PVTZ
  Basis Set:
  Basis Set: CC-PVTZ
  Basis Set:
  @DF-RHF Final Energy:  -270.12791437676754
    Total Energy =                       -270.1279143767674213
  Basis Set: CC-PVTZ
  Basis Set:
  Basis Set: CC-PVTZ
  Basis Set:
  @DF-RHF Final Energy:  -270.12997127332505
    Total Energy =                       -270.1299712733251681
  Basis Set: CC-PVTZ
  Basis Set:
  Basis Set: CC-PVTZ
  Basis Set:
  @DF-RHF Final Energy:  -270.12999425423720
    Total Energy =                       -270.1299942542372037
  Basis Set: CC-PVTZ
  Basis Set:
  Charge       = 0
  Multiplicity = 1
  Basis Set: CC-PVTZ
  Basis Set:

    Orbital Energies (a.u.)
    -----------------------

    Doubly Occupied:

       1A    -20.537245     2A    -11.317555     3A    -11.233161
       4A    -11.230425     5A    -11.221692     6A    -11.211833
       7A     -1.397944     8A     -1.070735     9A     -1.037978
      10A     -0.914220    11A     -0.852966    12A     -0.727458
      13A     -0.667129    14A     -0.644217    15A     -0.624936
      16A     -0.602388    17A     -0.567561    18A     -0.538414
      19A     -0.530692    20A     -0.512856    21A     -0.503376
      22A     -0.498213    23A     -0.480012    24A     -0.398397

  @DF-RHF Final Energy:  -270.12999468349176

   => Energetics <=

    Nuclear Repulsion Energy =            240.6915182153319677
    One-Electron Energy =                -843.0002136455342452
    Two-Electron Energy =                 332.1787007467104900
    DFT Exchange-Correlation Energy =       0.0000000000000000
    Empirical Dispersion Energy =           0.0000000000000000
    PCM Polarization Energy =               0.0000000000000000
    EFP Energy =                            0.0000000000000000
    Total Energy =                       -270.1299946834918160
    Molecular point group: c1
  Basis Set: CC-PVTZ
  Basis Set:

  -Total Gradient:
     Atom            X                  Y                   Z
    ------   -----------------  -----------------  -----------------
       1        0.000007341230    -0.000007223453    -0.000000730249
       2        0.000019262044     0.000032758808    -0.000020244295
       3       -0.000004157188     0.000016971861     0.000013673328
       4       -0.000007612412    -0.000001910290     0.000001710360
       5       -0.000009024207     0.000002933925    -0.000000040174
       6       -0.000063783272    -0.000117177096     0.000052889612
       7        0.000009724694     0.000011376634     0.000021502487
       8        0.000001272572     0.000002513896    -0.000014646055
       9        0.000145699394     0.000189824773    -0.000116696765
      10       -0.000034482976     0.000018997912     0.000002458323
      11       -0.000034450447    -0.000037433096    -0.000002335844
      12       -0.000032329049    -0.000096035206     0.000072694280
      13       -0.000011183468    -0.000006115242    -0.000005706798
      14        0.000001373835     0.000002371883     0.000002511827
      15        0.000018051829    -0.000005146627     0.000001504533
      16       -0.000005702581    -0.000006708682    -0.000008544568

  **** Optimization is complete! (in 6 steps) ****
    Final optimized geometry and variables:
    Molecular point group: c1

    Geometry (in Angstrom), charge = 0, multiplicity = 1:

    H           -2.829249241004     0.388459237727    -0.112408517670
    C           -2.195694036473     0.665889619715    -0.944088645190
    C           -0.952133505652    -0.206485532893    -0.994858507509
    H           -1.933306356758     1.708181587346    -0.819869471310
    H           -2.766376306631     0.563170995632    -1.859328799676
    C           -0.089715869499    -0.133459593630     0.246186210521
    H           -0.323953845542     0.054285287187    -1.843522420130
    H           -1.213831685678    -1.251715835553    -1.142456744635
    C            1.203935076807    -0.929817645648     0.237709490874
    O           -0.391718834022     0.521587325222     1.190260026690
    C            2.423894310039    -0.007019113952     0.247973561978
    H            1.238349181054    -1.590154296288    -0.620537542554
    H            1.205865710399    -1.545446509647     1.129536607465
    H            2.453673730606     0.616718786348    -0.638895604849
    H            3.337681975716    -0.587371040607     0.275459235246
    H            2.400940752504     0.639691990288     1.114202520193

  Mulliken Charges: (a.u.)
   Center  Symbol    Alpha    Beta     Spin     Total
       1     H     0.44710  0.44710  0.00000  0.10581
       2     C     3.14098  3.14098  0.00000 -0.28196
       3     C     3.10383  3.10383  0.00000 -0.20766
       4     H     0.44838  0.44838  0.00000  0.10325
       5     H     0.45078  0.45078  0.00000  0.09843
       6     C     2.86452  2.86452  0.00000  0.27097
       7     H     0.44552  0.44552  0.00000  0.10896
       8     H     0.44492  0.44492  0.00000  0.11017
       9     C     3.09528  3.09528  0.00000 -0.19055
      10     O     4.17806  4.17806  0.00000 -0.35611
      11     C     3.14590  3.14590  0.00000 -0.29179
      12     H     0.44844  0.44844  0.00000  0.10313
      13     H     0.44173  0.44173  0.00000  0.11655
      14     H     0.45554  0.45554  0.00000  0.08891
      15     H     0.44797  0.44797  0.00000  0.10405
      16     H     0.44108  0.44108  0.00000  0.11784

   Total alpha = 24.00000, Total beta = 24.00000, Total charge =  0.00000
