  ==> Input File <==

--------------------------------------------------------------------------
set {
	reference rhf
	basis 6-31G*
}

set_num_threads( 1 )
memory 2 gb

molecule MOL {
0 1

H	 2.016925	 -1.292462	 0.850878
O	 2.016064	 -0.864478	 0.000222
C	 1.050492	 0.053836	 0.000068
C	 -0.318135	 -0.576402	 0.000164
O	 1.285279	 1.218255	 -0.000078
C	 -1.454360	 0.441875	 -0.000474
H	 -0.374042	 -1.230163	 -0.866135
H	 -0.374274	 -1.229227	 0.867154
C	 -2.826123	 -0.230780	 0.000056
H	 -1.357605	 1.085198	 -0.868380
H	 -1.357504	 1.086451	 0.866496
H	 -2.959731	 -0.858053	 -0.876869
H	 -3.619374	 0.509403	 -0.000080
H	 -2.959371	 -0.857318	 0.877556

	symmetry c1
}
set optking {
	frozen_dihedral = ("
		7 4 6 10,
		2 3 4 7
	")
}

ee = energy('scf')
oeprop('DIPOLE', 'QUADRUPOLE', 'MULLIKEN_CHARGES')
f=open( 'psi4out.xyz', 'w' )
f.write( "14  " )
f.write( str(ee) + "\n" )
f.write( MOL.save_string_xyz() )
f.close()
--------------------------------------------------------------------------

    Molecular point group: c1

    Geometry (in Angstrom), charge = 0, multiplicity = 1:

       Center              X                  Y                   Z               Mass
    ------------   -----------------  -----------------  -----------------  -----------------
           H          2.026507317938    -1.282388547477     0.841141217024     1.007825032070
           O          2.025646317938    -0.854404547477    -0.009514782976    15.994914619560
           C          1.060074317938     0.063909452523    -0.009668782976    12.000000000000
           C         -0.308552682062    -0.566328547477    -0.009572782976    12.000000000000
           O          1.294861317938     1.228328452523    -0.009814782976    15.994914619560
           C         -1.444777682062     0.451948452523    -0.010210782976    12.000000000000
           H         -0.364459682062    -1.220089547477    -0.875871782976     1.007825032070
           H         -0.364691682062    -1.219153547477     0.857417217024     1.007825032070
           C         -2.816540682062    -0.220706547477    -0.009680782976    12.000000000000
           H         -1.348022682062     1.095271452523    -0.878116782976     1.007825032070
           H         -1.347921682062     1.096524452523     0.856759217024     1.007825032070
           H         -2.950148682062    -0.847979547477    -0.886605782976     1.007825032070
           H         -3.609791682062     0.519476452523    -0.009816782976     1.007825032070
           H         -2.949788682062    -0.847244547477     0.867819217024     1.007825032070

  Charge       = 0
  Multiplicity = 1
  Basis Set: 6-31G*
  Basis Set:

    Orbital Energies (a.u.)
    -----------------------

    Doubly Occupied:

       1A    -20.601115     2A    -20.559777     3A    -11.380598
       4A    -11.245389     5A    -11.227912     6A    -11.219574
       7A     -1.469229     8A     -1.370672     9A     -1.085182
      10A     -0.977637    11A     -0.851796    12A     -0.806834
      13A     -0.716607    14A     -0.677191    15A     -0.663721
      16A     -0.634572    17A     -0.580661    18A     -0.564047
      19A     -0.546528    20A     -0.504021    21A     -0.496668
      22A     -0.485899    23A     -0.480414    24A     -0.444085

  @DF-RHF Final Energy:  -305.85807869466032

   => Energetics <=

    Nuclear Repulsion Energy =            240.1530573073420385
    One-Electron Energy =                -892.8420418675758583
    Two-Electron Energy =                 346.8309058655740387
    DFT Exchange-Correlation Energy =       0.0000000000000000
    Empirical Dispersion Energy =           0.0000000000000000
    PCM Polarization Energy =               0.0000000000000000
    EFP Energy =                            0.0000000000000000
    Total Energy =                       -305.8580786946598096

  Mulliken Charges: (a.u.)
   Center  Symbol    Alpha    Beta     Spin     Total
       1     H     0.26708  0.26708  0.00000  0.46584
       2     O     4.35485  4.35485  0.00000 -0.70971
       3     C     2.63073  2.63073  0.00000  0.73853
       4     C     3.21322  3.21322  0.00000 -0.42644
       5     O     4.25270  4.25270  0.00000 -0.50540
       6     C     3.15277  3.15277  0.00000 -0.30553
       7     H     0.39643  0.39643  0.00000  0.20715
       8     H     0.41357  0.41357  0.00000  0.17285
       9     C     3.24291  3.24291  0.00000 -0.48583
      10     H     0.40803  0.40803  0.00000  0.18394
      11     H     0.41104  0.41104  0.00000  0.17791
      12     H     0.42051  0.42051  0.00000  0.15899
      13     H     0.41392  0.41392  0.00000  0.17216
      14     H     0.42223  0.42223  0.00000  0.15554

   Total alpha = 24.00000, Total beta = 24.00000, Total charge = -0.00000
