  ==> Input File <==

--------------------------------------------------------------------------
set {
	reference rhf
	basis cc-pvtz
}

set_num_threads( 4 )
memory 2 gb

molecule MOL {
0 1

H	 -0.000105	 1.988529	 0.748933
O	 -0.000098	 1.879786	 -0.188206
C	 -0.000014	 0.545691	 -0.532416
C	 1.377267	 0.135544	 -1.056492
C	 -1.155682	 0.246961	 -1.488955
H	 -0.178465	 -0.028586	 0.364814
F	 2.275498	 0.348075	 -0.126507
F	 1.428590	 -1.131156	 -1.382909
F	 1.718949	 0.844694	 -2.110880
F	 -2.289609	 0.548865	 -0.905928
F	 -1.203875	 -1.015358	 -1.832379
F	 -1.067076	 0.967255	 -2.586545

	symmetry c1
}
set optking {
	frozen_dihedral = ("
		6 3 2 1
	")
}

ee = optimize('scf')
oeprop('DIPOLE', 'QUADRUPOLE', 'MULLIKEN_CHARGES')
f=open( 'psi4out.xyz', 'w' )
f.write( "12  " )
f.write( str(ee) + "\n" )
f.write( MOL.save_string_xyz() )
f.close()
--------------------------------------------------------------------------

    Molecular point group: c1
  Charge       = 0
  Multiplicity = 1
  Basis Set: CC-PVTZ
  Basis Set:
  @DF-RHF Final Energy:  -786.58568383938359
    Total Energy =                       -786.5856838393842736
    Molecular point group: c1
  Basis Set: CC-PVTZ
  Basis Set:
  Basis Set: CC-PVTZ
  Basis Set:
  @DF-RHF Final Energy:  -786.58709230094371
    Total Energy =                       -786.5870923009438229
  Basis Set: CC-PVTZ
  Basis Set:
  Basis Set: CC-PVTZ
  Basis Set:
  @DF-RHF Final Energy:  -786.58737382892593
    Total Energy =                       -786.5873738289254788
  Basis Set: CC-PVTZ
  Basis Set:
  Basis Set: CC-PVTZ
  Basis Set:
  @DF-RHF Final Energy:  -786.58739847318213
    Total Energy =                       -786.5873984731820201
  Basis Set: CC-PVTZ
  Basis Set:
  Basis Set: CC-PVTZ
  Basis Set:
  @DF-RHF Final Energy:  -786.58740359659066
    Total Energy =                       -786.5874035965906614
  Basis Set: CC-PVTZ
  Basis Set:
  Charge       = 0
  Multiplicity = 1
  Basis Set: CC-PVTZ
  Basis Set:

    Orbital Energies (a.u.)
    -----------------------

    Doubly Occupied:

       1A    -26.351782     2A    -26.351361     3A    -26.350984
       4A    -26.349472     5A    -26.349306     6A    -26.348369
       7A    -20.609507     8A    -11.514868     9A    -11.514566
      10A    -11.351847    11A     -1.765918    12A     -1.760551
      13A     -1.660534    14A     -1.658289    15A     -1.656041
      16A     -1.655799    17A     -1.439199    18A     -1.103331
      19A     -0.996665    20A     -0.938988    21A     -0.866228
      22A     -0.862044    23A     -0.857079    24A     -0.845736
      25A     -0.835035    26A     -0.785848    27A     -0.771445
      28A     -0.732129    29A     -0.725736    30A     -0.723963
      31A     -0.719549    32A     -0.685159    33A     -0.680456
      34A     -0.673804    35A     -0.672355    36A     -0.662604
      37A     -0.657551    38A     -0.624821    39A     -0.622269
      40A     -0.560579    41A     -0.508697

  @DF-RHF Final Energy:  -786.58740449938114

   => Energetics <=

    Nuclear Repulsion Energy =            670.1089164775964946
    One-Electron Energy =               -2427.7917124454443183
    Two-Electron Energy =                 971.0953914684662323
    DFT Exchange-Correlation Energy =       0.0000000000000000
    Empirical Dispersion Energy =           0.0000000000000000
    PCM Polarization Energy =               0.0000000000000000
    EFP Energy =                            0.0000000000000000
    Total Energy =                       -786.5874044993815914
    Molecular point group: c1
  Basis Set: CC-PVTZ
  Basis Set:

  -Total Gradient:
     Atom            X                  Y                   Z
    ------   -----------------  -----------------  -----------------
       1       -0.000522219432     0.000024473431     0.000022872099
       2        0.000821883419    -0.000019003015     0.000040306584
       3       -0.000725864083     0.000168638895    -0.000099757450
       4        0.000002978186     0.000024032282    -0.000177754780
       5        0.000041873716     0.000178329422    -0.000124115695
       6        0.000482392888    -0.000008172719     0.000031717060
       7        0.000059588805     0.000124711567     0.000086852792
       8       -0.000059302290    -0.000197787825    -0.000075266031
       9       -0.000060989740    -0.000037684527     0.000192058191
      10       -0.000045825185    -0.000029662417     0.000040948795
      11       -0.000002619608    -0.000164179029    -0.000046717549
      12        0.000008103321    -0.000063696068     0.000108855988

  **** Optimization is complete! (in 6 steps) ****
    Final optimized geometry and variables:
    Molecular point group: c1

    Geometry (in Angstrom), charge = 0, multiplicity = 1:

    H           -0.116244178184     1.673686034178     1.965793031734
    O           -0.113341253028     1.540320632789     1.036188847092
    C           -0.114314772140     0.196763292459     0.718717495452
    C            1.264957980955    -0.186947817386     0.181887991943
    C           -1.266510587452    -0.057787749316    -0.251923763056
    H           -0.291229378268    -0.439899176985     1.576277973677
    F            2.162040115734     0.076005268156     1.107328793376
    F            1.337003282599    -1.469520553552    -0.086829744884
    F            1.589840013698     0.476637810055    -0.895193819303
    F           -2.398664528853     0.229464329362     0.348821972794
    F           -1.316982981310    -1.318697326702    -0.613602779767
    F           -1.183011796390     0.674152691921    -1.330527997063

  Mulliken Charges: (a.u.)
   Center  Symbol    Alpha    Beta     Spin     Total
       1     H     0.38060  0.38060  0.00000  0.23879
       2     O     4.18705  4.18705  0.00000 -0.37410
       3     C     3.00191  3.00191  0.00000 -0.00382
       4     C     2.67953  2.67953  0.00000  0.64094
       5     C     2.67817  2.67817  0.00000  0.64366
       6     H     0.44470  0.44470  0.00000  0.11060
       7     F     4.60906  4.60906  0.00000 -0.21812
       8     F     4.60545  4.60545  0.00000 -0.21091
       9     F     4.60067  4.60067  0.00000 -0.20133
      10     F     4.60678  4.60678  0.00000 -0.21356
      11     F     4.60537  4.60537  0.00000 -0.21074
      12     F     4.60070  4.60070  0.00000 -0.20141

   Total alpha = 41.00000, Total beta = 41.00000, Total charge =  0.00000
